
    -----------------------------------------------------------------------
          Psi4: An Open-Source Ab Initio Electronic Structure Package
                               Psi4 1.9 release

                         Git: Rev {} zzzzzzz 


    D. G. A. Smith, L. A. Burns, A. C. Simmonett, R. M. Parrish,
    M. C. Schieber, R. Galvelis, P. Kraus, H. Kruse, R. Di Remigio,
    A. Alenaizan, A. M. James, S. Lehtola, J. P. Misiewicz, M. Scheurer,
    R. A. Shaw, J. B. Schriber, Y. Xie, Z. L. Glick, D. A. Sirianni,
    J. S. O'Brien, J. M. Waldrop, A. Kumar, E. G. Hohenstein,
    B. P. Pritchard, B. R. Brooks, H. F. Schaefer III, A. Yu. Sokolov,
    K. Patkowski, A. E. DePrince III, U. Bozkaya, R. A. King,
    F. A. Evangelista, J. M. Turney, T. D. Crawford, C. D. Sherrill,
    J. Chem. Phys. 152(18) 184108 (2020). https://doi.org/10.1063/5.0006002

                            Additional Code Authors
    E. T. Seidl, C. L. Janssen, E. F. Valeev, M. L. Leininger,
    J. F. Gonthier, R. M. Richard, H. R. McAlexander, M. Saitow, X. Wang,
    P. Verma, M. H. Lechner, A. Jiang, S. Behnle, A. G. Heide,
    M. F. Herbst, and D. L. Poole

             Previous Authors, Complete List of Code Contributors,
                       and Citations for Specific Modules
    https://github.com/psi4/psi4/blob/master/codemeta.json
    https://github.com/psi4/psi4/graphs/contributors
    http://psicode.org/psi4manual/master/introduction.html#citing-psifour

    -----------------------------------------------------------------------


    Psi4 started on: Saturday, 27 January 2024 12:13AM

    Process ID: 333052
    Host:       n2cn0313
    PSIDATADIR: /opt/software/pc2/EB-SW/software/PSI4/1.9-foss-2022a/share/psi4
    Memory:     500.0 MiB
    Threads:    16
    
  ==> Input File <==

--------------------------------------------------------------------------
memory 64 GB # how much memory is available ! Depends on the nodes/cores !

molecule dimer {
# monomer A
+1 1    # Charge and multiplicity
C  0.680067 -0.008042  -9.415929
C -0.680504 -0.006014  -9.415545
N -1.085635 -0.005016  -8.097221
C  0.000108 -0.001740  -7.315820
C -2.477365  0.044390  -7.629242
N  1.085222 -0.005016  -8.097221
H  1.385146 -0.015870 -10.233368
H -1.385302 -0.006204 -10.233214
H -0.000009  0.000007  -6.234731
C  2.478117 -0.021908  -7.632123
H  2.490592  0.005437  -6.541870
H  2.967028 -0.935354  -7.979299
H  3.001428  0.853575  -8.023595
H -2.857359  1.066461  -7.709201
H -3.082679 -0.625694  -8.242306
H -2.518128 -0.282594  -6.589294
--
# monomer B
0 1     # Charge and multiplicity
C   -3.66844126402057      7.80375217008252      0.00190004133558
C   -4.84759871934653      7.13124183134024     -0.00046653359696
C   -4.89495929917518      5.69633040353158     -0.00103944469517
C   -3.65374067877320      4.98073034095895      0.00662099703436
C   -2.40942512149445      7.11398103667468      0.00209438359570
C   -2.42547734410473      5.68112195090346     -0.00491050527438
C   -1.19474401643570      7.78614419430947      0.00356656413763
C   0.03795902893699      7.09942164575698      0.00139585983271
C   0.03033258741920      5.66948955970466     -0.00408752508301
C   -1.20098450790502      4.96927034791531      0.00488220885047
C   1.27795782581485      7.77285944319479      0.00277170839332
C   2.48535808472416      7.08769688523756      0.00049722048857
C   2.48612868491717      5.65477081024076     -0.00644052849921
C   1.25408291964399      4.95607811366431      0.00518741308898
C   3.75171459140595      7.76391215098033      0.00062407186893
C   4.92356605618520      7.07878077698995     -0.00143240883900
C   4.95560727132542      5.64344746336949     -0.00159282164606
C   3.70680153420475      4.94121020833308      0.00349873852374
H   -3.65852113775815      8.89082741913536      0.00358502958574
H   -1.18921332975660      8.87412108735996      0.00753844057883
H   1.28429423888630      8.86083343548850      0.00693053253426
H   3.75354208679975      8.85103527897216      0.00214659618464
H   5.86995870320703      7.61379483465560     -0.00235777588134
H   -5.78823170750226      7.67630221293400     -0.00202638095293
C   -6.09197395869619      4.99326001364347     -0.00291168518608
C   -6.12866148031747      3.58258016879823     -0.00171050815740
C   -3.66457974004527      3.56418217974434     -0.00463560277484
C   -4.89429820469869      2.86108077590057      0.00453338221034
C   -2.43733499489796      2.84761165708481      0.00719617576166
C   -1.20922785759670      3.54788693497833     -0.00648285103018
C   1.24714157216223      3.53468075142962     -0.00729145743546
C   0.01517603956900      2.83311183930540      0.00439272578912
C   2.46764517244071      2.82128997725533      0.00449278391269
C   3.70254947457969      3.52466015442405     -0.00899517692985
C   6.14498038638375      4.92757236613191     -0.00282626685777
C   6.16658835886151      3.51658447594213     -0.00065971342101
C   4.92460995845939      2.80840792535402      0.00587903281610
H   7.08990550964105      5.46688776622306     -0.00658814770723
H   -7.03104175110130      5.54268795285765     -0.00714490013730
C   -7.33969804112295      2.85841153457957     -0.00333767559888
C   -7.36488195805880      1.47032337158330     -0.00157213747140
C   -4.90350460894690      1.44442681216000     -0.00628840166334
C   -6.13225715261081      0.73993935705394      0.00600164231964
C   -3.67687480051673      0.72669714267312      0.00433931473643
C   -2.44565658606518      1.42964113326212     -0.00597039546461
C   -1.22360068130162      0.71532450163492      0.00545886906656
C   0.00763786931376      1.41738314923765      0.00392452278437
C   1.23121980774686      0.70211669058719     -0.01490206287210
C   2.46082110053113      1.40329203612573      0.00460244601878
C   3.68443025419614      0.68719842821222      0.00377365974158
C   4.91870890153864      1.39173456118907     -0.00862816189375
C   7.36980207796101      2.77948220318441     -0.00242013321349
C   7.38016266612146      1.39121750785509     -0.00087345036788
C   6.13979953912259      0.67411862320065      0.00545489144369
H   -8.27919079934664      3.40711804112415     -0.00763522772059
H   8.31511347147953      3.31811809662368     -0.00663070901292
C   -8.59175593758115      0.72483255304480     -0.00123170985383
C   -8.59902460370342     -0.63263980622873      0.00089141472904
C   -6.13981313911873     -0.67413663715361     -0.00609792660607
C   -7.38018411213749     -1.39126618958160      0.00131813493501
C   -4.91868448025621     -1.39175501803000      0.00624257154343
C   -3.68443829568458     -0.68723731573599     -0.00478966852105
C   -2.46081704024768     -1.40334517882457      0.00575341766833
C   -1.23116201232071     -0.70217386488055     -0.00636696112346
C   -0.00756962538737     -1.41741884941102      0.00108956317991
C   1.22364771588843     -0.71527537726392      0.01109518512883
C   2.44567064933149     -1.42964328900682     -0.00065482763106
C   3.67686670284649     -0.72670743155550     -0.00479541202602
C   6.13224884641929     -0.73997883984993     -0.00632338623858
C   4.90351914550401     -1.44445752054090      0.00751768830159
C   8.59901484869081      0.63260386666793     -0.00101133422380
C   8.59174548810050     -0.72485086719319      0.00072504603735
C   7.36486276438985     -1.47033266560598      0.00049486934466
H   -9.52830597181814      1.27684744919284     -0.00270163681798
H   9.54141097460619      1.17457248844457     -0.00206336648518
C   -7.36983790976868     -2.77954514593389      0.00312634335708
C   -4.92459910905015     -2.80843725734101     -0.00460528907921
C   -6.16662249566744     -3.51665219282533      0.00169655107992
C   -3.70251035970491     -3.52468154912026      0.00571878010666
C   -2.46764698511392     -2.82132596280400     -0.00632585824990
C   -0.01513347410770     -2.83314164539971     -0.00604426974092
C   -1.24712184122656     -3.53473217556300      0.00551968366725
C   1.20924506964357     -3.54791467864352      0.00805871345849
C   2.43733602215464     -2.84764173817541     -0.00608104485234
C   4.89430234377080     -2.86112296828604     -0.00526030478103
C   3.66461525504104     -3.56421984553201      0.00761911515957
C   6.12863901474565     -3.58258405771778      0.00096495711699
C   7.33967266469532     -2.85841330737039      0.00248018319869
H   -9.54144911125902     -1.17456346666430      0.00226083090216
H   9.52826186807155     -1.27691907390448      0.00197485379837
H   -8.31516504384864     -3.31814985321231      0.00729857188773
H   8.27915514249207     -3.40714078989363      0.00681973918158
C   -6.14499418870218     -4.92764727278338      0.00302254913999
C   -3.70678334799751     -4.94126171411716     -0.00679841894792
C   -4.95559005800169     -5.64349397349412      0.00116871569699
C   -2.48612132622665     -5.65478557440947      0.00614125209662
C   -1.25405833548005     -4.95612205000132     -0.00503435388927
C   1.20101257386816     -4.96928038819302     -0.00385322963129
C   -0.03033667441341     -5.66952030313900      0.00398997003238
C   3.65375010132847     -4.98074377541453     -0.00309522988330
C   2.42549269587528     -5.68117463552727      0.00628170066869
C   6.09196561781097     -4.99325796338655      0.00325918379042
C   4.89497644461045     -5.69634842095790      0.00202298796027
H   -7.08989238804069     -5.46699984223871      0.00742531082125
H   7.03105520920009     -5.54265853633254      0.00683896355417
C   -4.92354532219813     -7.07882109967734      0.00061394679214
C   -2.48534208823777     -7.08772807792913     -0.00189594564379
C   -3.75168589177895     -7.76394715763627     -0.00170126671874
C   -0.03794895698805     -7.09946487446944     -0.00168022049625
C   -1.27795610040136     -7.77290438466689     -0.00366491325785
C   2.40944432072629     -7.11402201200282     -0.00081701968533
C   1.19474993715296     -7.78618536556242     -0.00296931056689
C   4.84762105249800     -7.13126211057943      0.00168979497423
C   3.66847160587561     -7.80378799294376     -0.00065863938960
H   -5.86994035041618     -7.61383059804164      0.00215798365757
H   5.78824962538815     -7.67633218931421      0.00281691445618
H   -3.75352693944918     -8.85107156923607     -0.00353718114765
H   -1.28430440589466     -8.86087539249706     -0.00809229711623
H   1.18922157469537     -8.87416062058945     -0.00706194725726
H   3.65854661482387     -8.89086063405326     -0.00231318081200

    units angstrom      # Angstroms are the default
    no_reorient         # Geometry fixed, default
    symmetry c1         # C1 symmetry, default
}

set {
    scf_type DF         # Density fitting, faster than exact integrals
    freeze_core True    # Freeze core electrons
    basis jun-cc-pVDZ   # Jun-cc-pVDZ basis set, recommended for sSAPT0 in https://doi.org/10.1063/1.4867135
}

energy('ssapt0')        # Compute sSAPT0 energy, includes also SAPT0
--------------------------------------------------------------------------

  Memory set to  59.605 GiB by Python driver.

Scratch directory: /tmp/
   => Loading Basis Set <=

    Name: JUN-CC-PVDZ
    Role: ORBITAL
    Keyword: BASIS
    atoms 1-2, 4-5, 10, 17-34, 41-53, 56-70, 73-89, 92-104, 109-119, 122-130 entry C          line   164 file /opt/software/pc2/EB-SW/software/PSI4/1.9-foss-2022a/share/psi4/basis/jun-cc-pvdz.gbs 
    atoms 3, 6                                                               entry N          line   198 file /opt/software/pc2/EB-SW/software/PSI4/1.9-foss-2022a/share/psi4/basis/jun-cc-pvdz.gbs 
    atoms 7-9, 11-16, 35-40, 54-55, 71-72, 90-91, 105-108, 120-121, 131-136  entry H          line    36 file /opt/software/pc2/EB-SW/software/PSI4/1.9-foss-2022a/share/psi4/basis/jun-cc-pvdz.gbs 

   => Loading Basis Set <=

    Name: JUN-CC-PVDZ
    Role: ORBITAL
    Keyword: BASIS
    atoms 1-2, 4-5, 10, 17-34, 41-53, 56-70, 73-89, 92-104, 109-119, 122-130 entry C          line   164 file /opt/software/pc2/EB-SW/software/PSI4/1.9-foss-2022a/share/psi4/basis/jun-cc-pvdz.gbs 
    atoms 3, 6                                                               entry N          line   198 file /opt/software/pc2/EB-SW/software/PSI4/1.9-foss-2022a/share/psi4/basis/jun-cc-pvdz.gbs 
    atoms 7-9, 11-16, 35-40, 54-55, 71-72, 90-91, 105-108, 120-121, 131-136  entry H          line    36 file /opt/software/pc2/EB-SW/software/PSI4/1.9-foss-2022a/share/psi4/basis/jun-cc-pvdz.gbs 


  //>>>>>>>>>>>>>>>>>>>>>>>>>>>>>>>>>>>//
  //              Dimer HF             //
  //<<<<<<<<<<<<<<<<<<<<<<<<<<<<<<<<<<<//

   => Libint2 <=

    Primary   basis highest AM E, G, H:  5, 4, 3
    Auxiliary basis highest AM E, G, H:  6, 5, 4
    Onebody   basis highest AM E, G, H:  6, 5, 4
    Solid Harmonics ordering:            gaussian

*** tstart() called on n2cn0313
*** at Sat Jan 27 00:13:57 2024

   => Loading Basis Set <=

    Name: JUN-CC-PVDZ
    Role: ORBITAL
    Keyword: BASIS
    atoms 1-2, 4-5, 10, 17-34, 41-53, 56-70, 73-89, 92-104, 109-119, 122-130 entry C          line   164 file /opt/software/pc2/EB-SW/software/PSI4/1.9-foss-2022a/share/psi4/basis/jun-cc-pvdz.gbs 
    atoms 3, 6                                                               entry N          line   198 file /opt/software/pc2/EB-SW/software/PSI4/1.9-foss-2022a/share/psi4/basis/jun-cc-pvdz.gbs 
    atoms 7-9, 11-16, 35-40, 54-55, 71-72, 90-91, 105-108, 120-121, 131-136  entry H          line    36 file /opt/software/pc2/EB-SW/software/PSI4/1.9-foss-2022a/share/psi4/basis/jun-cc-pvdz.gbs 


         ---------------------------------------------------------
                                   SCF
               by Justin Turney, Rob Parrish, Andy Simmonett
                          and Daniel G. A. Smith
                              RHF Reference
                       16 Threads,  61035 MiB Core
         ---------------------------------------------------------

  ==> Geometry <==

    Molecular point group: c1
    Full point group: C1

    Geometry (in Angstrom), charge = 1, multiplicity = 1:

       Center              X                  Y                   Z               Mass       
    ------------   -----------------  -----------------  -----------------  -----------------
         C            0.680062820275    -0.008027535675    -8.790748117996    12.000000000000
         C           -0.680508179725    -0.005999535675    -8.790364117996    12.000000000000
         N           -1.085639179725    -0.005001535675    -7.472040117996    14.003074004430
         C            0.000103820275    -0.001725535675    -6.690639117996    12.000000000000
         C           -2.477369179725     0.044404464325    -7.004061117996    12.000000000000
         N            1.085217820275    -0.005001535675    -7.472040117996    14.003074004430
         H            1.385141820275    -0.015855535675    -9.608187117996     1.007825032230
         H           -1.385306179725    -0.006189535675    -9.608033117996     1.007825032230
         H           -0.000013179725     0.000021464325    -5.609550117996     1.007825032230
         C            2.478112820275    -0.021893535675    -7.006942117996    12.000000000000
         H            2.490587820275     0.005451464325    -5.916689117996     1.007825032230
         H            2.967023820275    -0.935339535675    -7.354118117996     1.007825032230
         H            3.001423820275     0.853589464325    -7.398414117996     1.007825032230
         H           -2.857363179725     1.066475464325    -7.084020117996     1.007825032230
         H           -3.082683179725    -0.625679535675    -7.617125117996     1.007825032230
         H           -2.518132179725    -0.282579535675    -5.964113117996     1.007825032230
         C           -3.668445443746     7.803766634408     0.627080923339    12.000000000000
         C           -4.847602899072     7.131256295665     0.624714348407    12.000000000000
         C           -4.894963478901     5.696344867857     0.624141437309    12.000000000000
         C           -3.653744858499     4.980744805284     0.631801879038    12.000000000000
         C           -2.409429301220     7.113995501000     0.627275265599    12.000000000000
         C           -2.425481523830     5.681136415228     0.620270376729    12.000000000000
         C           -1.194748196161     7.786158658634     0.628747446141    12.000000000000
         C            0.037954849212     7.099436110082     0.626576741836    12.000000000000
         C            0.030328407694     5.669504024030     0.621093356921    12.000000000000
         C           -1.200988687630     4.969284812240     0.630063090854    12.000000000000
         C            1.277953646089     7.772873907520     0.627952590397    12.000000000000
         C            2.485353904999     7.087711349563     0.625678102492    12.000000000000
         C            2.486124505192     5.654785274566     0.618740353505    12.000000000000
         C            1.254078739919     4.956092577989     0.630368295093    12.000000000000
         C            3.751710411681     7.763926615305     0.625804953873    12.000000000000
         C            4.923561876460     7.078795241315     0.623748473165    12.000000000000
         C            4.955603091600     5.643461927694     0.623588060358    12.000000000000
         C            3.706797354479     4.941224672658     0.628679620528    12.000000000000
         H           -3.658525317484     8.890841883460     0.628765911590     1.007825032230
         H           -1.189217509482     8.874135551685     0.632719322583     1.007825032230
         H            1.284290059161     8.860847899813     0.632111414538     1.007825032230
         H            3.753537907074     8.851049743297     0.627327478188     1.007825032230
         H            5.869954523482     7.613809298981     0.622823106122     1.007825032230
         H           -5.788235887228     7.676316677259     0.623154501051     1.007825032230
         C           -6.091978138422     4.993274477968     0.622269196818    12.000000000000
         C           -6.128665660043     3.582594633123     0.623470373846    12.000000000000
         C           -3.664583919771     3.564196644069     0.620545279229    12.000000000000
         C           -4.894302384424     2.861095240226     0.629714264214    12.000000000000
         C           -2.437339174623     2.847626121410     0.632377057765    12.000000000000
         C           -1.209232037322     3.547901399303     0.618698030974    12.000000000000
         C            1.247137392437     3.534695215755     0.617889424568    12.000000000000
         C            0.015171859844     2.833126303630     0.629573607793    12.000000000000
         C            2.467640992715     2.821304441580     0.629673665916    12.000000000000
         C            3.702545294854     3.524674618749     0.616185705074    12.000000000000
         C            6.144976206658     4.927586830457     0.622354615146    12.000000000000
         C            6.166584179136     3.516598940267     0.624521168583    12.000000000000
         C            4.924605778734     2.808422389679     0.631059914820    12.000000000000
         H            7.089901329916     5.466902230548     0.618592734297     1.007825032230
         H           -7.031045930827     5.542702417183     0.618035981866     1.007825032230
         C           -7.339702220848     2.858425998905     0.621843206405    12.000000000000
         C           -7.364886137784     1.470337835908     0.623608744532    12.000000000000
         C           -4.903508788672     1.444441276485     0.618892480340    12.000000000000
         C           -6.132261332336     0.739953821379     0.631182524323    12.000000000000
         C           -3.676878980242     0.726711606998     0.629520196740    12.000000000000
         C           -2.445660765791     1.429655597587     0.619210486539    12.000000000000
         C           -1.223604861027     0.715338965960     0.630639751070    12.000000000000
         C            0.007633689588     1.417397613563     0.629105404788    12.000000000000
         C            1.231215628021     0.702131154912     0.610278819132    12.000000000000
         C            2.460816920806     1.403306500451     0.629783328023    12.000000000000
         C            3.684426074471     0.687212892537     0.628954541745    12.000000000000
         C            4.918704721813     1.391749025514     0.616552720110    12.000000000000
         C            7.369797898236     2.779496667509     0.622760748790    12.000000000000
         C            7.380158486396     1.391231972180     0.624307431636    12.000000000000
         C            6.139795359397     0.674133087526     0.630635773447    12.000000000000
         H           -8.279194979072     3.407132505449     0.617545654283     1.007825032230
         H            8.315109291754     3.318132560949     0.618550172991     1.007825032230
         C           -8.591760117307     0.724847017370     0.623949172150    12.000000000000
         C           -8.599028783429    -0.632625341904     0.626072296733    12.000000000000
         C           -6.139817318844    -0.674122172829     0.619082955398    12.000000000000
         C           -7.380188291863    -1.391251725257     0.626499016939    12.000000000000
         C           -4.918688659982    -1.391740553705     0.631423453547    12.000000000000
         C           -3.684442475410    -0.687222851411     0.620391213483    12.000000000000
         C           -2.460821219973    -1.403330714500     0.630934299672    12.000000000000
         C           -1.231166192046    -0.702159400556     0.618813920880    12.000000000000
         C           -0.007573805113    -1.417404385086     0.626270445184    12.000000000000
         C            1.223643536163    -0.715260912939     0.636276067133    12.000000000000
         C            2.445666469606    -1.429628824682     0.624526054373    12.000000000000
         C            3.676862523121    -0.726692967231     0.620385469978    12.000000000000
         C            6.132244666694    -0.739964375525     0.618857495765    12.000000000000
         C            4.903514965779    -1.444443056216     0.632698570305    12.000000000000
         C            8.599010668965     0.632618330993     0.624169547780    12.000000000000
         C            8.591741308375    -0.724836402868     0.625905928041    12.000000000000
         C            7.364858584664    -1.470318201281     0.625675751348    12.000000000000
         H           -9.528310151544     1.276861913518     0.622479245186     1.007825032230
         H            9.541406794881     1.174586952770     0.623117515519     1.007825032230
         C           -7.369842089494    -2.779530681609     0.628307225361    12.000000000000
         C           -4.924603288776    -2.808422793016     0.620575592925    12.000000000000
         C           -6.166626675393    -3.516637728500     0.626877433084    12.000000000000
         C           -3.702514539430    -3.524667084795     0.630899662110    12.000000000000
         C           -2.467651164839    -2.821311498479     0.618855023754    12.000000000000
         C           -0.015137653833    -2.833127181075     0.619136612263    12.000000000000
         C           -1.247126020952    -3.534717711238     0.630700565671    12.000000000000
         C            1.209240889918    -3.547900214319     0.633239595462    12.000000000000
         C            2.437331842429    -2.847627273850     0.619099837151    12.000000000000
         C            4.894298164045    -2.861108503961     0.619920577223    12.000000000000
         C            3.664611075316    -3.564205381207     0.632799997163    12.000000000000
         C            6.128634835020    -3.582569593393     0.626145839121    12.000000000000
         C            7.339668484970    -2.858398843045     0.627661065202    12.000000000000
         H           -9.541453290984    -1.174549002339     0.627441712906     1.007825032230
         H            9.528257688346    -1.276904609579     0.627155735802     1.007825032230
         H           -8.315169223574    -3.318135388887     0.632479453891     1.007825032230
         H            8.279150962767    -3.407126325569     0.632000621185     1.007825032230
         C           -6.144998368428    -4.927632808458     0.628203431144    12.000000000000
         C           -3.706787527723    -4.941247249792     0.618382463056    12.000000000000
         C           -4.955594237727    -5.643479509169     0.626349597701    12.000000000000
         C           -2.486125505952    -5.654771110084     0.631322134100    12.000000000000
         C           -1.254062515205    -4.956107585676     0.620146528114    12.000000000000
         C            1.201008394143    -4.969265923868     0.621327652372    12.000000000000
         C           -0.030340854139    -5.669505838814     0.629170852036    12.000000000000
         C            3.653745921603    -4.980729311090     0.622085652120    12.000000000000
         C            2.425488516150    -5.681160171202     0.631462582672    12.000000000000
         C            6.091961438086    -4.993243499062     0.628440065794    12.000000000000
         C            4.894972264885    -5.696333956633     0.627203869964    12.000000000000
         H           -7.089896567766    -5.466985377914     0.632606192825     1.007825032230
         H            7.031051029475    -5.542644072008     0.632019845558     1.007825032230
         C           -4.923549501924    -7.078806635352     0.625794828796    12.000000000000
         C           -2.485346267963    -7.087713613604     0.623284936360    12.000000000000
         C           -3.751690071504    -7.763932693311     0.623479615285    12.000000000000
         C           -0.037953136713    -7.099450410144     0.623500661508    12.000000000000
         C           -1.277960280127    -7.772889920342     0.621515968746    12.000000000000
         C            2.409440141001    -7.114007547678     0.624363862318    12.000000000000
         C            1.194745757428    -7.786170901237     0.622211571437    12.000000000000
         C            4.847616872773    -7.131247646254     0.626870676978    12.000000000000
         C            3.668467426150    -7.803773528619     0.624522242614    12.000000000000
         H           -5.869944530142    -7.613816133717     0.627338865661     1.007825032230
         H            5.788245445663    -7.676317724989     0.627997796460     1.007825032230
         H           -3.753531119175    -8.851057104911     0.621643700856     1.007825032230
         H           -1.284308585620    -8.860860928172     0.617088584888     1.007825032230
         H            1.189217394970    -8.874146156264     0.618118934747     1.007825032230
         H            3.658542435098    -8.890846169728     0.622867701192     1.007825032230

  Running in c1 symmetry.

  Rotational constants: A =      0.00056  B =      0.00056  C =      0.00035 [cm^-1]
  Rotational constants: A =     16.84354  B =     16.71192  C =     10.51914 [MHz]
  Nuclear repulsion = 17559.457432317129133

  Charge       = 1
  Multiplicity = 1
  Electrons    = 652
  Nalpha       = 326
  Nbeta        = 326

  ==> Algorithm <==

  SCF Algorithm Type is DF.
  DIIS enabled.
  MOM disabled.
  Fractional occupation disabled.
  Guess Type is SAD.
  Energy threshold   = 1.00e-08
  Density threshold  = 1.00e-08
  Integral threshold = 1.00e-12

  ==> Primary Basis <==

  Basis Set: JUN-CC-PVDZ
    Blend: JUN-CC-PVDZ
    Number of shells: 923
    Number of basis functions: 2019
    Number of Cartesian functions: 2122
    Spherical Harmonics?: true
    Max angular momentum: 2

   => Loading Basis Set <=

    Name: (JUN-CC-PVDZ AUX)
    Role: JKFIT
    Keyword: DF_BASIS_SCF
    atoms 1-2, 4-5, 10, 17-34, 41-53, 56-70, 73-89, 92-104, 109-119, 122-130 entry C          line   146 file /opt/software/pc2/EB-SW/software/PSI4/1.9-foss-2022a/share/psi4/basis/jun-cc-pvdz-jkfit.gbs 
    atoms 3, 6                                                               entry N          line   202 file /opt/software/pc2/EB-SW/software/PSI4/1.9-foss-2022a/share/psi4/basis/jun-cc-pvdz-jkfit.gbs 
    atoms 7-9, 11-16, 35-40, 54-55, 71-72, 90-91, 105-108, 120-121, 131-136  entry H          line    70 file /opt/software/pc2/EB-SW/software/PSI4/1.9-foss-2022a/share/psi4/basis/jun-cc-pvdz-jkfit.gbs 

  ==> Integral Setup <==

  ==> DiskDFJK: Density-Fitted J/K Matrices <==

    J tasked:                  Yes
    K tasked:                  Yes
    wK tasked:                  No
    OpenMP threads:             16
    Integrals threads:          16
    Memory [MiB]:            45776
    Algorithm:                Disk
    Integral Cache:           SAVE
    Schwarz Cutoff:          1E-12
    Fitting Condition:       1E-10

   => Auxiliary Basis Set <=

  Basis Set: (JUN-CC-PVDZ AUX)
    Blend: JUN-CC-PVDZ-JKFIT
    Number of shells: 3078
    Number of basis functions: 8896
    Number of Cartesian functions: 10198
    Spherical Harmonics?: true
    Max angular momentum: 3

  Minimum eigenvalue in the overlap matrix is 9.0377435174E-11.
  Reciprocal condition number of the overlap matrix is 3.9635373383E-12.
    Using canonical orthogonalization.
  Overall, 38 of 2019 possible MOs eliminated.


  ==> Pre-Iterations <==

  SCF Guess: Superposition of Atomic Densities via on-the-fly atomic UHF (no occupation information).

   -------------------------
    Irrep   Nso     Nmo    
   -------------------------
     A       2019    1981 
   -------------------------
    Total    2019    1981
   -------------------------

  ==> Iterations <==

                           Total Energy        Delta E     RMS |[F,P]|

   @DF-RHF iter SAD: -3967.13322352429259   -3.96713e+03   0.00000e+00 
   @DF-RHF iter   1: -3952.09752855262059    1.50357e+01   7.16228e-04 DIIS/ADIIS
   @DF-RHF iter   2: -3953.49292729319905   -1.39540e+00   2.33193e-04 DIIS/ADIIS
   @DF-RHF iter   3: -3953.61683698331399   -1.23910e-01   9.98549e-05 DIIS
   @DF-RHF iter   4: -3953.63910988353246   -2.22729e-02   4.16267e-05 DIIS
   @DF-RHF iter   5: -3953.64347323693983   -4.36335e-03   1.01998e-05 DIIS
   @DF-RHF iter   6: -3953.64390412282501   -4.30886e-04   4.59355e-06 DIIS
   @DF-RHF iter   7: -3953.64408631200331   -1.82189e-04   2.20440e-06 DIIS
   @DF-RHF iter   8: -3953.64414748633862   -6.11743e-05   1.10651e-06 DIIS
   @DF-RHF iter   9: -3953.64416481599301   -1.73297e-05   3.53384e-07 DIIS
   @DF-RHF iter  10: -3953.64416598539810   -1.16941e-06   1.45105e-07 DIIS
   @DF-RHF iter  11: -3953.64416613506046   -1.49662e-07   5.92063e-08 DIIS
   @DF-RHF iter  12: -3953.64416616707149   -3.20110e-08   2.94335e-08 DIIS
   @DF-RHF iter  13: -3953.64416617428651   -7.21502e-09   9.71290e-09 DIIS
  Energy and wave function converged.


  ==> Post-Iterations <==

    Orbital Energies [Eh]
    ---------------------

    Doubly Occupied:                                                      

       1A    -15.823494     2A    -15.822971     3A    -11.518230  
       4A    -11.449696     5A    -11.448141     6A    -11.438219  
       7A    -11.438109     8A    -11.316283     9A    -11.315870  
      10A    -11.315836    11A    -11.315191    12A    -11.315146  
      13A    -11.314984    14A    -11.314825    15A    -11.314765  
      16A    -11.314680    17A    -11.314285    18A    -11.314274  
      19A    -11.314057    20A    -11.313865    21A    -11.313815  
      22A    -11.313796    23A    -11.313618    24A    -11.313566  
      25A    -11.313417    26A    -11.313064    27A    -11.312979  
      28A    -11.312878    29A    -11.312807    30A    -11.312713  
      31A    -11.312688    32A    -11.311726    33A    -11.311719  
      34A    -11.311626    35A    -11.311618    36A    -11.311491  
      37A    -11.311472    38A    -11.311460    39A    -11.311425  
      40A    -11.311378    41A    -11.311372    42A    -11.311246  
      43A    -11.311218    44A    -11.310415    45A    -11.310408  
      46A    -11.310403    47A    -11.310394    48A    -11.310162  
      49A    -11.310155    50A    -11.309973    51A    -11.309966  
      52A    -11.309736    53A    -11.309730    54A    -11.309724  
      55A    -11.309718    56A    -11.309611    57A    -11.309600  
      58A    -11.309349    59A    -11.309348    60A    -11.309337  
      61A    -11.309333    62A    -11.309012    63A    -11.309002  
      64A    -11.308812    65A    -11.308804    66A    -11.308781  
      67A    -11.308779    68A    -11.308728    69A    -11.308720  
      70A    -11.308709    71A    -11.308705    72A    -11.308538  
      73A    -11.308515    74A    -11.308342    75A    -11.308337  
      76A    -11.308096    77A    -11.308095    78A    -11.308082  
      79A    -11.308081    80A    -11.301844    81A    -11.301823  
      82A    -11.301780    83A    -11.301778    84A    -11.301641  
      85A    -11.301624    86A    -11.301581    87A    -11.301578  
      88A    -11.301575    89A    -11.301531    90A    -11.301500  
      91A    -11.301451    92A    -11.301114    93A    -11.301101  
      94A    -11.300759    95A    -11.300748    96A    -11.300745  
      97A    -11.300743    98A    -11.299647    99A    -11.299634  
     100A    -11.299291   101A    -11.299280   102A    -11.299277  
     103A    -11.299276   104A     -1.567264   105A     -1.422759  
     106A     -1.305355   107A     -1.289411   108A     -1.289243  
     109A     -1.270124   110A     -1.270099   111A     -1.265876  
     112A     -1.250082   113A     -1.244969   114A     -1.238412  
     115A     -1.238261   116A     -1.227907   117A     -1.222629  
     118A     -1.222608   119A     -1.205590   120A     -1.205583  
     121A     -1.202768   122A     -1.193375   123A     -1.193365  
     124A     -1.178111   125A     -1.177959   126A     -1.164610  
     127A     -1.162438   128A     -1.162327   129A     -1.161729  
     130A     -1.160107   131A     -1.137733   132A     -1.137665  
     133A     -1.125446   134A     -1.125431   135A     -1.117249  
     136A     -1.117200   137A     -1.114823   138A     -1.107621  
     139A     -1.095857   140A     -1.095840   141A     -1.089517  
     142A     -1.087217   143A     -1.087180   144A     -1.075209  
     145A     -1.071891   146A     -1.071853   147A     -1.056348  
     148A     -1.055885   149A     -1.052785   150A     -1.050015  
     151A     -1.049980   152A     -1.039270   153A     -1.020312  
     154A     -1.020283   155A     -1.011794   156A     -1.004539  
     157A     -1.004536   158A     -0.985874   159A     -0.955865  
     160A     -0.955774   161A     -0.954856   162A     -0.953672  
     163A     -0.953607   164A     -0.942666   165A     -0.942556  
     166A     -0.940201   167A     -0.940100   168A     -0.939017  
     169A     -0.920654   170A     -0.916686   171A     -0.905923  
     172A     -0.900259   173A     -0.897577   174A     -0.897462  
     175A     -0.895324   176A     -0.892468   177A     -0.883481  
     178A     -0.883451   179A     -0.876238   180A     -0.876228  
     181A     -0.839470   182A     -0.834092   183A     -0.833965  
     184A     -0.832073   185A     -0.832031   186A     -0.831627  
     187A     -0.831392   188A     -0.831306   189A     -0.816180  
     190A     -0.810765   191A     -0.805590   192A     -0.801779  
     193A     -0.799948   194A     -0.781743   195A     -0.779288  
     196A     -0.776185   197A     -0.776057   198A     -0.775040  
     199A     -0.774159   200A     -0.773649   201A     -0.773559  
     202A     -0.771331   203A     -0.768144   204A     -0.763268  
     205A     -0.763209   206A     -0.748110   207A     -0.748086  
     208A     -0.735648   209A     -0.734544   210A     -0.734511  
     211A     -0.731000   212A     -0.730995   213A     -0.727717  
     214A     -0.718206   215A     -0.714347   216A     -0.705964  
     217A     -0.701991   218A     -0.699504   219A     -0.699475  
     220A     -0.699336   221A     -0.699228   222A     -0.698044  
     223A     -0.690278   224A     -0.690211   225A     -0.688786  
     226A     -0.687727   227A     -0.685137   228A     -0.685094  
     229A     -0.678038   230A     -0.669372   231A     -0.663489  
     232A     -0.663432   233A     -0.657571   234A     -0.657529  
     235A     -0.649669   236A     -0.649473   237A     -0.648033  
     238A     -0.647973   239A     -0.647727   240A     -0.647500  
     241A     -0.643819   242A     -0.643693   243A     -0.643655  
     244A     -0.643349   245A     -0.640600   246A     -0.640573  
     247A     -0.637205   248A     -0.625519   249A     -0.625456  
     250A     -0.625368   251A     -0.625333   252A     -0.621970  
     253A     -0.620161   254A     -0.617650   255A     -0.617633  
     256A     -0.615311   257A     -0.615227   258A     -0.608538  
     259A     -0.607855   260A     -0.607731   261A     -0.606387  
     262A     -0.603315   263A     -0.599533   264A     -0.594862  
     265A     -0.593612   266A     -0.585403   267A     -0.585387  
     268A     -0.585223   269A     -0.582155   270A     -0.582086  
     271A     -0.577440   272A     -0.576541   273A     -0.576516  
     274A     -0.566076   275A     -0.565917   276A     -0.564096  
     277A     -0.564075   278A     -0.557861   279A     -0.557855  
     280A     -0.546877   281A     -0.545447   282A     -0.545352  
     283A     -0.543807   284A     -0.543784   285A     -0.539636  
     286A     -0.529641   287A     -0.525892   288A     -0.525881  
     289A     -0.522548   290A     -0.518967   291A     -0.515564  
     292A     -0.515521   293A     -0.513453   294A     -0.508170  
     295A     -0.496790   296A     -0.496664   297A     -0.490997  
     298A     -0.490879   299A     -0.490680   300A     -0.482928  
     301A     -0.482254   302A     -0.456682   303A     -0.456604  
     304A     -0.436271   305A     -0.436207   306A     -0.433920  
     307A     -0.433905   308A     -0.433793   309A     -0.403440  
     310A     -0.403410   311A     -0.399795   312A     -0.389060  
     313A     -0.386828   314A     -0.386789   315A     -0.380955  
     316A     -0.380850   317A     -0.357167   318A     -0.351911  
     319A     -0.351864   320A     -0.349616   321A     -0.335019  
     322A     -0.304031   323A     -0.303307   324A     -0.303288  
     325A     -0.253183   326A     -0.253141  

    Virtual:                                                              

     327A     -0.060429   328A     -0.060223   329A     -0.057642  
     330A     -0.052770   331A     -0.044521   332A     -0.039194  
     333A     -0.022091   334A     -0.019483   335A     -0.019230  
     336A     -0.015736   337A     -0.014645   338A     -0.014513  
     339A     -0.007832   340A      0.001689   341A      0.002639  
     342A      0.003982   343A      0.004993   344A      0.005970  
     345A      0.006837   346A      0.007938   347A      0.009652  
     348A      0.010658   349A      0.011713   350A      0.012324  
     351A      0.016276   352A      0.017371   353A      0.020503  
     354A      0.020628   355A      0.021735   356A      0.021885  
     357A      0.022009   358A      0.022411   359A      0.025043  
     360A      0.030158   361A      0.030271   362A      0.032171  
     363A      0.032368   364A      0.033226   365A      0.033238  
     366A      0.035351   367A      0.039161   368A      0.040401  
     369A      0.041680   370A      0.041952   371A      0.043084  
     372A      0.044387   373A      0.044644   374A      0.045556  
     375A      0.048601   376A      0.051091   377A      0.054859  
     378A      0.055451   379A      0.056683   380A      0.056771  
     381A      0.059432   382A      0.060266   383A      0.060482  
     384A      0.060550   385A      0.064960   386A      0.065339  
     387A      0.065782   388A      0.065944   389A      0.066387  
     390A      0.066397   391A      0.066952   392A      0.069005  
     393A      0.072007   394A      0.072878   395A      0.074168  
     396A      0.075132   397A      0.076031   398A      0.076811  
     399A      0.077494   400A      0.079352   401A      0.081318  
     402A      0.082849   403A      0.086836   404A      0.087367  
     405A      0.089344   406A      0.089743   407A      0.090397  
     408A      0.092016   409A      0.094556   410A      0.095558  
     411A      0.096627   412A      0.096747   413A      0.099541  
     414A      0.100580   415A      0.100680   416A      0.103395  
     417A      0.103896   418A      0.105437   419A      0.107431  
     420A      0.107867   421A      0.107952   422A      0.108342  
     423A      0.110696   424A      0.112316   425A      0.114173  
     426A      0.114275   427A      0.116621   428A      0.117311  
     429A      0.118496   430A      0.118998   431A      0.121690  
     432A      0.123554   433A      0.123684   434A      0.123911  
     435A      0.125930   436A      0.128185   437A      0.130476  
     438A      0.130625   439A      0.130781   440A      0.132874  
     441A      0.133900   442A      0.135014   443A      0.135064  
     444A      0.138278   445A      0.139303   446A      0.140915  
     447A      0.142310   448A      0.143891   449A      0.144126  
     450A      0.145010   451A      0.145078   452A      0.145521  
     453A      0.148820   454A      0.151574   455A      0.154283  
     456A      0.154357   457A      0.155355   458A      0.156128  
     459A      0.157118   460A      0.157238   461A      0.158358  
     462A      0.158834   463A      0.159180   464A      0.159618  
     465A      0.161278   466A      0.161391   467A      0.161603  
     468A      0.161915   469A      0.162706   470A      0.163727  
     471A      0.163931   472A      0.164276   473A      0.166765  
     474A      0.167753   475A      0.168919   476A      0.169584  
     477A      0.170471   478A      0.170601   479A      0.171745  
     480A      0.175290   481A      0.175766   482A      0.175928  
     483A      0.177262   484A      0.178970   485A      0.179062  
     486A      0.179306   487A      0.180499   488A      0.181865  
     489A      0.182493   490A      0.183580   491A      0.184268  
     492A      0.184612   493A      0.186113   494A      0.187736  
     495A      0.189602   496A      0.190853   497A      0.192316  
     498A      0.193345   499A      0.193430   500A      0.194461  
     501A      0.195499   502A      0.195934   503A      0.196454  
     504A      0.196747   505A      0.198252   506A      0.198786  
     507A      0.200862   508A      0.200899   509A      0.204624  
     510A      0.205365   511A      0.205817   512A      0.208327  
     513A      0.209725   514A      0.209800   515A      0.211675  
     516A      0.211785   517A      0.212984   518A      0.213577  
     519A      0.214087   520A      0.217057   521A      0.217522  
     522A      0.218012   523A      0.219055   524A      0.219986  
     525A      0.220347   526A      0.221355   527A      0.221479  
     528A      0.223196   529A      0.223992   530A      0.224798  
     531A      0.225349   532A      0.230774   533A      0.230937  
     534A      0.232046   535A      0.232256   536A      0.232873  
     537A      0.232992   538A      0.234432   539A      0.236115  
     540A      0.237269   541A      0.238812   542A      0.239454  
     543A      0.240471   544A      0.240558   545A      0.241550  
     546A      0.242998   547A      0.244980   548A      0.245088  
     549A      0.246786   550A      0.247653   551A      0.248322  
     552A      0.248720   553A      0.251016   554A      0.252514  
     555A      0.253928   556A      0.254365   557A      0.254946  
     558A      0.255735   559A      0.255969   560A      0.259722  
     561A      0.259983   562A      0.261199   563A      0.261219  
     564A      0.262562   565A      0.266970   566A      0.267232  
     567A      0.267949   568A      0.268332   569A      0.269193  
     570A      0.269908   571A      0.270434   572A      0.270644  
     573A      0.271339   574A      0.272625   575A      0.274061  
     576A      0.274171   577A      0.274338   578A      0.274957  
     579A      0.275192   580A      0.276445   581A      0.278666  
     582A      0.279100   583A      0.280440   584A      0.280614  
     585A      0.281232   586A      0.282619   587A      0.284117  
     588A      0.284584   589A      0.285057   590A      0.286667  
     591A      0.288171   592A      0.288497   593A      0.288705  
     594A      0.289439   595A      0.291808   596A      0.291982  
     597A      0.294331   598A      0.294403   599A      0.294702  
     600A      0.297036   601A      0.297211   602A      0.299023  
     603A      0.299568   604A      0.299925   605A      0.301654  
     606A      0.302399   607A      0.302539   608A      0.302982  
     609A      0.304334   610A      0.304865   611A      0.306728  
     612A      0.307612   613A      0.308486   614A      0.309851  
     615A      0.314781   616A      0.315581   617A      0.316415  
     618A      0.317341   619A      0.317543   620A      0.319945  
     621A      0.320803   622A      0.321586   623A      0.321837  
     624A      0.322719   625A      0.323466   626A      0.326306  
     627A      0.328170   628A      0.328671   629A      0.330560  
     630A      0.332356   631A      0.332601   632A      0.332772  
     633A      0.333356   634A      0.335429   635A      0.335503  
     636A      0.335935   637A      0.336790   638A      0.337873  
     639A      0.338774   640A      0.339930   641A      0.340972  
     642A      0.344866   643A      0.344998   644A      0.345453  
     645A      0.348138   646A      0.348199   647A      0.348490  
     648A      0.348871   649A      0.349090   650A      0.349214  
     651A      0.350744   652A      0.350970   653A      0.351861  
     654A      0.352535   655A      0.353234   656A      0.353768  
     657A      0.355224   658A      0.355802   659A      0.355893  
     660A      0.356782   661A      0.357001   662A      0.358268  
     663A      0.358879   664A      0.359869   665A      0.360742  
     666A      0.361858   667A      0.361966   668A      0.362966  
     669A      0.365024   670A      0.365123   671A      0.365582  
     672A      0.367614   673A      0.367711   674A      0.368356  
     675A      0.368751   676A      0.369733   677A      0.370718  
     678A      0.370961   679A      0.374322   680A      0.375618  
     681A      0.376452   682A      0.378691   683A      0.379823  
     684A      0.381595   685A      0.381745   686A      0.382054  
     687A      0.382867   688A      0.383878   689A      0.384143  
     690A      0.385006   691A      0.385126   692A      0.385251  
     693A      0.387217   694A      0.387882   695A      0.388781  
     696A      0.389155   697A      0.391875   698A      0.391889  
     699A      0.392871   700A      0.395401   701A      0.397320  
     702A      0.402474   703A      0.402723   704A      0.403765  
     705A      0.404051   706A      0.404672   707A      0.405021  
     708A      0.405835   709A      0.406414   710A      0.406803  
     711A      0.407920   712A      0.408040   713A      0.409830  
     714A      0.410704   715A      0.412159   716A      0.413444  
     717A      0.413687   718A      0.414981   719A      0.415182  
     720A      0.417479   721A      0.418123   722A      0.419628  
     723A      0.419770   724A      0.420102   725A      0.421260  
     726A      0.422502   727A      0.422623   728A      0.426960  
     729A      0.427160   730A      0.427466   731A      0.427682  
     732A      0.428707   733A      0.429682   734A      0.430500  
     735A      0.431359   736A      0.432154   737A      0.432269  
     738A      0.435441   739A      0.437233   740A      0.437462  
     741A      0.438738   742A      0.439070   743A      0.442431  
     744A      0.442635   745A      0.443269   746A      0.443788  
     747A      0.445894   748A      0.446340   749A      0.446967  
     750A      0.448714   751A      0.448879   752A      0.452326  
     753A      0.454065   754A      0.454594   755A      0.456035  
     756A      0.456106   757A      0.456652   758A      0.457184  
     759A      0.458776   760A      0.459444   761A      0.459510  
     762A      0.466110   763A      0.467228   764A      0.467336  
     765A      0.467892   766A      0.469565   767A      0.469637  
     768A      0.470011   769A      0.470462   770A      0.471618  
     771A      0.473897   772A      0.475316   773A      0.476460  
     774A      0.477644   775A      0.482261   776A      0.485374  
     777A      0.485574   778A      0.485622   779A      0.489025  
     780A      0.490174   781A      0.491480   782A      0.491919  
     783A      0.492646   784A      0.496108   785A      0.496924  
     786A      0.497695   787A      0.503971   788A      0.507279  
     789A      0.509921   790A      0.510736   791A      0.512321  
     792A      0.513636   793A      0.514037   794A      0.518487  
     795A      0.519234   796A      0.519591   797A      0.519842  
     798A      0.523743   799A      0.524034   800A      0.524309  
     801A      0.526378   802A      0.526688   803A      0.527496  
     804A      0.529187   805A      0.529631   806A      0.530324  
     807A      0.530366   808A      0.530767   809A      0.534768  
     810A      0.537601   811A      0.540421   812A      0.541327  
     813A      0.541428   814A      0.541814   815A      0.545715  
     816A      0.546017   817A      0.548505   818A      0.549111  
     819A      0.549858   820A      0.553231   821A      0.554268  
     822A      0.555786   823A      0.556524   824A      0.557040  
     825A      0.563743   826A      0.569231   827A      0.570061  
     828A      0.570982   829A      0.571438   830A      0.571801  
     831A      0.572454   832A      0.577952   833A      0.580860  
     834A      0.581970   835A      0.583093   836A      0.583729  
     837A      0.585373   838A      0.590949   839A      0.591425  
     840A      0.597906   841A      0.606548   842A      0.606778  
     843A      0.608173   844A      0.610482   845A      0.610672  
     846A      0.611253   847A      0.611466   848A      0.615801  
     849A      0.618675   850A      0.619282   851A      0.620605  
     852A      0.624308   853A      0.631488   854A      0.636143  
     855A      0.636355   856A      0.638143   857A      0.639536  
     858A      0.639652   859A      0.641512   860A      0.642596  
     861A      0.643201   862A      0.643341   863A      0.644985  
     864A      0.650584   865A      0.652001   866A      0.652376  
     867A      0.652803   868A      0.657834   869A      0.658638  
     870A      0.661744   871A      0.662515   872A      0.663049  
     873A      0.671152   874A      0.672665   875A      0.674232  
     876A      0.680087   877A      0.682187   878A      0.684450  
     879A      0.687436   880A      0.691086   881A      0.692469  
     882A      0.692972   883A      0.695361   884A      0.696362  
     885A      0.696944   886A      0.697233   887A      0.701813  
     888A      0.701996   889A      0.704843   890A      0.705483  
     891A      0.711353   892A      0.721939   893A      0.724038  
     894A      0.729971   895A      0.735451   896A      0.735545  
     897A      0.740188   898A      0.740340   899A      0.744305  
     900A      0.745962   901A      0.746061   902A      0.746133  
     903A      0.748271   904A      0.752225   905A      0.753925  
     906A      0.755894   907A      0.756593   908A      0.758038  
     909A      0.759389   910A      0.759658   911A      0.762678  
     912A      0.766410   913A      0.767159   914A      0.768110  
     915A      0.768709   916A      0.769909   917A      0.770191  
     918A      0.777300   919A      0.779785   920A      0.780177  
     921A      0.781721   922A      0.786271   923A      0.786810  
     924A      0.787086   925A      0.787360   926A      0.788397  
     927A      0.789220   928A      0.790848   929A      0.792459  
     930A      0.794513   931A      0.796056   932A      0.797898  
     933A      0.798520   934A      0.799491   935A      0.803656  
     936A      0.806790   937A      0.807859   938A      0.809903  
     939A      0.811426   940A      0.812391   941A      0.813423  
     942A      0.814501   943A      0.817899   944A      0.819720  
     945A      0.819994   946A      0.820673   947A      0.821078  
     948A      0.821214   949A      0.822894   950A      0.826530  
     951A      0.827558   952A      0.828370   953A      0.829185  
     954A      0.830523   955A      0.831503   956A      0.832327  
     957A      0.836499   958A      0.838187   959A      0.840145  
     960A      0.841251   961A      0.841545   962A      0.842108  
     963A      0.843557   964A      0.844427   965A      0.846845  
     966A      0.850102   967A      0.851673   968A      0.852204  
     969A      0.854545   970A      0.859022   971A      0.859093  
     972A      0.864483   973A      0.866874   974A      0.867124  
     975A      0.868871   976A      0.869574   977A      0.872380  
     978A      0.873645   979A      0.873807   980A      0.873935  
     981A      0.874251   982A      0.874569   983A      0.877987  
     984A      0.879302   985A      0.880262   986A      0.882668  
     987A      0.884806   988A      0.885449   989A      0.885959  
     990A      0.890093   991A      0.890182   992A      0.890625  
     993A      0.894465   994A      0.896245   995A      0.898596  
     996A      0.900678   997A      0.901191   998A      0.902233  
     999A      0.902460  1000A      0.904443  1001A      0.904573  
    1002A      0.905262  1003A      0.905883  1004A      0.908590  
    1005A      0.908874  1006A      0.908943  1007A      0.909562  
    1008A      0.913089  1009A      0.917427  1010A      0.917912  
    1011A      0.919972  1012A      0.920333  1013A      0.922789  
    1014A      0.925494  1015A      0.933237  1016A      0.934413  
    1017A      0.934685  1018A      0.938347  1019A      0.945082  
    1020A      0.945434  1021A      0.945796  1022A      0.945924  
    1023A      0.951333  1024A      0.951970  1025A      0.954039  
    1026A      0.954318  1027A      0.956278  1028A      0.956555  
    1029A      0.957504  1030A      0.958838  1031A      0.961028  
    1032A      0.963510  1033A      0.965262  1034A      0.967508  
    1035A      0.967854  1036A      0.971026  1037A      0.971194  
    1038A      0.972460  1039A      0.972555  1040A      0.974749  
    1041A      0.977099  1042A      0.981573  1043A      0.981846  
    1044A      0.982459  1045A      0.985029  1046A      0.986469  
    1047A      0.987476  1048A      0.988661  1049A      0.990890  
    1050A      0.996219  1051A      0.996516  1052A      0.997937  
    1053A      0.998512  1054A      0.998749  1055A      0.999075  
    1056A      0.999294  1057A      0.999523  1058A      1.003342  
    1059A      1.003972  1060A      1.004257  1061A      1.005036  
    1062A      1.005213  1063A      1.011796  1064A      1.012382  
    1065A      1.012728  1066A      1.014988  1067A      1.016704  
    1068A      1.017631  1069A      1.018021  1070A      1.018439  
    1071A      1.018842  1072A      1.019817  1073A      1.020412  
    1074A      1.020811  1075A      1.021195  1076A      1.021629  
    1077A      1.022895  1078A      1.023311  1079A      1.023766  
    1080A      1.024071  1081A      1.024209  1082A      1.026056  
    1083A      1.026902  1084A      1.027211  1085A      1.027713  
    1086A      1.028488  1087A      1.028819  1088A      1.029120  
    1089A      1.030382  1090A      1.031079  1091A      1.031501  
    1092A      1.031718  1093A      1.032103  1094A      1.032229  
    1095A      1.032757  1096A      1.033873  1097A      1.034548  
    1098A      1.035268  1099A      1.037154  1100A      1.037878  
    1101A      1.038586  1102A      1.040301  1103A      1.040825  
    1104A      1.040996  1105A      1.044068  1106A      1.048042  
    1107A      1.048732  1108A      1.048983  1109A      1.050383  
    1110A      1.051768  1111A      1.052048  1112A      1.052848  
    1113A      1.054159  1114A      1.054847  1115A      1.061160  
    1116A      1.063114  1117A      1.063633  1118A      1.064017  
    1119A      1.070052  1120A      1.071560  1121A      1.072017  
    1122A      1.073065  1123A      1.076002  1124A      1.079457  
    1125A      1.079564  1126A      1.081600  1127A      1.082520  
    1128A      1.084708  1129A      1.085305  1130A      1.085724  
    1131A      1.088817  1132A      1.088953  1133A      1.090155  
    1134A      1.093516  1135A      1.095136  1136A      1.096754  
    1137A      1.097504  1138A      1.099026  1139A      1.101127  
    1140A      1.102308  1141A      1.102888  1142A      1.104636  
    1143A      1.108532  1144A      1.108571  1145A      1.109521  
    1146A      1.110990  1147A      1.113869  1148A      1.114422  
    1149A      1.115705  1150A      1.119158  1151A      1.120771  
    1152A      1.121666  1153A      1.127134  1154A      1.127226  
    1155A      1.132254  1156A      1.135581  1157A      1.136430  
    1158A      1.136857  1159A      1.137425  1160A      1.139224  
    1161A      1.143170  1162A      1.144291  1163A      1.144469  
    1164A      1.150435  1165A      1.153568  1166A      1.153687  
    1167A      1.153878  1168A      1.155966  1169A      1.156509  
    1170A      1.157019  1171A      1.160377  1172A      1.162564  
    1173A      1.164521  1174A      1.166719  1175A      1.167499  
    1176A      1.170073  1177A      1.170430  1178A      1.173947  
    1179A      1.174635  1180A      1.175462  1181A      1.176203  
    1182A      1.179194  1183A      1.185209  1184A      1.185246  
    1185A      1.199002  1186A      1.199154  1187A      1.199918  
    1188A      1.203747  1189A      1.204614  1190A      1.206782  
    1191A      1.211712  1192A      1.213579  1193A      1.213801  
    1194A      1.215864  1195A      1.219948  1196A      1.221348  
    1197A      1.222056  1198A      1.222781  1199A      1.228905  
    1200A      1.236796  1201A      1.236953  1202A      1.241051  
    1203A      1.241979  1204A      1.242300  1205A      1.245971  
    1206A      1.246441  1207A      1.246660  1208A      1.248344  
    1209A      1.253796  1210A      1.254632  1211A      1.257415  
    1212A      1.257424  1213A      1.259935  1214A      1.261049  
    1215A      1.262486  1216A      1.263763  1217A      1.265770  
    1218A      1.271473  1219A      1.271644  1220A      1.271794  
    1221A      1.272123  1222A      1.272963  1223A      1.274568  
    1224A      1.278162  1225A      1.278379  1226A      1.282477  
    1227A      1.282616  1228A      1.283797  1229A      1.285414  
    1230A      1.287154  1231A      1.290231  1232A      1.291607  
    1233A      1.291812  1234A      1.293785  1235A      1.296536  
    1236A      1.298458  1237A      1.299994  1238A      1.307320  
    1239A      1.307462  1240A      1.308716  1241A      1.309745  
    1242A      1.312975  1243A      1.314935  1244A      1.315036  
    1245A      1.318530  1246A      1.319947  1247A      1.322291  
    1248A      1.324235  1249A      1.325248  1250A      1.325475  
    1251A      1.332007  1252A      1.338041  1253A      1.339485  
    1254A      1.341724  1255A      1.345339  1256A      1.346253  
    1257A      1.346796  1258A      1.346960  1259A      1.352228  
    1260A      1.356093  1261A      1.356641  1262A      1.358728  
    1263A      1.359276  1264A      1.359389  1265A      1.360374  
    1266A      1.361404  1267A      1.363278  1268A      1.364834  
    1269A      1.365996  1270A      1.372071  1271A      1.372559  
    1272A      1.375143  1273A      1.375570  1274A      1.377189  
    1275A      1.378109  1276A      1.378237  1277A      1.378716  
    1278A      1.381021  1279A      1.381785  1280A      1.386472  
    1281A      1.387786  1282A      1.388147  1283A      1.390218  
    1284A      1.390911  1285A      1.393742  1286A      1.398173  
    1287A      1.398693  1288A      1.399951  1289A      1.400363  
    1290A      1.401391  1291A      1.403216  1292A      1.406065  
    1293A      1.413605  1294A      1.414709  1295A      1.419710  
    1296A      1.420052  1297A      1.421207  1298A      1.422345  
    1299A      1.422844  1300A      1.429412  1301A      1.434527  
    1302A      1.435172  1303A      1.435593  1304A      1.436640  
    1305A      1.442279  1306A      1.447106  1307A      1.447310  
    1308A      1.450267  1309A      1.455174  1310A      1.456748  
    1311A      1.456799  1312A      1.467743  1313A      1.468176  
    1314A      1.475965  1315A      1.488872  1316A      1.489882  
    1317A      1.491377  1318A      1.491849  1319A      1.494469  
    1320A      1.504155  1321A      1.504220  1322A      1.514276  
    1323A      1.529049  1324A      1.534296  1325A      1.544034  
    1326A      1.544506  1327A      1.549032  1328A      1.552468  
    1329A      1.554397  1330A      1.555443  1331A      1.556188  
    1332A      1.557456  1333A      1.558399  1334A      1.561438  
    1335A      1.561550  1336A      1.562173  1337A      1.565173  
    1338A      1.565531  1339A      1.566023  1340A      1.566395  
    1341A      1.567259  1342A      1.570119  1343A      1.571067  
    1344A      1.571541  1345A      1.573769  1346A      1.574422  
    1347A      1.575878  1348A      1.576983  1349A      1.577692  
    1350A      1.581082  1351A      1.581624  1352A      1.585740  
    1353A      1.586350  1354A      1.586508  1355A      1.587700  
    1356A      1.588325  1357A      1.589166  1358A      1.589534  
    1359A      1.590513  1360A      1.591570  1361A      1.592219  
    1362A      1.594103  1363A      1.596206  1364A      1.602763  
    1365A      1.603104  1366A      1.603173  1367A      1.607329  
    1368A      1.607491  1369A      1.607959  1370A      1.614900  
    1371A      1.615449  1372A      1.616716  1373A      1.618686  
    1374A      1.618705  1375A      1.619207  1376A      1.619973  
    1377A      1.620036  1378A      1.621805  1379A      1.627714  
    1380A      1.628033  1381A      1.628752  1382A      1.629370  
    1383A      1.630396  1384A      1.638860  1385A      1.640039  
    1386A      1.643758  1387A      1.646620  1388A      1.646889  
    1389A      1.647536  1390A      1.648450  1391A      1.650426  
    1392A      1.660371  1393A      1.660588  1394A      1.661027  
    1395A      1.665613  1396A      1.667106  1397A      1.667275  
    1398A      1.670149  1399A      1.671804  1400A      1.672577  
    1401A      1.673046  1402A      1.673152  1403A      1.675412  
    1404A      1.676376  1405A      1.680738  1406A      1.688137  
    1407A      1.689184  1408A      1.691948  1409A      1.696905  
    1410A      1.698891  1411A      1.699022  1412A      1.701066  
    1413A      1.701819  1414A      1.703856  1415A      1.714589  
    1416A      1.716383  1417A      1.719428  1418A      1.731055  
    1419A      1.737923  1420A      1.738649  1421A      1.739228  
    1422A      1.743651  1423A      1.753079  1424A      1.753272  
    1425A      1.757559  1426A      1.759947  1427A      1.760184  
    1428A      1.767372  1429A      1.768351  1430A      1.773078  
    1431A      1.774781  1432A      1.777786  1433A      1.778715  
    1434A      1.779171  1435A      1.781121  1436A      1.782159  
    1437A      1.783847  1438A      1.784274  1439A      1.787514  
    1440A      1.787836  1441A      1.787991  1442A      1.788512  
    1443A      1.793406  1444A      1.794777  1445A      1.796280  
    1446A      1.807766  1447A      1.807884  1448A      1.811257  
    1449A      1.811595  1450A      1.813945  1451A      1.814093  
    1452A      1.816036  1453A      1.816216  1454A      1.818872  
    1455A      1.820801  1456A      1.821906  1457A      1.822178  
    1458A      1.824231  1459A      1.824506  1460A      1.826781  
    1461A      1.828573  1462A      1.832865  1463A      1.833644  
    1464A      1.834237  1465A      1.834994  1466A      1.835353  
    1467A      1.835705  1468A      1.836477  1469A      1.837227  
    1470A      1.840274  1471A      1.840806  1472A      1.853956  
    1473A      1.854406  1474A      1.855645  1475A      1.856692  
    1476A      1.856999  1477A      1.862041  1478A      1.865953  
    1479A      1.866627  1480A      1.867614  1481A      1.868189  
    1482A      1.871494  1483A      1.872875  1484A      1.873196  
    1485A      1.875452  1486A      1.875813  1487A      1.876653  
    1488A      1.879090  1489A      1.882404  1490A      1.887949  
    1491A      1.888683  1492A      1.889723  1493A      1.890398  
    1494A      1.890449  1495A      1.890921  1496A      1.893141  
    1497A      1.894565  1498A      1.895107  1499A      1.896973  
    1500A      1.902284  1501A      1.904191  1502A      1.905615  
    1503A      1.905824  1504A      1.908510  1505A      1.909856  
    1506A      1.910182  1507A      1.911715  1508A      1.911928  
    1509A      1.912060  1510A      1.917927  1511A      1.919207  
    1512A      1.920824  1513A      1.922071  1514A      1.923170  
    1515A      1.924160  1516A      1.931267  1517A      1.932730  
    1518A      1.935707  1519A      1.940127  1520A      1.942669  
    1521A      1.942884  1522A      1.944336  1523A      1.944803  
    1524A      1.946035  1525A      1.956680  1526A      1.957664  
    1527A      1.957981  1528A      1.961274  1529A      1.962458  
    1530A      1.963544  1531A      1.966912  1532A      1.967155  
    1533A      1.967773  1534A      1.968398  1535A      1.970181  
    1536A      1.970633  1537A      1.971025  1538A      1.972097  
    1539A      1.975122  1540A      1.977436  1541A      1.978728  
    1542A      1.981587  1543A      1.983559  1544A      1.984298  
    1545A      1.986246  1546A      1.990301  1547A      1.992662  
    1548A      1.993144  1549A      1.997925  1550A      2.000538  
    1551A      2.003100  1552A      2.003831  1553A      2.006822  
    1554A      2.007002  1555A      2.009388  1556A      2.009961  
    1557A      2.010842  1558A      2.011010  1559A      2.014981  
    1560A      2.017343  1561A      2.019508  1562A      2.019648  
    1563A      2.021513  1564A      2.025914  1565A      2.029005  
    1566A      2.030110  1567A      2.031314  1568A      2.031607  
    1569A      2.032828  1570A      2.033358  1571A      2.033687  
    1572A      2.034282  1573A      2.037358  1574A      2.039024  
    1575A      2.039688  1576A      2.040528  1577A      2.041880  
    1578A      2.042659  1579A      2.042989  1580A      2.044337  
    1581A      2.045116  1582A      2.047040  1583A      2.047627  
    1584A      2.048261  1585A      2.048600  1586A      2.051100  
    1587A      2.052290  1588A      2.052597  1589A      2.053539  
    1590A      2.057384  1591A      2.060438  1592A      2.062141  
    1593A      2.062457  1594A      2.062992  1595A      2.063939  
    1596A      2.064963  1597A      2.067769  1598A      2.068854  
    1599A      2.070614  1600A      2.075877  1601A      2.076458  
    1602A      2.077268  1603A      2.077726  1604A      2.078149  
    1605A      2.078441  1606A      2.079116  1607A      2.079445  
    1608A      2.081370  1609A      2.085251  1610A      2.086082  
    1611A      2.086954  1612A      2.087264  1613A      2.093144  
    1614A      2.093252  1615A      2.095016  1616A      2.096018  
    1617A      2.096313  1618A      2.101142  1619A      2.105230  
    1620A      2.105668  1621A      2.107444  1622A      2.107693  
    1623A      2.108910  1624A      2.110220  1625A      2.110571  
    1626A      2.111066  1627A      2.114672  1628A      2.114979  
    1629A      2.122350  1630A      2.122555  1631A      2.130839  
    1632A      2.132354  1633A      2.132394  1634A      2.133605  
    1635A      2.139074  1636A      2.139409  1637A      2.140963  
    1638A      2.141232  1639A      2.142790  1640A      2.144688  
    1641A      2.146448  1642A      2.147006  1643A      2.148028  
    1644A      2.149692  1645A      2.150300  1646A      2.151974  
    1647A      2.152351  1648A      2.153730  1649A      2.154279  
    1650A      2.155260  1651A      2.157363  1652A      2.160264  
    1653A      2.164824  1654A      2.165062  1655A      2.168806  
    1656A      2.170693  1657A      2.174342  1658A      2.174637  
    1659A      2.174958  1660A      2.175101  1661A      2.176339  
    1662A      2.179993  1663A      2.183775  1664A      2.185107  
    1665A      2.185744  1666A      2.187942  1667A      2.189145  
    1668A      2.189359  1669A      2.192987  1670A      2.197217  
    1671A      2.198338  1672A      2.199982  1673A      2.200675  
    1674A      2.209393  1675A      2.213122  1676A      2.214568  
    1677A      2.215535  1678A      2.217077  1679A      2.218544  
    1680A      2.222611  1681A      2.225602  1682A      2.233680  
    1683A      2.234382  1684A      2.235619  1685A      2.242066  
    1686A      2.243211  1687A      2.247041  1688A      2.248437  
    1689A      2.255350  1690A      2.255779  1691A      2.257778  
    1692A      2.260330  1693A      2.263932  1694A      2.274630  
    1695A      2.276355  1696A      2.276381  1697A      2.278170  
    1698A      2.280264  1699A      2.282082  1700A      2.282436  
    1701A      2.283362  1702A      2.284589  1703A      2.285932  
    1704A      2.289873  1705A      2.292535  1706A      2.293179  
    1707A      2.293525  1708A      2.295734  1709A      2.296408  
    1710A      2.297088  1711A      2.299159  1712A      2.299625  
    1713A      2.304299  1714A      2.317137  1715A      2.321561  
    1716A      2.322237  1717A      2.333417  1718A      2.335286  
    1719A      2.339007  1720A      2.340447  1721A      2.341900  
    1722A      2.342866  1723A      2.343850  1724A      2.347175  
    1725A      2.369615  1726A      2.370649  1727A      2.374224  
    1728A      2.378809  1729A      2.382354  1730A      2.392369  
    1731A      2.394446  1732A      2.402479  1733A      2.403773  
    1734A      2.415598  1735A      2.415728  1736A      2.419114  
    1737A      2.419293  1738A      2.423453  1739A      2.423774  
    1740A      2.442940  1741A      2.443488  1742A      2.445115  
    1743A      2.452329  1744A      2.453528  1745A      2.458216  
    1746A      2.459135  1747A      2.463323  1748A      2.468285  
    1749A      2.469206  1750A      2.489842  1751A      2.490138  
    1752A      2.491537  1753A      2.493398  1754A      2.494185  
    1755A      2.495492  1756A      2.498953  1757A      2.499994  
    1758A      2.501412  1759A      2.502651  1760A      2.506147  
    1761A      2.506551  1762A      2.506772  1763A      2.515185  
    1764A      2.522421  1765A      2.524062  1766A      2.532705  
    1767A      2.536572  1768A      2.536666  1769A      2.537011  
    1770A      2.537882  1771A      2.541356  1772A      2.541565  
    1773A      2.544608  1774A      2.546651  1775A      2.553007  
    1776A      2.553093  1777A      2.564175  1778A      2.564467  
    1779A      2.564802  1780A      2.565284  1781A      2.568190  
    1782A      2.568861  1783A      2.580284  1784A      2.583829  
    1785A      2.591576  1786A      2.592611  1787A      2.594845  
    1788A      2.596358  1789A      2.598918  1790A      2.599862  
    1791A      2.600106  1792A      2.605036  1793A      2.607693  
    1794A      2.607984  1795A      2.611956  1796A      2.616001  
    1797A      2.616724  1798A      2.619876  1799A      2.622655  
    1800A      2.622901  1801A      2.623823  1802A      2.629099  
    1803A      2.629907  1804A      2.635636  1805A      2.636377  
    1806A      2.638021  1807A      2.642059  1808A      2.642176  
    1809A      2.642481  1810A      2.643362  1811A      2.643749  
    1812A      2.647051  1813A      2.648369  1814A      2.654663  
    1815A      2.668375  1816A      2.672555  1817A      2.681762  
    1818A      2.681976  1819A      2.682388  1820A      2.682864  
    1821A      2.683498  1822A      2.684076  1823A      2.686314  
    1824A      2.695184  1825A      2.703937  1826A      2.709752  
    1827A      2.710446  1828A      2.712955  1829A      2.721950  
    1830A      2.725465  1831A      2.729921  1832A      2.730698  
    1833A      2.743922  1834A      2.749005  1835A      2.750060  
    1836A      2.751302  1837A      2.752436  1838A      2.752610  
    1839A      2.754412  1840A      2.758668  1841A      2.760663  
    1842A      2.764844  1843A      2.765064  1844A      2.766522  
    1845A      2.767014  1846A      2.777776  1847A      2.778008  
    1848A      2.790844  1849A      2.790914  1850A      2.792062  
    1851A      2.792543  1852A      2.795879  1853A      2.799592  
    1854A      2.811160  1855A      2.815373  1856A      2.815831  
    1857A      2.821210  1858A      2.822387  1859A      2.825190  
    1860A      2.845144  1861A      2.846055  1862A      2.862257  
    1863A      2.870031  1864A      2.870193  1865A      2.879904  
    1866A      2.881969  1867A      2.886733  1868A      2.886887  
    1869A      2.914687  1870A      2.916792  1871A      2.917352  
    1872A      2.924300  1873A      2.928007  1874A      2.943458  
    1875A      2.944026  1876A      2.980037  1877A      2.980824  
    1878A      2.982755  1879A      2.987312  1880A      2.990682  
    1881A      2.997839  1882A      2.998671  1883A      3.000208  
    1884A      3.008126  1885A      3.008353  1886A      3.016718  
    1887A      3.023953  1888A      3.053372  1889A      3.060851  
    1890A      3.064998  1891A      3.065163  1892A      3.071572  
    1893A      3.073776  1894A      3.077616  1895A      3.078499  
    1896A      3.083633  1897A      3.085300  1898A      3.093862  
    1899A      3.095057  1900A      3.098928  1901A      3.099754  
    1902A      3.101381  1903A      3.102109  1904A      3.105883  
    1905A      3.114685  1906A      3.117635  1907A      3.125475  
    1908A      3.127063  1909A      3.127300  1910A      3.145247  
    1911A      3.145896  1912A      3.172557  1913A      3.204315  
    1914A      3.211165  1915A      3.211779  1916A      3.212256  
    1917A      3.213419  1918A      3.215650  1919A      3.219590  
    1920A      3.222779  1921A      3.226099  1922A      3.226653  
    1923A      3.243983  1924A      3.245361  1925A      3.246221  
    1926A      3.253534  1927A      3.311335  1928A      3.312417  
    1929A      3.319936  1930A      3.365674  1931A      3.379572  
    1932A      3.381506  1933A      3.384857  1934A      3.394423  
    1935A      3.398410  1936A      3.410014  1937A      3.414273  
    1938A      3.415094  1939A      3.420831  1940A      3.423814  
    1941A      3.430805  1942A      3.434351  1943A      3.443104  
    1944A      3.446137  1945A      3.459135  1946A      3.488400  
    1947A      3.524544  1948A      3.526189  1949A      3.532983  
    1950A      3.534939  1951A      3.541125  1952A      3.587653  
    1953A      3.588334  1954A      3.615109  1955A      3.617420  
    1956A      3.655280  1957A      3.696999  1958A      3.700427  
    1959A      3.701196  1960A      3.712641  1961A      3.728546  
    1962A      3.730026  1963A      3.793256  1964A      3.794183  
    1965A      3.822634  1966A      3.825611  1967A      3.855341  
    1968A      3.863276  1969A      3.887107  1970A      3.888801  
    1971A      3.899040  1972A      3.900156  1973A      3.908602  
    1974A      3.913589  1975A      3.920547  1976A      3.974514  
    1977A      3.977094  1978A      4.019890  1979A      4.176835  
    1980A      4.249241  1981A      4.341002  

    Final Occupation by Irrep:
              A 
    DOCC [   326 ]
    NA   [   326 ]
    NB   [   326 ]

  @DF-RHF Final Energy: -3953.64416617428651

   => Energetics <=

    Nuclear Repulsion Energy =          17559.4574323171291326
    One-Electron Energy =              -40332.5858744913275586
    Two-Electron Energy =               18819.4842759999119153
    Total Energy =                      -3953.6441661742865108

Computation Completed


Properties will be evaluated at   0.000000,   0.000000,   0.000000 [a0]

Properties computed using the SCF density matrix


 Multipole Moments:

 ------------------------------------------------------------------------------------
     Multipole            Electronic (a.u.)      Nuclear  (a.u.)        Total (a.u.)
 ------------------------------------------------------------------------------------

 L = 1.  Multiply by 2.5417464519 to convert [e a0] to [Debye]
 Dipole X            :         -0.0019810            0.0004804           -0.0015006
 Dipole Y            :         -0.0490685            0.0561130            0.0070445
 Dipole Z            :         34.9842213          -47.9140345          -12.9298133
 Magnitude           :                                                   12.9298153

 ------------------------------------------------------------------------------------

*** tstop() called on n2cn0313 at Sat Jan 27 02:16:36 2024
Module time:
	user time   =   26688.20 seconds =     444.80 minutes
	system time =    2062.44 seconds =      34.37 minutes
	total time  =       7359 seconds =     122.65 minutes
Total time:
	user time   =   26688.20 seconds =     444.80 minutes
	system time =    2062.44 seconds =      34.37 minutes
	total time  =       7359 seconds =     122.65 minutes

  //>>>>>>>>>>>>>>>>>>>>>>>>>>>>>>>>>>>//
  //            Monomer A HF           //
  //<<<<<<<<<<<<<<<<<<<<<<<<<<<<<<<<<<<//

   => Libint2 <=

    Primary   basis highest AM E, G, H:  5, 4, 3
    Auxiliary basis highest AM E, G, H:  6, 5, 4
    Onebody   basis highest AM E, G, H:  6, 5, 4
    Solid Harmonics ordering:            gaussian

*** tstart() called on n2cn0313
*** at Sat Jan 27 02:16:36 2024

   => Loading Basis Set <=

    Name: JUN-CC-PVDZ
    Role: ORBITAL
    Keyword: BASIS
    atoms 1-2, 4-5, 10, 17-34, 41-53, 56-70, 73-89, 92-104, 109-119, 122-130 entry C          line   164 file /opt/software/pc2/EB-SW/software/PSI4/1.9-foss-2022a/share/psi4/basis/jun-cc-pvdz.gbs 
    atoms 3, 6                                                               entry N          line   198 file /opt/software/pc2/EB-SW/software/PSI4/1.9-foss-2022a/share/psi4/basis/jun-cc-pvdz.gbs 
    atoms 7-9, 11-16, 35-40, 54-55, 71-72, 90-91, 105-108, 120-121, 131-136  entry H          line    36 file /opt/software/pc2/EB-SW/software/PSI4/1.9-foss-2022a/share/psi4/basis/jun-cc-pvdz.gbs 


         ---------------------------------------------------------
                                   SCF
               by Justin Turney, Rob Parrish, Andy Simmonett
                          and Daniel G. A. Smith
                              RHF Reference
                       16 Threads,  61035 MiB Core
         ---------------------------------------------------------

  ==> Geometry <==

    Molecular point group: c1
    Full point group: C1

    Geometry (in Angstrom), charge = 1, multiplicity = 1:

       Center              X                  Y                   Z               Mass       
    ------------   -----------------  -----------------  -----------------  -----------------
         C            0.680062820275    -0.008027535675    -8.790748117996    12.000000000000
         C           -0.680508179725    -0.005999535675    -8.790364117996    12.000000000000
         N           -1.085639179725    -0.005001535675    -7.472040117996    14.003074004430
[...]
    1573A      2.157321  1574A      2.157507  1575A      2.158512  
    1576A      2.159318  1577A      2.159768  1578A      2.159924  
    1579A      2.162401  1580A      2.162815  1581A      2.167053  
    1582A      2.171311  1583A      2.171490  1584A      2.179690  
    1585A      2.180845  1586A      2.181294  1587A      2.182268  
    1588A      2.187616  1589A      2.188451  1590A      2.188647  
    1591A      2.190783  1592A      2.191432  1593A      2.192596  
    1594A      2.194775  1595A      2.195342  1596A      2.197014  
    1597A      2.197848  1598A      2.200253  1599A      2.200561  
    1600A      2.200749  1601A      2.201253  1602A      2.203225  
    1603A      2.204139  1604A      2.205499  1605A      2.209152  
    1606A      2.213632  1607A      2.213894  1608A      2.214710  
    1609A      2.220135  1610A      2.222178  1611A      2.222689  
    1612A      2.224127  1613A      2.224690  1614A      2.224767  
    1615A      2.228761  1616A      2.232010  1617A      2.232283  
    1618A      2.233175  1619A      2.236854  1620A      2.238731  
    1621A      2.238856  1622A      2.239483  1623A      2.241318  
    1624A      2.247376  1625A      2.247748  1626A      2.248223  
    1627A      2.248709  1628A      2.260254  1629A      2.261477  
    1630A      2.263315  1631A      2.264833  1632A      2.266475  
    1633A      2.268714  1634A      2.269528  1635A      2.275187  
    1636A      2.278294  1637A      2.282787  1638A      2.284228  
    1639A      2.290174  1640A      2.290970  1641A      2.296243  
    1642A      2.296780  1643A      2.298971  1644A      2.303715  
    1645A      2.304115  1646A      2.309024  1647A      2.314295  
    1648A      2.318127  1649A      2.324476  1650A      2.324855  
    1651A      2.325170  1652A      2.327055  1653A      2.329364  
    1654A      2.330540  1655A      2.331060  1656A      2.332936  
    1657A      2.334194  1658A      2.335122  1659A      2.339586  
    1660A      2.341343  1661A      2.341668  1662A      2.342131  
    1663A      2.342515  1664A      2.343050  1665A      2.344834  
    1666A      2.345783  1667A      2.346312  1668A      2.349042  
    1669A      2.349393  1670A      2.367911  1671A      2.372232  
    1672A      2.372888  1673A      2.383575  1674A      2.387145  
    1675A      2.387968  1676A      2.390268  1677A      2.391626  
    1678A      2.392779  1679A      2.396893  1680A      2.418284  
    1681A      2.419465  1682A      2.423462  1683A      2.427490  
    1684A      2.431845  1685A      2.441257  1686A      2.443210  
    1687A      2.444462  1688A      2.448908  1689A      2.452069  
    1690A      2.453050  1691A      2.457365  1692A      2.464258  
    1693A      2.464299  1694A      2.467695  1695A      2.467947  
    1696A      2.469882  1697A      2.471891  1698A      2.472150  
    1699A      2.477040  1700A      2.490925  1701A      2.491317  
    1702A      2.494590  1703A      2.501617  1704A      2.506040  
    1705A      2.507003  1706A      2.509011  1707A      2.511445  
    1708A      2.516166  1709A      2.539045  1710A      2.539133  
    1711A      2.540100  1712A      2.541861  1713A      2.542680  
    1714A      2.544928  1715A      2.547598  1716A      2.548470  
    1717A      2.549102  1718A      2.551175  1719A      2.556502  
    1720A      2.556655  1721A      2.564185  1722A      2.571073  
    1723A      2.571573  1724A      2.578000  1725A      2.579943  
    1726A      2.583641  1727A      2.584114  1728A      2.585054  
    1729A      2.586218  1730A      2.588472  1731A      2.588650  
    1732A      2.593187  1733A      2.593485  1734A      2.601266  
    1735A      2.601411  1736A      2.612676  1737A      2.612854  
    1738A      2.613148  1739A      2.613691  1740A      2.616645  
    1741A      2.617322  1742A      2.632589  1743A      2.634427  
    1744A      2.640482  1745A      2.641429  1746A      2.643572  
    1747A      2.645378  1748A      2.646379  1749A      2.647336  
    1750A      2.648585  1751A      2.649099  1752A      2.651422  
    1753A      2.652761  1754A      2.655672  1755A      2.656076  
    1756A      2.659655  1757A      2.665971  1758A      2.666082  
    1759A      2.667528  1760A      2.670316  1761A      2.670532  
    1762A      2.673534  1763A      2.674847  1764A      2.677124  
    1765A      2.677523  1766A      2.684291  1767A      2.685587  
    1768A      2.686997  1769A      2.691115  1770A      2.691199  
    1771A      2.691534  1772A      2.692330  1773A      2.696015  
    1774A      2.697256  1775A      2.704013  1776A      2.720609  
    1777A      2.730652  1778A      2.730705  1779A      2.730953  
    1780A      2.731255  1781A      2.731849  1782A      2.738087  
    1783A      2.748545  1784A      2.752587  1785A      2.760075  
    1786A      2.760715  1787A      2.767643  1788A      2.772436  
    1789A      2.775749  1790A      2.779438  1791A      2.780146  
    1792A      2.799025  1793A      2.799836  1794A      2.801402  
    1795A      2.802151  1796A      2.802190  1797A      2.805959  
    1798A      2.809008  1799A      2.811083  1800A      2.814914  
    1801A      2.815337  1802A      2.815847  1803A      2.815995  
    1804A      2.827935  1805A      2.828153  1806A      2.836326  
    1807A      2.840102  1808A      2.840735  1809A      2.841377  
    1810A      2.841738  1811A      2.845503  1812A      2.860286  
    1813A      2.864848  1814A      2.865350  1815A      2.869826  
    1816A      2.871144  1817A      2.874265  1818A      2.876239  
    1819A      2.890553  1820A      2.895876  1821A      2.896762  
    1822A      2.909775  1823A      2.913080  1824A      2.917643  
    1825A      2.917713  1826A      2.924045  1827A      2.927396  
    1828A      2.929580  1829A      2.934787  1830A      2.934824  
    1831A      2.947990  1832A      2.963078  1833A      2.964668  
    1834A      2.965209  1835A      2.972521  1836A      2.976128  
    1837A      2.991690  1838A      2.992437  1839A      2.997006  
    1840A      3.009282  1841A      3.029102  1842A      3.029895  
    1843A      3.035290  1844A      3.038519  1845A      3.038977  
    1846A      3.046740  1847A      3.047417  1848A      3.047968  
    1849A      3.057456  1850A      3.057583  1851A      3.063310  
    1852A      3.072833  1853A      3.108447  1854A      3.112755  
    1855A      3.112999  1856A      3.122407  1857A      3.126814  
    1858A      3.127465  1859A      3.132300  1860A      3.134092  
    1861A      3.141511  1862A      3.141924  1863A      3.143049  
    1864A      3.148060  1865A      3.148657  1866A      3.149377  
    1867A      3.150010  1868A      3.153524  1869A      3.162129  
    1870A      3.167682  1871A      3.173136  1872A      3.174727  
    1873A      3.175059  1874A      3.193023  1875A      3.193682  
    1876A      3.220003  1877A      3.252792  1878A      3.259395  
    1879A      3.260582  1880A      3.261340  1881A      3.261958  
    1882A      3.264263  1883A      3.268075  1884A      3.271133  
    1885A      3.274531  1886A      3.275257  1887A      3.285980  
    1888A      3.292712  1889A      3.294492  1890A      3.295461  
    1891A      3.302103  1892A      3.306735  1893A      3.318962  
    1894A      3.361055  1895A      3.362086  1896A      3.369778  
    1897A      3.400306  1898A      3.415604  1899A      3.429725  
    1900A      3.431959  1901A      3.436908  1902A      3.445279  
    1903A      3.449369  1904A      3.460776  1905A      3.464435  
    1906A      3.465173  1907A      3.470777  1908A      3.473764  
    1909A      3.480771  1910A      3.485093  1911A      3.493358  
    1912A      3.509066  1913A      3.523438  1914A      3.538856  
    1915A      3.568362  1916A      3.574285  1917A      3.575950  
    1918A      3.582720  1919A      3.590004  1920A      3.637537  
    1921A      3.638223  1922A      3.644426  1923A      3.664513  
    1924A      3.666724  1925A      3.704962  1926A      3.747367  
    1927A      3.749140  1928A      3.750415  1929A      3.757138  
    1930A      3.763161  1931A      3.778595  1932A      3.779103  
    1933A      3.815397  1934A      3.841871  1935A      3.843186  
    1936A      3.867590  1937A      3.871417  1938A      3.874563  
    1939A      3.904516  1940A      3.912858  1941A      3.937685  
    1942A      3.939526  1943A      3.948159  1944A      3.949115  
    1945A      3.958334  1946A      3.959168  1947A      3.964548  
    1948A      3.970800  1949A      4.024602  1950A      4.027402  
    1951A      4.070760  1952A      4.204814  1953A      4.208280  
    1954A      4.228640  1955A      4.301285  1956A      4.343892  
    1957A      4.359730  1958A      4.392975  1959A      4.484870  
    1960A      4.735106  1961A      4.773436  1962A      4.829552  
    1963A      4.845675  1964A      4.935134  1965A      5.049808  
    1966A      5.056075  1967A      5.065385  1968A      5.109992  
    1969A      5.129464  1970A      5.391046  1971A      5.421343  
    1972A      5.731558  1973A      5.754106  1974A      6.066764  
    1975A     18.198068  1976A     18.453300  1977A     18.470501  
    1978A     18.558345  1979A     18.830546  1980A     25.338411  
    1981A     25.374351  

    Final Occupation by Irrep:
              A 
    DOCC [   300 ]
    NA   [   300 ]
    NB   [   300 ]

  @DF-RHF Final Energy: -3650.33757233139340

   => Energetics <=

    Nuclear Repulsion Energy =          15611.4211649754306563
    One-Electron Energy =              -36072.0742187818468665
    Two-Electron Energy =               16810.3154814750232617
    Total Energy =                      -3650.3375723313947674

Computation Completed


Properties will be evaluated at   0.000000,   0.000000,   0.000000 [a0]

Properties computed using the SCF density matrix


 Multipole Moments:

 ------------------------------------------------------------------------------------
     Multipole            Electronic (a.u.)      Nuclear  (a.u.)        Total (a.u.)
 ------------------------------------------------------------------------------------

 L = 1.  Multiply by 2.5417464519 to convert [e a0] to [Debye]
 Dipole X            :         -0.0009250            0.0002112           -0.0007138
 Dipole Y            :          0.0011259           -0.0013774           -0.0002515
 Dipole Z            :       -708.8539816          708.8557794            0.0017978
 Magnitude           :                                                    0.0019506

 ------------------------------------------------------------------------------------

*** tstop() called on n2cn0313 at Sat Jan 27 04:15:00 2024
Module time:
	user time   =   19316.95 seconds =     321.95 minutes
	system time =    1478.78 seconds =      24.65 minutes
	total time  =       4792 seconds =      79.87 minutes
Total time:
	user time   =   52006.88 seconds =     866.78 minutes
	system time =    4076.39 seconds =      67.94 minutes
	total time  =      14463 seconds =     241.05 minutes
  Constructing Basis Sets for SAPT...

   => Loading Basis Set <=

    Name: (JUN-CC-PVDZ AUX)
    Role: RIFIT
    Keyword: DF_BASIS_SAPT
    atoms 1-2, 4-5, 10, 17-34, 41-53, 56-70, 73-89, 92-104, 109-119, 122-130 entry C          line   100 file /opt/software/pc2/EB-SW/software/PSI4/1.9-foss-2022a/share/psi4/basis/jun-cc-pvdz-ri.gbs 
    atoms 3, 6                                                               entry N          line   144 file /opt/software/pc2/EB-SW/software/PSI4/1.9-foss-2022a/share/psi4/basis/jun-cc-pvdz-ri.gbs 
    atoms 7-9, 11-16, 35-40, 54-55, 71-72, 90-91, 105-108, 120-121, 131-136  entry H          line    30 file /opt/software/pc2/EB-SW/software/PSI4/1.9-foss-2022a/share/psi4/basis/jun-cc-pvdz-ri.gbs 

   => Loading Basis Set <=

    Name: (JUN-CC-PVDZ AUX)
    Role: JKFIT
    Keyword: DF_BASIS_ELST
    atoms 1-2, 4-5, 10, 17-34, 41-53, 56-70, 73-89, 92-104, 109-119, 122-130 entry C          line   146 file /opt/software/pc2/EB-SW/software/PSI4/1.9-foss-2022a/share/psi4/basis/jun-cc-pvdz-jkfit.gbs 
    atoms 3, 6                                                               entry N          line   202 file /opt/software/pc2/EB-SW/software/PSI4/1.9-foss-2022a/share/psi4/basis/jun-cc-pvdz-jkfit.gbs 
    atoms 7-9, 11-16, 35-40, 54-55, 71-72, 90-91, 105-108, 120-121, 131-136  entry H          line    70 file /opt/software/pc2/EB-SW/software/PSI4/1.9-foss-2022a/share/psi4/basis/jun-cc-pvdz-jkfit.gbs 


  //>>>>>>>>>>>>>>>>>>>>>>>>>>>>>>>>>>>//
  //               SSAPT0              //
  //<<<<<<<<<<<<<<<<<<<<<<<<<<<<<<<<<<<//


*** tstart() called on n2cn0313
*** at Sat Jan 27 04:15:02 2024

        SAPT0  
    Ed Hohenstein
     6 June 2009

      Orbital Information
  --------------------------
    NSO        =      2019
    NMO        =      1981
    NRI        =      7157
    NRI (Elst) =      8896
    NOCC A     =        26
    NOCC B     =       300
    FOCC A     =         7
    FOCC B     =        96
    NVIR A     =      1955
    NVIR B     =      1681

    Elst10,r            =    -0.007159606691 [Eh]
    Exch10              =    -0.000000177355 [Eh]
    Exch10 (S^2)        =    -0.000000177355 [Eh]

    Iter     Energy [mEh]          dE [mEh]         Residual      Time [s]
       1      -0.01131313       0.011313128       1.009160444           521
       2      -0.01069369      -0.000619442       0.259691091          1136
       3      -0.01175382       0.001060138       0.069896577          1950
       4      -0.01181474       0.000060918       0.031802720          2439
       5      -0.01176585      -0.000048887       0.009308571          2991
       6      -0.01176701       0.000001155       0.003207278          3500
       7      -0.01177086       0.000003850       0.000875170          4302
       8      -0.01177110       0.000000236       0.000288718          4977
       9      -0.01177092      -0.000000172       0.000088738          5596
      10      -0.01177088      -0.000000047       0.000026921          6310
      11      -0.01177088       0.000000005       0.000007137          6947
      12      -0.01177089       0.000000005       0.000002030          7410
      13      -0.01177089      -0.000000000       0.000000769          7744

    CHF Iterations converged


    Iter     Energy [mEh]          dE [mEh]         Residual      Time [s]
       1      -3.34954589       3.349545894      31.789793239           295
       2      -2.16352747      -1.186018424       3.663203336           696
       3      -2.15579274      -0.007734732       1.261118068          1017
       4      -2.19551483       0.039722091       0.383251706          1391
       5      -2.20036902       0.004854188       0.131767986          1841
       6      -2.19990843      -0.000460584       0.086351462          2363
       7      -2.19878592      -0.001122512       0.039838766          2949
       8      -2.19890749       0.000121570       0.023192380          3534
       9      -2.19919021       0.000282715       0.013572987          4137
      10      -2.19910767      -0.000082532       0.010633519          4951
      11      -2.19906181      -0.000045861       0.004742093          5597
      12      -2.19906583       0.000004022       0.002486292          6197
      13      -2.19907827       0.000012439       0.001243894          6702
      14      -2.19908136       0.000003084       0.000793328          7254
      15      -2.19907817      -0.000003190       0.000506462          7956
      16      -2.19907599      -0.000002180       0.000176445          8586
      17      -2.19907725       0.000001263       0.000055747          9190
      18      -2.19907739       0.000000144       0.000019384          9797
      19      -2.19907732      -0.000000078       0.000010285         10567
      20      -2.19907727      -0.000000043       0.000004038         11459
      21      -2.19907728       0.000000009       0.000001866         12557
      22      -2.19907729       0.000000008       0.000000958         13695

    CHF Iterations converged

    Ind20,r (A<-B)      =    -0.000011770887 [Eh]
    Ind20,r (B<-A)      =    -0.002199077291 [Eh]
    Ind20,r             =    -0.002210848178 [Eh]
    Exch-Ind20,r (A<-B) =     0.000000011213 [Eh]
    Exch-Ind20,r (B<-A) =     0.000000080037 [Eh]
    Exch-Ind20,r        =     0.000000091251 [Eh]
    Disp20              =    -0.000864714793 [Eh]
    Disp20 (SS)         =    -0.000432357397 [Eh]
    Disp20 (OS)         =    -0.000432357397 [Eh]
    Exch-Disp20         =     0.000000036410 [Eh]
    Exch-Disp20 (SS)    =     0.000000026739 [Eh]
    Exch-Disp20 (OS)    =     0.000000009672 [Eh]

    SAPT Results 
  --------------------------------------------------------------------------------------------------------
    Electrostatics                 -7.15960669 [mEh]      -4.49272103 [kcal/mol]     -18.79754478 [kJ/mol]
      Elst10,r                     -7.15960669 [mEh]      -4.49272103 [kcal/mol]     -18.79754478 [kJ/mol]

    Exchange                       -0.00017736 [mEh]      -0.00011129 [kcal/mol]      -0.00046565 [kJ/mol]
      Exch10                       -0.00017736 [mEh]      -0.00011129 [kcal/mol]      -0.00046565 [kJ/mol]
      Exch10(S^2)                  -0.00017736 [mEh]      -0.00011129 [kcal/mol]      -0.00046565 [kJ/mol]

    Induction                      -2.23952061 [mEh]      -1.40532040 [kcal/mol]      -5.87986055 [kJ/mol]
      Ind20,r                      -2.21084818 [mEh]      -1.38732818 [kcal/mol]      -5.80458109 [kJ/mol]
      Exch-Ind20,r                  0.00009125 [mEh]       0.00005726 [kcal/mol]       0.00023958 [kJ/mol]
      delta HF,r (2)               -0.02876368 [mEh]      -0.01804948 [kcal/mol]      -0.07551904 [kJ/mol]

    Dispersion                     -0.86467838 [mEh]      -0.54259388 [kcal/mol]      -2.27021278 [kJ/mol]
      Disp20                       -0.86471479 [mEh]      -0.54261672 [kcal/mol]      -2.27030838 [kJ/mol]
      Exch-Disp20                   0.00003641 [mEh]       0.00002285 [kcal/mol]       0.00009560 [kJ/mol]
      Disp20 (SS)                  -0.43235740 [mEh]      -0.27130836 [kcal/mol]      -1.13515419 [kJ/mol]
      Disp20 (OS)                  -0.43235740 [mEh]      -0.27130836 [kcal/mol]      -1.13515419 [kJ/mol]
      Exch-Disp20 (SS)              0.00002674 [mEh]       0.00001678 [kcal/mol]       0.00007020 [kJ/mol]
      Exch-Disp20 (OS)              0.00000967 [mEh]       0.00000607 [kcal/mol]       0.00002539 [kJ/mol]

  Total HF                         -9.39930466 [mEh]      -5.89815272 [kcal/mol]     -24.67787098 [kJ/mol]
  Total SAPT0                     -10.26398304 [mEh]      -6.44074660 [kcal/mol]     -26.94808376 [kJ/mol]

  Special recipe for scaled SAPT0 (see Manual):
    Electrostatics sSAPT0          -7.15960669 [mEh]      -4.49272103 [kcal/mol]     -18.79754478 [kJ/mol]
    Exchange sSAPT0                -0.00017736 [mEh]      -0.00011129 [kcal/mol]      -0.00046565 [kJ/mol]
    Induction sSAPT0               -2.23952061 [mEh]      -1.40532040 [kcal/mol]      -5.87986055 [kJ/mol]
    Dispersion sSAPT0              -0.86467838 [mEh]      -0.54259388 [kcal/mol]      -2.27021278 [kJ/mol]
  Total sSAPT0                    -10.26398304 [mEh]      -6.44074660 [kcal/mol]     -26.94808376 [kJ/mol]
  --------------------------------------------------------------------------------------------------------

*** tstop() called on n2cn0313 at Sun Jan 28 22:17:57 2024
Module time:
	user time   =   74276.32 seconds =    1237.94 minutes
	system time =    4678.14 seconds =      77.97 minutes
	total time  =     151375 seconds =    2522.92 minutes
Total time:
	user time   =  126284.80 seconds =    2104.75 minutes
	system time =    8754.54 seconds =     145.91 minutes
	total time  =     165840 seconds =    2764.00 minutes

    Psi4 stopped on: Sunday, 28 January 2024 10:17PM
    Psi4 wall time for execution: 1 day, 22:04:03.20

*** Psi4 exiting successfully. Buy a developer a beer!
