
    -----------------------------------------------------------------------
          Psi4: An Open-Source Ab Initio Electronic Structure Package
                               Psi4 1.9 release

                         Git: Rev {} zzzzzzz 


    D. G. A. Smith, L. A. Burns, A. C. Simmonett, R. M. Parrish,
    M. C. Schieber, R. Galvelis, P. Kraus, H. Kruse, R. Di Remigio,
    A. Alenaizan, A. M. James, S. Lehtola, J. P. Misiewicz, M. Scheurer,
    R. A. Shaw, J. B. Schriber, Y. Xie, Z. L. Glick, D. A. Sirianni,
    J. S. O'Brien, J. M. Waldrop, A. Kumar, E. G. Hohenstein,
    B. P. Pritchard, B. R. Brooks, H. F. Schaefer III, A. Yu. Sokolov,
    K. Patkowski, A. E. DePrince III, U. Bozkaya, R. A. King,
    F. A. Evangelista, J. M. Turney, T. D. Crawford, C. D. Sherrill,
    J. Chem. Phys. 152(18) 184108 (2020). https://doi.org/10.1063/5.0006002

                            Additional Code Authors
    E. T. Seidl, C. L. Janssen, E. F. Valeev, M. L. Leininger,
    J. F. Gonthier, R. M. Richard, H. R. McAlexander, M. Saitow, X. Wang,
    P. Verma, M. H. Lechner, A. Jiang, S. Behnle, A. G. Heide,
    M. F. Herbst, and D. L. Poole

             Previous Authors, Complete List of Code Contributors,
                       and Citations for Specific Modules
    https://github.com/psi4/psi4/blob/master/codemeta.json
    https://github.com/psi4/psi4/graphs/contributors
    http://psicode.org/psi4manual/master/introduction.html#citing-psifour

    -----------------------------------------------------------------------


    Psi4 started on: Saturday, 27 January 2024 11:25AM

    Process ID: 1029102
    Host:       n2cn0754
    PSIDATADIR: /opt/software/pc2/EB-SW/software/PSI4/1.9-foss-2022a/share/psi4
    Memory:     500.0 MiB
    Threads:    16
    
  ==> Input File <==

--------------------------------------------------------------------------
memory 64 GB # how much memory is available ! Depends on the nodes/cores !

molecule dimer {
# monomer A
-1 1    # Charge and multiplicity
B -0.000046  0.000337 2.399994
F -1.153597  0.000048 3.215641
F  1.153661 -0.000581 3.215641
F -0.000019 -1.153637 1.584360
F -0.000019  1.153978 1.584360
--
# monomer B
0 1     # Charge and multiplicity
C   -3.66844126402057      7.80375217008252      0.00190004133558
C   -4.84759871934653      7.13124183134024     -0.00046653359696
C   -4.89495929917518      5.69633040353158     -0.00103944469517
C   -3.65374067877320      4.98073034095895      0.00662099703436
C   -2.40942512149445      7.11398103667468      0.00209438359570
C   -2.42547734410473      5.68112195090346     -0.00491050527438
C   -1.19474401643570      7.78614419430947      0.00356656413763
C   0.03795902893699      7.09942164575698      0.00139585983271
C   0.03033258741920      5.66948955970466     -0.00408752508301
C   -1.20098450790502      4.96927034791531      0.00488220885047
C   1.27795782581485      7.77285944319479      0.00277170839332
C   2.48535808472416      7.08769688523756      0.00049722048857
C   2.48612868491717      5.65477081024076     -0.00644052849921
C   1.25408291964399      4.95607811366431      0.00518741308898
C   3.75171459140595      7.76391215098033      0.00062407186893
C   4.92356605618520      7.07878077698995     -0.00143240883900
C   4.95560727132542      5.64344746336949     -0.00159282164606
C   3.70680153420475      4.94121020833308      0.00349873852374
H   -3.65852113775815      8.89082741913536      0.00358502958574
H   -1.18921332975660      8.87412108735996      0.00753844057883
H   1.28429423888630      8.86083343548850      0.00693053253426
H   3.75354208679975      8.85103527897216      0.00214659618464
H   5.86995870320703      7.61379483465560     -0.00235777588134
H   -5.78823170750226      7.67630221293400     -0.00202638095293
C   -6.09197395869619      4.99326001364347     -0.00291168518608
C   -6.12866148031747      3.58258016879823     -0.00171050815740
C   -3.66457974004527      3.56418217974434     -0.00463560277484
C   -4.89429820469869      2.86108077590057      0.00453338221034
C   -2.43733499489796      2.84761165708481      0.00719617576166
C   -1.20922785759670      3.54788693497833     -0.00648285103018
C   1.24714157216223      3.53468075142962     -0.00729145743546
C   0.01517603956900      2.83311183930540      0.00439272578912
C   2.46764517244071      2.82128997725533      0.00449278391269
C   3.70254947457969      3.52466015442405     -0.00899517692985
C   6.14498038638375      4.92757236613191     -0.00282626685777
C   6.16658835886151      3.51658447594213     -0.00065971342101
C   4.92460995845939      2.80840792535402      0.00587903281610
H   7.08990550964105      5.46688776622306     -0.00658814770723
H   -7.03104175110130      5.54268795285765     -0.00714490013730
C   -7.33969804112295      2.85841153457957     -0.00333767559888
C   -7.36488195805880      1.47032337158330     -0.00157213747140
C   -4.90350460894690      1.44442681216000     -0.00628840166334
C   -6.13225715261081      0.73993935705394      0.00600164231964
C   -3.67687480051673      0.72669714267312      0.00433931473643
C   -2.44565658606518      1.42964113326212     -0.00597039546461
C   -1.22360068130162      0.71532450163492      0.00545886906656
C   0.00763786931376      1.41738314923765      0.00392452278437
C   1.23121980774686      0.70211669058719     -0.01490206287210
C   2.46082110053113      1.40329203612573      0.00460244601878
C   3.68443025419614      0.68719842821222      0.00377365974158
C   4.91870890153864      1.39173456118907     -0.00862816189375
C   7.36980207796101      2.77948220318441     -0.00242013321349
C   7.38016266612146      1.39121750785509     -0.00087345036788
C   6.13979953912259      0.67411862320065      0.00545489144369
H   -8.27919079934664      3.40711804112415     -0.00763522772059
H   8.31511347147953      3.31811809662368     -0.00663070901292
C   -8.59175593758115      0.72483255304480     -0.00123170985383
C   -8.59902460370342     -0.63263980622873      0.00089141472904
C   -6.13981313911873     -0.67413663715361     -0.00609792660607
C   -7.38018411213749     -1.39126618958160      0.00131813493501
C   -4.91868448025621     -1.39175501803000      0.00624257154343
C   -3.68443829568458     -0.68723731573599     -0.00478966852105
C   -2.46081704024768     -1.40334517882457      0.00575341766833
C   -1.23116201232071     -0.70217386488055     -0.00636696112346
C   -0.00756962538737     -1.41741884941102      0.00108956317991
C   1.22364771588843     -0.71527537726392      0.01109518512883
C   2.44567064933149     -1.42964328900682     -0.00065482763106
C   3.67686670284649     -0.72670743155550     -0.00479541202602
C   6.13224884641929     -0.73997883984993     -0.00632338623858
C   4.90351914550401     -1.44445752054090      0.00751768830159
C   8.59901484869081      0.63260386666793     -0.00101133422380
C   8.59174548810050     -0.72485086719319      0.00072504603735
C   7.36486276438985     -1.47033266560598      0.00049486934466
H   -9.52830597181814      1.27684744919284     -0.00270163681798
H   9.54141097460619      1.17457248844457     -0.00206336648518
C   -7.36983790976868     -2.77954514593389      0.00312634335708
C   -4.92459910905015     -2.80843725734101     -0.00460528907921
C   -6.16662249566744     -3.51665219282533      0.00169655107992
C   -3.70251035970491     -3.52468154912026      0.00571878010666
C   -2.46764698511392     -2.82132596280400     -0.00632585824990
C   -0.01513347410770     -2.83314164539971     -0.00604426974092
C   -1.24712184122656     -3.53473217556300      0.00551968366725
C   1.20924506964357     -3.54791467864352      0.00805871345849
C   2.43733602215464     -2.84764173817541     -0.00608104485234
C   4.89430234377080     -2.86112296828604     -0.00526030478103
C   3.66461525504104     -3.56421984553201      0.00761911515957
C   6.12863901474565     -3.58258405771778      0.00096495711699
C   7.33967266469532     -2.85841330737039      0.00248018319869
H   -9.54144911125902     -1.17456346666430      0.00226083090216
H   9.52826186807155     -1.27691907390448      0.00197485379837
H   -8.31516504384864     -3.31814985321231      0.00729857188773
H   8.27915514249207     -3.40714078989363      0.00681973918158
C   -6.14499418870218     -4.92764727278338      0.00302254913999
C   -3.70678334799751     -4.94126171411716     -0.00679841894792
C   -4.95559005800169     -5.64349397349412      0.00116871569699
C   -2.48612132622665     -5.65478557440947      0.00614125209662
C   -1.25405833548005     -4.95612205000132     -0.00503435388927
C   1.20101257386816     -4.96928038819302     -0.00385322963129
C   -0.03033667441341     -5.66952030313900      0.00398997003238
C   3.65375010132847     -4.98074377541453     -0.00309522988330
C   2.42549269587528     -5.68117463552727      0.00628170066869
C   6.09196561781097     -4.99325796338655      0.00325918379042
C   4.89497644461045     -5.69634842095790      0.00202298796027
H   -7.08989238804069     -5.46699984223871      0.00742531082125
H   7.03105520920009     -5.54265853633254      0.00683896355417
C   -4.92354532219813     -7.07882109967734      0.00061394679214
C   -2.48534208823777     -7.08772807792913     -0.00189594564379
C   -3.75168589177895     -7.76394715763627     -0.00170126671874
C   -0.03794895698805     -7.09946487446944     -0.00168022049625
C   -1.27795610040136     -7.77290438466689     -0.00366491325785
C   2.40944432072629     -7.11402201200282     -0.00081701968533
C   1.19474993715296     -7.78618536556242     -0.00296931056689
C   4.84762105249800     -7.13126211057943      0.00168979497423
C   3.66847160587561     -7.80378799294376     -0.00065863938960
H   -5.86994035041618     -7.61383059804164      0.00215798365757
H   5.78824962538815     -7.67633218931421      0.00281691445618
H   -3.75352693944918     -8.85107156923607     -0.00353718114765
H   -1.28430440589466     -8.86087539249706     -0.00809229711623
H   1.18922157469537     -8.87416062058945     -0.00706194725726
H   3.65854661482387     -8.89086063405326     -0.00231318081200

    units angstrom      # Angstroms are the default
    no_reorient         # Geometry fixed, default
    symmetry c1         # C1 symmetry, default
}

set {
    scf_type DF         # Density fitting, faster than exact integrals
    freeze_core True    # Freeze core electrons
    basis jun-cc-pVDZ   # Jun-cc-pVDZ basis set, recommended for sSAPT0 in https://doi.org/10.1063/1.4867135
}

energy('ssapt0')        # Compute sSAPT0 energy, includes also SAPT0
--------------------------------------------------------------------------

  Memory set to  59.605 GiB by Python driver.

Scratch directory: /tmp/
   => Loading Basis Set <=

    Name: JUN-CC-PVDZ
    Role: ORBITAL
    Keyword: BASIS
    atoms 1                                                   entry B          line   130 file /opt/software/pc2/EB-SW/software/PSI4/1.9-foss-2022a/share/psi4/basis/jun-cc-pvdz.gbs 
    atoms 2-5                                                 entry F          line   266 file /opt/software/pc2/EB-SW/software/PSI4/1.9-foss-2022a/share/psi4/basis/jun-cc-pvdz.gbs 
    atoms 6-23, 30-42, 45-59, 62-78, 81-93, 98-108, 111-119   entry C          line   164 file /opt/software/pc2/EB-SW/software/PSI4/1.9-foss-2022a/share/psi4/basis/jun-cc-pvdz.gbs 
    atoms 24-29, 43-44, 60-61, 79-80, 94-97, 109-110, 120-125 entry H          line    36 file /opt/software/pc2/EB-SW/software/PSI4/1.9-foss-2022a/share/psi4/basis/jun-cc-pvdz.gbs 

   => Loading Basis Set <=

    Name: JUN-CC-PVDZ
    Role: ORBITAL
    Keyword: BASIS
    atoms 1                                                   entry B          line   130 file /opt/software/pc2/EB-SW/software/PSI4/1.9-foss-2022a/share/psi4/basis/jun-cc-pvdz.gbs 
    atoms 2-5                                                 entry F          line   266 file /opt/software/pc2/EB-SW/software/PSI4/1.9-foss-2022a/share/psi4/basis/jun-cc-pvdz.gbs 
    atoms 6-23, 30-42, 45-59, 62-78, 81-93, 98-108, 111-119   entry C          line   164 file /opt/software/pc2/EB-SW/software/PSI4/1.9-foss-2022a/share/psi4/basis/jun-cc-pvdz.gbs 
    atoms 24-29, 43-44, 60-61, 79-80, 94-97, 109-110, 120-125 entry H          line    36 file /opt/software/pc2/EB-SW/software/PSI4/1.9-foss-2022a/share/psi4/basis/jun-cc-pvdz.gbs 


  //>>>>>>>>>>>>>>>>>>>>>>>>>>>>>>>>>>>//
  //              Dimer HF             //
  //<<<<<<<<<<<<<<<<<<<<<<<<<<<<<<<<<<<//

   => Libint2 <=

    Primary   basis highest AM E, G, H:  5, 4, 3
    Auxiliary basis highest AM E, G, H:  6, 5, 4
    Onebody   basis highest AM E, G, H:  6, 5, 4
    Solid Harmonics ordering:            gaussian

*** tstart() called on n2cn0754
*** at Sat Jan 27 11:25:35 2024

   => Loading Basis Set <=

    Name: JUN-CC-PVDZ
    Role: ORBITAL
    Keyword: BASIS
    atoms 1                                                   entry B          line   130 file /opt/software/pc2/EB-SW/software/PSI4/1.9-foss-2022a/share/psi4/basis/jun-cc-pvdz.gbs 
    atoms 2-5                                                 entry F          line   266 file /opt/software/pc2/EB-SW/software/PSI4/1.9-foss-2022a/share/psi4/basis/jun-cc-pvdz.gbs 
    atoms 6-23, 30-42, 45-59, 62-78, 81-93, 98-108, 111-119   entry C          line   164 file /opt/software/pc2/EB-SW/software/PSI4/1.9-foss-2022a/share/psi4/basis/jun-cc-pvdz.gbs 
    atoms 24-29, 43-44, 60-61, 79-80, 94-97, 109-110, 120-125 entry H          line    36 file /opt/software/pc2/EB-SW/software/PSI4/1.9-foss-2022a/share/psi4/basis/jun-cc-pvdz.gbs 


         ---------------------------------------------------------
                                   SCF
               by Justin Turney, Rob Parrish, Andy Simmonett
                          and Daniel G. A. Smith
                              RHF Reference
                       16 Threads,  61035 MiB Core
         ---------------------------------------------------------

  ==> Geometry <==

    Molecular point group: c1
    Full point group: C1

    Geometry (in Angstrom), charge = -1, multiplicity = 1:

       Center              X                  Y                   Z               Mass       
    ------------   -----------------  -----------------  -----------------  -----------------
         B           -0.000050191042     0.000351518223     2.234689649615    11.009305360000
         F           -1.153601191042     0.000062518223     3.050336649615    18.998403162730
         F            1.153656808958    -0.000566481777     3.050336649615    18.998403162730
         F           -0.000023191042    -1.153622481777     1.419055649615    18.998403162730
         F           -0.000023191042     1.153992518223     1.419055649615    18.998403162730
         C           -3.668445455062     7.803766688305    -0.163404309049    12.000000000000
         C           -4.847602910388     7.131256349563    -0.165770883982    12.000000000000
         C           -4.894963490217     5.696344921754    -0.166343795080    12.000000000000
         C           -3.653744869815     4.980744859182    -0.158683353351    12.000000000000
         C           -2.409429312536     7.113995554897    -0.163209966789    12.000000000000
         C           -2.425481535146     5.681136469126    -0.170214855659    12.000000000000
         C           -1.194748207477     7.786158712532    -0.161737786247    12.000000000000
         C            0.037954837895     7.099436163980    -0.163908490552    12.000000000000
         C            0.030328396378     5.669504077927    -0.169391875468    12.000000000000
         C           -1.200988698947     4.969284866138    -0.160422141535    12.000000000000
         C            1.277953634773     7.772873961417    -0.162532641992    12.000000000000
         C            2.485353893683     7.087711403460    -0.164807129896    12.000000000000
         C            2.486124493876     5.654785328463    -0.171744878884    12.000000000000
         C            1.254078728602     4.956092631887    -0.160116937296    12.000000000000
         C            3.751710400364     7.763926669203    -0.164680278516    12.000000000000
         C            4.923561865144     7.078795295213    -0.166736759224    12.000000000000
         C            4.955603080284     5.643461981592    -0.166897172031    12.000000000000
         C            3.706797343163     4.941224726556    -0.161805611861    12.000000000000
         H           -3.658525328800     8.890841937358    -0.161719320799     1.007825032230
         H           -1.189217520798     8.874135605583    -0.157765909806     1.007825032230
         H            1.284290047845     8.860847953711    -0.158373817851     1.007825032230
         H            3.753537895758     8.851049797195    -0.163157754200     1.007825032230
         H            5.869954512165     7.613809352878    -0.167662126266     1.007825032230
         H           -5.788235898544     7.676316731157    -0.167330731338     1.007825032230
         C           -6.091978149738     4.993274531866    -0.168216035571    12.000000000000
         C           -6.128665671359     3.582594687021    -0.167014858542    12.000000000000
         C           -3.664583931087     3.564196697967    -0.169939953160    12.000000000000
         C           -4.894302395740     2.861095294123    -0.160770968175    12.000000000000
         C           -2.437339185940     2.847626175307    -0.158108174623    12.000000000000
         C           -1.209232048638     3.547901453201    -0.171787201415    12.000000000000
         C            1.247137381121     3.534695269652    -0.172595807821    12.000000000000
         C            0.015171848527     2.833126357528    -0.160911624596    12.000000000000
         C            2.467640981399     2.821304495478    -0.160811566472    12.000000000000
         C            3.702545283538     3.524674672647    -0.174299527315    12.000000000000
         C            6.144976195342     4.927586884354    -0.168130617243    12.000000000000
         C            6.166584167820     3.516598994165    -0.165964063806    12.000000000000
         C            4.924605767418     2.808422443577    -0.159425317569    12.000000000000
         H            7.089901318599     5.466902284446    -0.171892498092     1.007825032230
         H           -7.031045942143     5.542702471080    -0.172449250522     1.007825032230
         C           -7.339702232165     2.858426052802    -0.168642025984    12.000000000000
         C           -7.364886149100     1.470337889806    -0.166876487856    12.000000000000
         C           -4.903508799989     1.444441330383    -0.171592752048    12.000000000000
         C           -6.132261343652     0.739953875277    -0.159302708065    12.000000000000
         C           -3.676878991558     0.726711660896    -0.160965035649    12.000000000000
         C           -2.445660777107     1.429655651485    -0.171274745850    12.000000000000
         C           -1.223604872343     0.715339019858    -0.159845481318    12.000000000000
         C            0.007633678272     1.417397667460    -0.161379827601    12.000000000000
         C            1.231215616705     0.702131208810    -0.180206413257    12.000000000000
         C            2.460816909489     1.403306554348    -0.160701904366    12.000000000000
         C            3.684426063155     0.687212946435    -0.161530690643    12.000000000000
         C            4.918704710497     1.391749079412    -0.173932512279    12.000000000000
         C            7.369797886919     2.779496721407    -0.167724483599    12.000000000000
         C            7.380158475080     1.391232026078    -0.166177800753    12.000000000000
         C            6.139795348081     0.674133141423    -0.159849458941    12.000000000000
         H           -8.279194990388     3.407132559347    -0.172939578106     1.007825032230
         H            8.315109280438     3.318132614846    -0.171935059398     1.007825032230
         C           -8.591760128623     0.724847071267    -0.166536060239    12.000000000000
         C           -8.599028794745    -0.632625288006    -0.164412935656    12.000000000000
         C           -6.139817330160    -0.674122118931    -0.171402276991    12.000000000000
         C           -7.380188303179    -1.391251671359    -0.163986215450    12.000000000000
         C           -4.918688671298    -1.391740499807    -0.159061778842    12.000000000000
         C           -3.684442486726    -0.687222797513    -0.170094018906    12.000000000000
         C           -2.460821231289    -1.403330660602    -0.159550932717    12.000000000000
         C           -1.231166203362    -0.702159346658    -0.171671311509    12.000000000000
         C           -0.007573816429    -1.417404331188    -0.164214787205    12.000000000000
         C            1.223643524847    -0.715260859041    -0.154209165256    12.000000000000
         C            2.445666458290    -1.429628770784    -0.165959178016    12.000000000000
         C            3.676862511805    -0.726692913333    -0.170099762411    12.000000000000
         C            6.132244655378    -0.739964321627    -0.171627736624    12.000000000000
         C            4.903514954462    -1.444443002318    -0.157786662083    12.000000000000
         C            8.599010657649     0.632618384891    -0.166315684609    12.000000000000
         C            8.591741297059    -0.724836348971    -0.164579304348    12.000000000000
         C            7.364858573348    -1.470318147383    -0.164809481040    12.000000000000
         H           -9.528310162860     1.276861967415    -0.168005987203     1.007825032230
         H            9.541406783565     1.174587006667    -0.167367716870     1.007825032230
         C           -7.369842100810    -2.779530627711    -0.162178007028    12.000000000000
         C           -4.924603300092    -2.808422739118    -0.169909639464    12.000000000000
         C           -6.166626686709    -3.516637674603    -0.163607799305    12.000000000000
         C           -3.702514550747    -3.524667030898    -0.159585570278    12.000000000000
         C           -2.467651176156    -2.821311444581    -0.171630208635    12.000000000000
         C           -0.015137665149    -2.833127127177    -0.171348620126    12.000000000000
         C           -1.247126032268    -3.534717657340    -0.159784666718    12.000000000000
         C            1.209240878602    -3.547900160421    -0.157245636927    12.000000000000
         C            2.437331831113    -2.847627219953    -0.171385395237    12.000000000000
         C            4.894298152729    -2.861108450063    -0.170564655166    12.000000000000
         C            3.664611063999    -3.564205327309    -0.157685235225    12.000000000000
         C            6.128634823704    -3.582569539495    -0.164339393268    12.000000000000
         C            7.339668473654    -2.858398789148    -0.162824167186    12.000000000000
         H           -9.541453302301    -1.174548948442    -0.163043519483     1.007825032230
         H            9.528257677030    -1.276904555682    -0.163329496587     1.007825032230
         H           -8.315169234890    -3.318135334990    -0.158005778497     1.007825032230
         H            8.279150951450    -3.407126271671    -0.158484611203     1.007825032230
         C           -6.144998379744    -4.927632754561    -0.162281801245    12.000000000000
         C           -3.706787539039    -4.941247195895    -0.172102769333    12.000000000000
         C           -4.955594249043    -5.643479455272    -0.164135634688    12.000000000000
         C           -2.486125517268    -5.654771056187    -0.159163098288    12.000000000000
         C           -1.254062526522    -4.956107531779    -0.170338704274    12.000000000000
         C            1.201008382827    -4.969265869970    -0.169157580016    12.000000000000
         C           -0.030340865455    -5.669505784916    -0.161314380353    12.000000000000
         C            3.653745910287    -4.980729257192    -0.168399580268    12.000000000000
         C            2.425488504834    -5.681160117305    -0.159022649716    12.000000000000
         C            6.091961426769    -4.993243445164    -0.162045166595    12.000000000000
         C            4.894972253569    -5.696333902735    -0.163281362425    12.000000000000
         H           -7.089896579082    -5.466985324016    -0.157879039564     1.007825032230
         H            7.031051018158    -5.542644018110    -0.158465386831     1.007825032230
         C           -4.923549513240    -7.078806581455    -0.164690403593    12.000000000000
         C           -2.485346279279    -7.087713559707    -0.167200296029    12.000000000000
         C           -3.751690082821    -7.763932639414    -0.167005617104    12.000000000000
         C           -0.037953148030    -7.099450356247    -0.166984570881    12.000000000000
         C           -1.277960291443    -7.772889866444    -0.168969263643    12.000000000000
         C            2.409440129685    -7.114007493780    -0.166121370070    12.000000000000
         C            1.194745746111    -7.786170847340    -0.168273660952    12.000000000000
         C            4.847616861456    -7.131247592357    -0.163614555411    12.000000000000
         C            3.668467414834    -7.803773474721    -0.165962989775    12.000000000000
         H           -5.869944541458    -7.613816079819    -0.163146366727     1.007825032230
         H            5.788245434347    -7.676317671092    -0.162487435929     1.007825032230
         H           -3.753531130491    -8.851057051013    -0.168841531533     1.007825032230
         H           -1.284308596936    -8.860860874274    -0.173396647501     1.007825032230
         H            1.189217383654    -8.874146102367    -0.172366297642     1.007825032230
         H            3.658542423782    -8.890846115831    -0.167617531197     1.007825032230

  Running in c1 symmetry.

  Rotational constants: A =      0.00069  B =      0.00069  C =      0.00035 [cm^-1]
  Rotational constants: A =     20.65807  B =     20.65442  C =     10.55117 [MHz]
  Nuclear repulsion = 17992.903464972026995

  Charge       = -1
  Multiplicity = 1
  Electrons    = 642
  Nalpha       = 321
  Nbeta        = 321

  ==> Algorithm <==

  SCF Algorithm Type is DF.
  DIIS enabled.
  MOM disabled.
  Fractional occupation disabled.
  Guess Type is SAD.
  Energy threshold   = 1.00e-08
  Density threshold  = 1.00e-08
  Integral threshold = 1.00e-12

  ==> Primary Basis <==

  Basis Set: JUN-CC-PVDZ
    Blend: JUN-CC-PVDZ
    Number of shells: 880
    Number of basis functions: 1938
    Number of Cartesian functions: 2039
    Spherical Harmonics?: true
    Max angular momentum: 2

   => Loading Basis Set <=

    Name: (JUN-CC-PVDZ AUX)
    Role: JKFIT
    Keyword: DF_BASIS_SCF
    atoms 1                                                   entry B          line    90 file /opt/software/pc2/EB-SW/software/PSI4/1.9-foss-2022a/share/psi4/basis/jun-cc-pvdz-jkfit.gbs 
    atoms 2-5                                                 entry F          line   314 file /opt/software/pc2/EB-SW/software/PSI4/1.9-foss-2022a/share/psi4/basis/jun-cc-pvdz-jkfit.gbs 
    atoms 6-23, 30-42, 45-59, 62-78, 81-93, 98-108, 111-119   entry C          line   146 file /opt/software/pc2/EB-SW/software/PSI4/1.9-foss-2022a/share/psi4/basis/jun-cc-pvdz-jkfit.gbs 
    atoms 24-29, 43-44, 60-61, 79-80, 94-97, 109-110, 120-125 entry H          line    70 file /opt/software/pc2/EB-SW/software/PSI4/1.9-foss-2022a/share/psi4/basis/jun-cc-pvdz-jkfit.gbs 

  ==> Integral Setup <==

  ==> DiskDFJK: Density-Fitted J/K Matrices <==

    J tasked:                  Yes
    K tasked:                  Yes
    wK tasked:                  No
    OpenMP threads:             16
    Integrals threads:          16
    Memory [MiB]:            45776
    Algorithm:                Disk
    Integral Cache:           SAVE
    Schwarz Cutoff:          1E-12
    Fitting Condition:       1E-10

   => Auxiliary Basis Set <=

  Basis Set: (JUN-CC-PVDZ AUX)
    Blend: JUN-CC-PVDZ-JKFIT
    Number of shells: 2943
    Number of basis functions: 8531
    Number of Cartesian functions: 9791
    Spherical Harmonics?: true
    Max angular momentum: 3

  Minimum eigenvalue in the overlap matrix is 5.9312049926E-11.
  Reciprocal condition number of the overlap matrix is 2.3505904468E-12.
    Using canonical orthogonalization.
  Overall, 40 of 1938 possible MOs eliminated.


  ==> Pre-Iterations <==

  SCF Guess: Superposition of Atomic Densities via on-the-fly atomic UHF (no occupation information).

   -------------------------
    Irrep   Nso     Nmo    
   -------------------------
     A       1938    1898 
   -------------------------
    Total    1938    1898
   -------------------------

  ==> Iterations <==

                           Total Energy        Delta E     RMS |[F,P]|

   @DF-RHF iter SAD: -4086.98619983949447   -4.08699e+03   0.00000e+00 
   @DF-RHF iter   1: -4071.16192455499731    1.58243e+01   7.85760e-04 ADIIS/DIIS
   @DF-RHF iter   2: -4072.59015713127201   -1.42823e+00   2.93081e-04 ADIIS/DIIS
   @DF-RHF iter   3: -4072.75213818357815   -1.61981e-01   1.08979e-04 ADIIS/DIIS
   @DF-RHF iter   4: -4072.77711723488892   -2.49791e-02   4.44052e-05 DIIS
   @DF-RHF iter   5: -4072.78197531601245   -4.85808e-03   1.24884e-05 DIIS
   @DF-RHF iter   6: -4072.78256630322494   -5.90987e-04   5.60321e-06 DIIS
   @DF-RHF iter   7: -4072.78281782490558   -2.51522e-04   3.17926e-06 DIIS
   @DF-RHF iter   8: -4072.78291433907270   -9.65142e-05   1.90290e-06 DIIS
   @DF-RHF iter   9: -4072.78295340567274   -3.90666e-05   7.08778e-07 DIIS
   @DF-RHF iter  10: -4072.78295832211097   -4.91644e-06   4.28413e-07 DIIS
   @DF-RHF iter  11: -4072.78296016626382   -1.84415e-06   2.18450e-07 DIIS
   @DF-RHF iter  12: -4072.78296089136347   -7.25100e-07   1.25551e-07 DIIS
   @DF-RHF iter  13: -4072.78296114771047   -2.56347e-07   5.45707e-08 DIIS
   @DF-RHF iter  14: -4072.78296119054767   -4.28372e-08   2.77033e-08 DIIS
   @DF-RHF iter  15: -4072.78296119885272   -8.30505e-09   1.15014e-08 DIIS
   @DF-RHF iter  16: -4072.78296120025152   -1.39880e-09   6.22063e-09 DIIS
  Energy and wave function converged.


  ==> Post-Iterations <==

    Orbital Energies [Eh]
    ---------------------

    Doubly Occupied:                                                      

       1A    -26.217571     2A    -26.216619     3A    -26.156830  
       4A    -26.156783     5A    -11.224383     6A    -11.223491  
       7A    -11.190944     8A    -11.190936     9A    -11.190918  
      10A    -11.190907    11A    -11.189935    12A    -11.189927  
      13A    -11.189907    14A    -11.189906    15A    -11.189710  
      16A    -11.189702    17A    -11.189689    18A    -11.189682  
      19A    -11.188892    20A    -11.188884    21A    -11.188860  
      22A    -11.188859    23A    -11.188692    24A    -11.188680  
      25A    -11.188387    26A    -11.188385    27A    -11.188092  
      28A    -11.188087    29A    -11.188086    30A    -11.188074  
      31A    -11.187257    32A    -11.187246    33A    -11.186603  
      34A    -11.186533    35A    -11.186256    36A    -11.186195  
      37A    -11.186163    38A    -11.186162    39A    -11.186144  
      40A    -11.186110    41A    -11.186078    42A    -11.186072  
      43A    -11.186055    44A    -11.186051    45A    -11.186037  
      46A    -11.186021    47A    -11.185618    48A    -11.185612  
      49A    -11.185599    50A    -11.185564    51A    -11.185363  
      52A    -11.185268    53A    -11.185132    54A    -11.185046  
      55A    -11.184697    56A    -11.184671    57A    -11.183698  
      58A    -11.183693    59A    -11.183501    60A    -11.183472  
      61A    -11.183343    62A    -11.183313    63A    -11.182916  
      64A    -11.182867    65A    -11.182392    66A    -11.182316  
      67A    -11.182293    68A    -11.182251    69A    -11.182198  
      70A    -11.182183    71A    -11.182148    72A    -11.182041  
      73A    -11.181793    74A    -11.181789    75A    -11.181628  
      76A    -11.181496    77A    -11.181382    78A    -11.181276  
      79A    -11.179381    80A    -11.179318    81A    -11.179293  
      82A    -11.179261    83A    -11.179191    84A    -11.179150  
      85A    -11.178835    86A    -11.178717    87A    -11.176194  
      88A    -11.176047    89A    -11.176025    90A    -11.175887  
      91A    -11.173306    92A    -11.172986    93A    -11.171762  
      94A    -11.171442    95A    -11.169814    96A    -11.169688  
      97A    -11.169611    98A    -11.169502    99A    -11.157904  
     100A    -11.157886   101A     -7.664435   102A     -1.596459  
     103A     -1.560084   104A     -1.465166   105A     -1.440054  
     106A     -1.174317   107A     -1.161457   108A     -1.160858  
     109A     -1.145329   110A     -1.143670   111A     -1.141161  
     112A     -1.126854   113A     -1.120514   114A     -1.111909  
     115A     -1.111199   116A     -1.100411   117A     -1.099895  
     118A     -1.081351   119A     -1.078295   120A     -1.077091  
     121A     -1.072075   122A     -1.071650   123A     -1.052679  
     124A     -1.042849   125A     -1.040878   126A     -1.038943  
     127A     -1.038265   128A     -1.037211   129A     -1.013601  
     130A     -1.013501   131A     -1.005347   132A     -1.004604  
     133A     -0.993307   134A     -0.991810   135A     -0.991472  
     136A     -0.974275   137A     -0.972841   138A     -0.966534  
     139A     -0.965733   140A     -0.965502   141A     -0.953420  
     142A     -0.948276   143A     -0.946472   144A     -0.934872  
     145A     -0.930750   146A     -0.928680   147A     -0.927307  
     148A     -0.924695   149A     -0.918538   150A     -0.900281  
     151A     -0.897451   152A     -0.884280   153A     -0.882526  
     154A     -0.839750   155A     -0.834161   156A     -0.833816  
     157A     -0.832414   158A     -0.832172   159A     -0.822516  
     160A     -0.818745   161A     -0.817441   162A     -0.815802  
     163A     -0.813344   164A     -0.800776   165A     -0.798805  
     166A     -0.781165   167A     -0.778572   168A     -0.772910  
     169A     -0.772543   170A     -0.770992   171A     -0.766675  
     172A     -0.760742   173A     -0.758456   174A     -0.757041  
     175A     -0.752213   176A     -0.718432   177A     -0.715523  
     178A     -0.714644   179A     -0.712925   180A     -0.712799  
     181A     -0.709821   182A     -0.699496   183A     -0.698831  
     184A     -0.693343   185A     -0.687677   186A     -0.685663  
     187A     -0.663606   188A     -0.661724   189A     -0.660407  
     190A     -0.655537   191A     -0.651636   192A     -0.650220  
     193A     -0.649684   194A     -0.649681   195A     -0.646682  
     196A     -0.635730   197A     -0.634685   198A     -0.628658  
     199A     -0.627521   200A     -0.615517   201A     -0.613390  
     202A     -0.611781   203A     -0.611021   204A     -0.608253  
     205A     -0.608061   206A     -0.606399   207A     -0.604211  
     208A     -0.596938   209A     -0.583057   210A     -0.577704  
     211A     -0.576652   212A     -0.573412   213A     -0.572040  
     214A     -0.567957   215A     -0.566710   216A     -0.566362  
     217A     -0.566026   218A     -0.561138   219A     -0.559175  
     220A     -0.554429   221A     -0.553465   222A     -0.546263  
     223A     -0.542488   224A     -0.542346   225A     -0.536038  
     226A     -0.534674   227A     -0.532804   228A     -0.524785  
     229A     -0.523928   230A     -0.523123   231A     -0.522656  
     232A     -0.522407   233A     -0.522156   234A     -0.521864  
     235A     -0.521004   236A     -0.520884   237A     -0.518667  
     238A     -0.516682   239A     -0.514457   240A     -0.513828  
     241A     -0.511916   242A     -0.507405   243A     -0.506426  
     244A     -0.506247   245A     -0.501275   246A     -0.500030  
     247A     -0.499983   248A     -0.494835   249A     -0.494239  
     250A     -0.493468   251A     -0.490300   252A     -0.489988  
     253A     -0.488254   254A     -0.486707   255A     -0.483481  
     256A     -0.481951   257A     -0.478442   258A     -0.477940  
     259A     -0.477575   260A     -0.477257   261A     -0.470240  
     262A     -0.464066   263A     -0.460149   264A     -0.459261  
     265A     -0.455120   266A     -0.454050   267A     -0.453712  
     268A     -0.449764   269A     -0.443868   270A     -0.443517  
     271A     -0.443267   272A     -0.443089   273A     -0.442461  
     274A     -0.437344   275A     -0.436900   276A     -0.423693  
     277A     -0.422149   278A     -0.421566   279A     -0.417003  
     280A     -0.415296   281A     -0.408686   282A     -0.405349  
     283A     -0.405179   284A     -0.399979   285A     -0.392530  
     286A     -0.392108   287A     -0.390072   288A     -0.384343  
     289A     -0.381388   290A     -0.369311   291A     -0.369001  
     292A     -0.364858   293A     -0.363746   294A     -0.360744  
     295A     -0.355495   296A     -0.343843   297A     -0.332712  
     298A     -0.331227   299A     -0.314490   300A     -0.311906  
     301A     -0.310257   302A     -0.308861   303A     -0.283396  
     304A     -0.280086   305A     -0.278748   306A     -0.276732  
     307A     -0.261930   308A     -0.261371   309A     -0.260026  
     310A     -0.253744   311A     -0.230175   312A     -0.227625  
     313A     -0.225142   314A     -0.220201   315A     -0.215544  
     316A     -0.213189   317A     -0.188321   318A     -0.177839  
     319A     -0.132671   320A     -0.131465   321A     -0.130867  

    Virtual:                                                              

     322A      0.063661   323A      0.070684   324A      0.096890  
     325A      0.097424   326A      0.097746   327A      0.099286  
     328A      0.100074   329A      0.104970   330A      0.106887  
     331A      0.107272   332A      0.110540   333A      0.112777  
     334A      0.112924   335A      0.115538   336A      0.124183  
     337A      0.124226   338A      0.130785   339A      0.133096  
     340A      0.138646   341A      0.139173   342A      0.139966  
     343A      0.140216   344A      0.141570   345A      0.144056  
     346A      0.144386   347A      0.144513   348A      0.145502  
     349A      0.146956   350A      0.147006   351A      0.148078  
     352A      0.150509   353A      0.151509   354A      0.151839  
     355A      0.151969   356A      0.152200   357A      0.152789  
     358A      0.155407   359A      0.161744   360A      0.164311  
     361A      0.164528   362A      0.165171   363A      0.166170  
     364A      0.166452   365A      0.166864   366A      0.166938  
     367A      0.167777   368A      0.174946   369A      0.175086  
     370A      0.176470   371A      0.178438   372A      0.178884  
     373A      0.179125   374A      0.179459   375A      0.180636  
     376A      0.182119   377A      0.182344   378A      0.182974  
     379A      0.190243   380A      0.191597   381A      0.191641  
     382A      0.192764   383A      0.195783   384A      0.198907  
     385A      0.199028   386A      0.200800   387A      0.200890  
     388A      0.206205   389A      0.206686   390A      0.207779  
     391A      0.208651   392A      0.213150   393A      0.215908  
     394A      0.216047   395A      0.217111   396A      0.217706  
     397A      0.218480   398A      0.220309   399A      0.222271  
     400A      0.222658   401A      0.223779   402A      0.225232  
     403A      0.226055   404A      0.226160   405A      0.226395  
     406A      0.228180   407A      0.228305   408A      0.229971  
     409A      0.230302   410A      0.231644   411A      0.233247  
     412A      0.235823   413A      0.236046   414A      0.237722  
     415A      0.243121   416A      0.243824   417A      0.245078  
     418A      0.245530   419A      0.245693   420A      0.246300  
     421A      0.246588   422A      0.251692   423A      0.253650  
     424A      0.254672   425A      0.255055   426A      0.255682  
     427A      0.259171   428A      0.260611   429A      0.261005  
     430A      0.263499   431A      0.263659   432A      0.265138  
     433A      0.265684   434A      0.266492   435A      0.266731  
     436A      0.268795   437A      0.271322   438A      0.272699  
     439A      0.273747   440A      0.274539   441A      0.274930  
     442A      0.275633   443A      0.275915   444A      0.275994  
     445A      0.277121   446A      0.277838   447A      0.278335  
     448A      0.278581   449A      0.278873   450A      0.278980  
     451A      0.279981   452A      0.280902   453A      0.282256  
     454A      0.287054   455A      0.287532   456A      0.291007  
     457A      0.293624   458A      0.294449   459A      0.294636  
     460A      0.295063   461A      0.295593   462A      0.296225  
     463A      0.296342   464A      0.297570   465A      0.298838  
     466A      0.299077   467A      0.302116   468A      0.302869  
     469A      0.302969   470A      0.304213   471A      0.304802  
     472A      0.307748   473A      0.310670   474A      0.311835  
     475A      0.312387   476A      0.317037   477A      0.318559  
     478A      0.318896   479A      0.320560   480A      0.322554  
     481A      0.322808   482A      0.323157   483A      0.324255  
     484A      0.324645   485A      0.326142   486A      0.327383  
     487A      0.327995   488A      0.329976   489A      0.330785  
     490A      0.332095   491A      0.332148   492A      0.334340  
     493A      0.335776   494A      0.340043   495A      0.341724  
     496A      0.341870   497A      0.342009   498A      0.343745  
     499A      0.344219   500A      0.345172   501A      0.345468  
     502A      0.345618   503A      0.347241   504A      0.347335  
     505A      0.347630   506A      0.352815   507A      0.353458  
     508A      0.354651   509A      0.355672   510A      0.357445  
     511A      0.359504   512A      0.361436   513A      0.362297  
     514A      0.362548   515A      0.362649   516A      0.363083  
     517A      0.367541   518A      0.368935   519A      0.369144  
     520A      0.369188   521A      0.370035   522A      0.371219  
     523A      0.371299   524A      0.372034   525A      0.374068  
     526A      0.374707   527A      0.374923   528A      0.375768  
     529A      0.375999   530A      0.378104   531A      0.378958  
     532A      0.380291   533A      0.380766   534A      0.381173  
     535A      0.384566   536A      0.384915   537A      0.386879  
     538A      0.388410   539A      0.389133   540A      0.390069  
     541A      0.391266   542A      0.391700   543A      0.391831  
     544A      0.393940   545A      0.394598   546A      0.395697  
     547A      0.395960   548A      0.397258   549A      0.397745  
     550A      0.398791   551A      0.399076   552A      0.400474  
     553A      0.401232   554A      0.402233   555A      0.404531  
     556A      0.405203   557A      0.405249   558A      0.407071  
     559A      0.409659   560A      0.410420   561A      0.410531  
     562A      0.411252   563A      0.415117   564A      0.415986  
     565A      0.417890   566A      0.418205   567A      0.418413  
     568A      0.421339   569A      0.425523   570A      0.426537  
     571A      0.427600   572A      0.428573   573A      0.428983  
     574A      0.430923   575A      0.434710   576A      0.435209  
     577A      0.436737   578A      0.436940   579A      0.438068  
     580A      0.438250   581A      0.438874   582A      0.440419  
     583A      0.441766   584A      0.443391   585A      0.444969  
     586A      0.447334   587A      0.447486   588A      0.447671  
     589A      0.448232   590A      0.448535   591A      0.452396  
     592A      0.452972   593A      0.453339   594A      0.454050  
     595A      0.456097   596A      0.457429   597A      0.459379  
     598A      0.459666   599A      0.461331   600A      0.462154  
     601A      0.462749   602A      0.463072   603A      0.464513  
     604A      0.466517   605A      0.466964   606A      0.468009  
     607A      0.468255   608A      0.468828   609A      0.468953  
     610A      0.469880   611A      0.472129   612A      0.472460  
     613A      0.473161   614A      0.473398   615A      0.473871  
     616A      0.475943   617A      0.476058   618A      0.476645  
     619A      0.477277   620A      0.477813   621A      0.477861  
     622A      0.478266   623A      0.478381   624A      0.479025  
     625A      0.479658   626A      0.479717   627A      0.481543  
     628A      0.482280   629A      0.484119   630A      0.487276  
     631A      0.488583   632A      0.489165   633A      0.489767  
     634A      0.490486   635A      0.490976   636A      0.491394  
     637A      0.493593   638A      0.493772   639A      0.495229  
     640A      0.495752   641A      0.497028   642A      0.499826  
     643A      0.502128   644A      0.503258   645A      0.503394  
     646A      0.503870   647A      0.504336   648A      0.505061  
     649A      0.506322   650A      0.506484   651A      0.507331  
     652A      0.507812   653A      0.507879   654A      0.508668  
     655A      0.509779   656A      0.510217   657A      0.511951  
     658A      0.515184   659A      0.519236   660A      0.519808  
     661A      0.520140   662A      0.520343   663A      0.522253  
     664A      0.522608   665A      0.523180   666A      0.523237  
     667A      0.523291   668A      0.524484   669A      0.525216  
     670A      0.526198   671A      0.526678   672A      0.528884  
     673A      0.528988   674A      0.529472   675A      0.531990  
     676A      0.534358   677A      0.534492   678A      0.535821  
     679A      0.537427   680A      0.539363   681A      0.540317  
     682A      0.540846   683A      0.542285   684A      0.543072  
     685A      0.543571   686A      0.544525   687A      0.545278  
     688A      0.545481   689A      0.546809   690A      0.547825  
     691A      0.549539   692A      0.549718   693A      0.550183  
     694A      0.551770   695A      0.552778   696A      0.554424  
     697A      0.554845   698A      0.555709   699A      0.556732  
     700A      0.557958   701A      0.558961   702A      0.559616  
     703A      0.560125   704A      0.560385   705A      0.560954  
     706A      0.561660   707A      0.564140   708A      0.565355  
     709A      0.565961   710A      0.567345   711A      0.568967  
     712A      0.570283   713A      0.570964   714A      0.571399  
     715A      0.572215   716A      0.575204   717A      0.577041  
     718A      0.577763   719A      0.578825   720A      0.579034  
     721A      0.580337   722A      0.581539   723A      0.584653  
     724A      0.585985   725A      0.586540   726A      0.587458  
     727A      0.587602   728A      0.588084   729A      0.589480  
     730A      0.591305   731A      0.592050   732A      0.592660  
     733A      0.595656   734A      0.596310   735A      0.601510  
     736A      0.602186   737A      0.603703   738A      0.604249  
     739A      0.604918   740A      0.605555   741A      0.612712  
     742A      0.613873   743A      0.615553   744A      0.616104  
     745A      0.617465   746A      0.619188   747A      0.624585  
     748A      0.625430   749A      0.626193   750A      0.627694  
     751A      0.628679   752A      0.629542   753A      0.631158  
     754A      0.631989   755A      0.633533   756A      0.635119  
     757A      0.635753   758A      0.637185   759A      0.639393  
     760A      0.642074   761A      0.642969   762A      0.643190  
     763A      0.643787   764A      0.644093   765A      0.646839  
     766A      0.647770   767A      0.650209   768A      0.651241  
     769A      0.654889   770A      0.655389   771A      0.656685  
     772A      0.657250   773A      0.662286   774A      0.663350  
     775A      0.666820   776A      0.670850   777A      0.671180  
     778A      0.673287   779A      0.673899   780A      0.674039  
     781A      0.675252   782A      0.677068   783A      0.678808  
     784A      0.679401   785A      0.681719   786A      0.682524  
     787A      0.684244   788A      0.687235   789A      0.688099  
     790A      0.688572   791A      0.689949   792A      0.690569  
     793A      0.694846   794A      0.699279   795A      0.701105  
     796A      0.705420   797A      0.707488   798A      0.709274  
     799A      0.712042   800A      0.715955   801A      0.717173  
     802A      0.718929   803A      0.722826   804A      0.725528  
     805A      0.727668   806A      0.730273   807A      0.732629  
     808A      0.733614   809A      0.733942   810A      0.736396  
     811A      0.738707   812A      0.744320   813A      0.745421  
     814A      0.746618   815A      0.748972   816A      0.750870  
     817A      0.753208   818A      0.754453   819A      0.756081  
     820A      0.761267   821A      0.762951   822A      0.763108  
     823A      0.763714   824A      0.765855   825A      0.768543  
     826A      0.769220   827A      0.769779   828A      0.771583  
     829A      0.774005   830A      0.780865   831A      0.782929  
     832A      0.786122   833A      0.788628   834A      0.802734  
     835A      0.805217   836A      0.806831   837A      0.807451  
     838A      0.810221   839A      0.813980   840A      0.814560  
     841A      0.816715   842A      0.819049   843A      0.820444  
     844A      0.823165   845A      0.824638   846A      0.828010  
     847A      0.830269   848A      0.838449   849A      0.848853  
     850A      0.850232   851A      0.852958   852A      0.854311  
     853A      0.859853   854A      0.861317   855A      0.868245  
     856A      0.869611   857A      0.870339   858A      0.871881  
     859A      0.873016   860A      0.874966   861A      0.876153  
     862A      0.876863   863A      0.879173   864A      0.884293  
     865A      0.884886   866A      0.885739   867A      0.886719  
     868A      0.887682   869A      0.888001   870A      0.890096  
     871A      0.893745   872A      0.897664   873A      0.898538  
     874A      0.900586   875A      0.904730   876A      0.906182  
     877A      0.908196   878A      0.910507   879A      0.911763  
     880A      0.915977   881A      0.917247   882A      0.918330  
     883A      0.919420   884A      0.922980   885A      0.923632  
     886A      0.925137   887A      0.927475   888A      0.931214  
     889A      0.933214   890A      0.933909   891A      0.934694  
     892A      0.935909   893A      0.937147   894A      0.937317  
     895A      0.939086   896A      0.942570   897A      0.943644  
     898A      0.944000   899A      0.947452   900A      0.948499  
     901A      0.950484   902A      0.951553   903A      0.953276  
     904A      0.955114   905A      0.957962   906A      0.958485  
     907A      0.959499   908A      0.963592   909A      0.964734  
     910A      0.966469   911A      0.968043   912A      0.969698  
     913A      0.970807   914A      0.972077   915A      0.974336  
     916A      0.975833   917A      0.977101   918A      0.983217  
     919A      0.985782   920A      0.986333   921A      0.986981  
     922A      0.987916   923A      0.989409   924A      0.990333  
     925A      0.991316   926A      0.991623   927A      0.994036  
     928A      0.998405   929A      0.999912   930A      1.000667  
     931A      1.003793   932A      1.004706   933A      1.005124  
     934A      1.005556   935A      1.007172   936A      1.008963  
     937A      1.010974   938A      1.012719   939A      1.014668  
     940A      1.016257   941A      1.017557   942A      1.019148  
     943A      1.019743   944A      1.022416   945A      1.023057  
     946A      1.023614   947A      1.024112   948A      1.025707  
     949A      1.026620   950A      1.028774   951A      1.029747  
     952A      1.032225   953A      1.033518   954A      1.034085  
     955A      1.035272   956A      1.036238   957A      1.037483  
     958A      1.042197   959A      1.045509   960A      1.050370  
     961A      1.051818   962A      1.057370   963A      1.060358  
     964A      1.061648   965A      1.062726   966A      1.064203  
     967A      1.066207   968A      1.069009   969A      1.069151  
     970A      1.073138   971A      1.073659   972A      1.075879  
     973A      1.076050   974A      1.077195   975A      1.077581  
     976A      1.078182   977A      1.085715   978A      1.085925  
     979A      1.087209   980A      1.087768   981A      1.092516  
     982A      1.092995   983A      1.096372   984A      1.097527  
     985A      1.097904   986A      1.098808   987A      1.103786  
     988A      1.107901   989A      1.109919   990A      1.111248  
     991A      1.111486   992A      1.112554   993A      1.116585  
     994A      1.117193   995A      1.118696   996A      1.119950  
     997A      1.120552   998A      1.121142   999A      1.121789  
    1000A      1.123820  1001A      1.125183  1002A      1.126377  
    1003A      1.128624  1004A      1.131100  1005A      1.132558  
    1006A      1.134095  1007A      1.134575  1008A      1.135736  
    1009A      1.136154  1010A      1.136348  1011A      1.137215  
    1012A      1.141597  1013A      1.142771  1014A      1.143208  
    1015A      1.143580  1016A      1.144383  1017A      1.144532  
    1018A      1.145282  1019A      1.147258  1020A      1.147449  
    1021A      1.148797  1022A      1.149905  1023A      1.150636  
    1024A      1.152121  1025A      1.153266  1026A      1.153631  
    1027A      1.154297  1028A      1.154717  1029A      1.155480  
    1030A      1.155674  1031A      1.157314  1032A      1.157844  
    1033A      1.158149  1034A      1.158783  1035A      1.159899  
    1036A      1.160427  1037A      1.161365  1038A      1.162453  
    1039A      1.164386  1040A      1.165702  1041A      1.166172  
    1042A      1.169249  1043A      1.171280  1044A      1.172830  
    1045A      1.174105  1046A      1.174658  1047A      1.176847  
    1048A      1.178003  1049A      1.178643  1050A      1.179877  
    1051A      1.180315  1052A      1.184184  1053A      1.185164  
    1054A      1.186261  1055A      1.187460  1056A      1.188774  
    1057A      1.190964  1058A      1.192960  1059A      1.193417  
    1060A      1.196234  1061A      1.198758  1062A      1.201101  
    1063A      1.203887  1064A      1.205186  1065A      1.206680  
    1066A      1.208822  1067A      1.210161  1068A      1.211201  
    1069A      1.213477  1070A      1.214411  1071A      1.217997  
    1072A      1.219981  1073A      1.222537  1074A      1.222795  
    1075A      1.224420  1076A      1.225413  1077A      1.228376  
    1078A      1.229753  1079A      1.230415  1080A      1.231955  
    1081A      1.232570  1082A      1.233784  1083A      1.235711  
    1084A      1.237266  1085A      1.237893  1086A      1.243824  
    1087A      1.244137  1088A      1.245356  1089A      1.247871  
    1090A      1.248907  1091A      1.251054  1092A      1.255753  
    1093A      1.256286  1094A      1.258780  1095A      1.261124  
    1096A      1.261388  1097A      1.262579  1098A      1.262863  
    1099A      1.267271  1100A      1.269344  1101A      1.276692  
    1102A      1.277298  1103A      1.278492  1104A      1.279685  
    1105A      1.280580  1106A      1.281162  1107A      1.282328  
    1108A      1.285775  1109A      1.286190  1110A      1.287882  
    1111A      1.288569  1112A      1.290916  1113A      1.291783  
    1114A      1.292515  1115A      1.294590  1116A      1.298354  
    1117A      1.299906  1118A      1.302990  1119A      1.309234  
    1120A      1.319557  1121A      1.321065  1122A      1.321350  
    1123A      1.323556  1124A      1.325084  1125A      1.325436  
    1126A      1.331748  1127A      1.334599  1128A      1.335689  
    1129A      1.337630  1130A      1.338341  1131A      1.339360  
    1132A      1.340333  1133A      1.341856  1134A      1.343734  
    1135A      1.347764  1136A      1.350995  1137A      1.353327  
    1138A      1.354555  1139A      1.356390  1140A      1.358743  
    1141A      1.363036  1142A      1.365075  1143A      1.366631  
    1144A      1.369460  1145A      1.369886  1146A      1.372103  
    1147A      1.373166  1148A      1.375924  1149A      1.376136  
    1150A      1.379106  1151A      1.384428  1152A      1.385676  
    1153A      1.387114  1154A      1.387565  1155A      1.388855  
    1156A      1.391613  1157A      1.394239  1158A      1.395156  
    1159A      1.395516  1160A      1.399050  1161A      1.400689  
    1162A      1.401145  1163A      1.401690  1164A      1.402083  
    1165A      1.405095  1166A      1.406317  1167A      1.408099  
    1168A      1.411351  1169A      1.412203  1170A      1.413859  
    1171A      1.413998  1172A      1.424769  1173A      1.427197  
    1174A      1.430074  1175A      1.432307  1176A      1.432995  
    1177A      1.434159  1178A      1.434774  1179A      1.435331  
    1180A      1.437381  1181A      1.438566  1182A      1.439629  
    1183A      1.444497  1184A      1.445913  1185A      1.450819  
    1186A      1.451180  1187A      1.456163  1188A      1.456522  
    1189A      1.458376  1190A      1.460134  1191A      1.461664  
    1192A      1.463484  1193A      1.464404  1194A      1.465277  
    1195A      1.465728  1196A      1.477118  1197A      1.477680  
    1198A      1.478679  1199A      1.481263  1200A      1.481995  
    1201A      1.482098  1202A      1.482921  1203A      1.483664  
    1204A      1.488272  1205A      1.489540  1206A      1.493952  
    1207A      1.495107  1208A      1.495840  1209A      1.498246  
    1210A      1.503553  1211A      1.504560  1212A      1.505091  
    1213A      1.505291  1214A      1.505941  1215A      1.507013  
    1216A      1.509777  1217A      1.511615  1218A      1.513745  
    1219A      1.516664  1220A      1.517202  1221A      1.518516  
    1222A      1.522314  1223A      1.525250  1224A      1.526319  
    1225A      1.531989  1226A      1.533112  1227A      1.535723  
    1228A      1.536999  1229A      1.540812  1230A      1.542451  
    1231A      1.545548  1232A      1.547346  1233A      1.548954  
    1234A      1.550801  1235A      1.554929  1236A      1.558447  
    1237A      1.559128  1238A      1.561145  1239A      1.563018  
    1240A      1.566423  1241A      1.572007  1242A      1.572808  
    1243A      1.574384  1244A      1.574553  1245A      1.575963  
    1246A      1.586257  1247A      1.592484  1248A      1.594945  
    1249A      1.612162  1250A      1.613332  1251A      1.613731  
    1252A      1.615201  1253A      1.622235  1254A      1.623359  
    1255A      1.647098  1256A      1.651720  1257A      1.661336  
    1258A      1.672052  1259A      1.672990  1260A      1.676552  
    1261A      1.678451  1262A      1.681605  1263A      1.681868  
    1264A      1.683725  1265A      1.684943  1266A      1.685325  
    1267A      1.688376  1268A      1.690081  1269A      1.690826  
    1270A      1.692368  1271A      1.693235  1272A      1.693781  
    1273A      1.694966  1274A      1.696044  1275A      1.698793  
    1276A      1.700320  1277A      1.701411  1278A      1.702376  
    1279A      1.704082  1280A      1.705624  1281A      1.706066  
    1282A      1.707513  1283A      1.709516  1284A      1.713322  
    1285A      1.713990  1286A      1.715745  1287A      1.716554  
    1288A      1.717084  1289A      1.720826  1290A      1.720900  
    1291A      1.722370  1292A      1.723320  1293A      1.724133  
    1294A      1.726424  1295A      1.728745  1296A      1.728887  
    1297A      1.729192  1298A      1.730173  1299A      1.733488  
    1300A      1.739452  1301A      1.740043  1302A      1.740547  
    1303A      1.743017  1304A      1.744730  1305A      1.745546  
    1306A      1.746557  1307A      1.749621  1308A      1.753246  
    1309A      1.755352  1310A      1.756773  1311A      1.758276  
    1312A      1.758547  1313A      1.761553  1314A      1.765055  
    1315A      1.766979  1316A      1.767179  1317A      1.768513  
    1318A      1.771798  1319A      1.773828  1320A      1.775349  
    1321A      1.780370  1322A      1.781746  1323A      1.784299  
    1324A      1.786832  1325A      1.787213  1326A      1.789200  
    1327A      1.789707  1328A      1.795719  1329A      1.796935  
    1330A      1.801311  1331A      1.801811  1332A      1.802188  
    1333A      1.810448  1334A      1.814436  1335A      1.816959  
    1336A      1.820996  1337A      1.821864  1338A      1.823807  
    1339A      1.825073  1340A      1.826143  1341A      1.835532  
    1342A      1.840799  1343A      1.843546  1344A      1.849273  
    1345A      1.853801  1346A      1.856068  1347A      1.857242  
    1348A      1.859343  1349A      1.867959  1350A      1.878825  
    1351A      1.884739  1352A      1.890846  1353A      1.896415  
    1354A      1.897997  1355A      1.900411  1356A      1.901744  
    1357A      1.903817  1358A      1.905433  1359A      1.905666  
    1360A      1.906098  1361A      1.907520  1362A      1.908205  
    1363A      1.911641  1364A      1.918322  1365A      1.919729  
    1366A      1.922299  1367A      1.925575  1368A      1.927148  
    1369A      1.928268  1370A      1.934201  1371A      1.936105  
    1372A      1.937307  1373A      1.938101  1374A      1.938764  
    1375A      1.943321  1376A      1.945663  1377A      1.946114  
    1378A      1.946811  1379A      1.947768  1380A      1.947983  
    1381A      1.949749  1382A      1.951645  1383A      1.951933  
    1384A      1.955022  1385A      1.957096  1386A      1.959037  
    1387A      1.961030  1388A      1.964104  1389A      1.965146  
    1390A      1.965387  1391A      1.968912  1392A      1.974790  
    1393A      1.977561  1394A      1.981185  1395A      1.981933  
    1396A      1.982609  1397A      1.988535  1398A      1.990261  
    1399A      1.992001  1400A      1.994968  1401A      1.999181  
    1402A      1.999826  1403A      2.004617  1404A      2.004845  
    1405A      2.005956  1406A      2.007119  1407A      2.009239  
    1408A      2.010537  1409A      2.012870  1410A      2.014003  
    1411A      2.016139  1412A      2.018915  1413A      2.020013  
    1414A      2.021201  1415A      2.021729  1416A      2.022291  
    1417A      2.025330  1418A      2.030229  1419A      2.031751  
    1420A      2.032384  1421A      2.035562  1422A      2.038182  
    1423A      2.039050  1424A      2.041510  1425A      2.042573  
    1426A      2.045953  1427A      2.047638  1428A      2.048728  
    1429A      2.051403  1430A      2.053688  1431A      2.055219  
    1432A      2.057692  1433A      2.059299  1434A      2.060487  
    1435A      2.063957  1436A      2.065983  1437A      2.067905  
    1438A      2.070054  1439A      2.073561  1440A      2.075149  
    1441A      2.077515  1442A      2.080584  1443A      2.082945  
    1444A      2.084102  1445A      2.089019  1446A      2.090815  
    1447A      2.091632  1448A      2.093556  1449A      2.095022  
    1450A      2.096772  1451A      2.097303  1452A      2.098713  
    1453A      2.099782  1454A      2.102277  1455A      2.104836  
    1456A      2.107183  1457A      2.108727  1458A      2.110000  
    1459A      2.110598  1460A      2.112035  1461A      2.114382  
    1462A      2.116693  1463A      2.119390  1464A      2.122636  
    1465A      2.125363  1466A      2.128271  1467A      2.129857  
    1468A      2.131346  1469A      2.132828  1470A      2.133890  
    1471A      2.136107  1472A      2.137785  1473A      2.140666  
    1474A      2.142498  1475A      2.144215  1476A      2.144884  
    1477A      2.148474  1478A      2.151550  1479A      2.152491  
    1480A      2.153641  1481A      2.154988  1482A      2.157030  
    1483A      2.157703  1484A      2.158894  1485A      2.159318  
    1486A      2.159913  1487A      2.160611  1488A      2.161877  
    1489A      2.162168  1490A      2.162639  1491A      2.163948  
    1492A      2.165612  1493A      2.166352  1494A      2.167381  
    1495A      2.170455  1496A      2.172115  1497A      2.174134  
    1498A      2.175275  1499A      2.176556  1500A      2.179136  
    1501A      2.179637  1502A      2.181355  1503A      2.182639  
    1504A      2.183987  1505A      2.184248  1506A      2.186609  
    1507A      2.188869  1508A      2.189551  1509A      2.189853  
    1510A      2.190488  1511A      2.192308  1512A      2.193273  
    1513A      2.197697  1514A      2.198705  1515A      2.199757  
    1516A      2.200813  1517A      2.201770  1518A      2.202941  
    1519A      2.204810  1520A      2.206087  1521A      2.210049  
    1522A      2.211082  1523A      2.212641  1524A      2.215004  
    1525A      2.215517  1526A      2.217407  1527A      2.220340  
    1528A      2.223680  1529A      2.225475  1530A      2.229277  
    1531A      2.230941  1532A      2.233625  1533A      2.234153  
    1534A      2.235782  1535A      2.236111  1536A      2.238588  
    1537A      2.240336  1538A      2.241305  1539A      2.243496  
    1540A      2.245256  1541A      2.248516  1542A      2.249076  
    1543A      2.250201  1544A      2.253491  1545A      2.255338  
    1546A      2.256497  1547A      2.257513  1548A      2.260196  
    1549A      2.264871  1550A      2.266764  1551A      2.267677  
    1552A      2.269808  1553A      2.272985  1554A      2.273640  
    1555A      2.274105  1556A      2.274800  1557A      2.277399  
    1558A      2.278334  1559A      2.278830  1560A      2.283853  
    1561A      2.285937  1562A      2.287671  1563A      2.288146  
    1564A      2.291745  1565A      2.294011  1566A      2.296060  
    1567A      2.296427  1568A      2.297634  1569A      2.299987  
    1570A      2.302446  1571A      2.303415  1572A      2.304802  
    1573A      2.305200  1574A      2.305910  1575A      2.306564  
    1576A      2.310952  1577A      2.312588  1578A      2.317260  
    1579A      2.319861  1580A      2.320519  1581A      2.325482  
    1582A      2.329766  1583A      2.331781  1584A      2.333698  
    1585A      2.339284  1586A      2.341509  1587A      2.343746  
    1588A      2.346804  1589A      2.350064  1590A      2.354596  
    1591A      2.356952  1592A      2.358899  1593A      2.360341  
    1594A      2.363234  1595A      2.364076  1596A      2.366505  
    1597A      2.369481  1598A      2.373613  1599A      2.377268  
    1600A      2.380565  1601A      2.386128  1602A      2.387300  
    1603A      2.391867  1604A      2.395309  1605A      2.399112  
    1606A      2.400343  1607A      2.401855  1608A      2.402742  
    1609A      2.404169  1610A      2.406981  1611A      2.407938  
    1612A      2.410940  1613A      2.412862  1614A      2.414597  
    1615A      2.415032  1616A      2.417018  1617A      2.419248  
    1618A      2.419770  1619A      2.422842  1620A      2.425720  
    1621A      2.429937  1622A      2.430893  1623A      2.437028  
    1624A      2.445840  1625A      2.456922  1626A      2.462011  
    1627A      2.463080  1628A      2.466267  1629A      2.469003  
    1630A      2.473908  1631A      2.477745  1632A      2.488320  
    1633A      2.491699  1634A      2.497039  1635A      2.500632  
    1636A      2.502705  1637A      2.506524  1638A      2.521512  
    1639A      2.524724  1640A      2.525313  1641A      2.534606  
    1642A      2.537253  1643A      2.538042  1644A      2.541371  
    1645A      2.541713  1646A      2.544722  1647A      2.544851  
    1648A      2.555091  1649A      2.562123  1650A      2.563223  
    1651A      2.573472  1652A      2.575383  1653A      2.581376  
    1654A      2.582795  1655A      2.584578  1656A      2.591380  
    1657A      2.600075  1658A      2.611122  1659A      2.614334  
    1660A      2.615571  1661A      2.616341  1662A      2.617377  
    1663A      2.620918  1664A      2.621769  1665A      2.626420  
    1666A      2.628756  1667A      2.632027  1668A      2.638161  
    1669A      2.639129  1670A      2.642248  1671A      2.643369  
    1672A      2.644459  1673A      2.647100  1674A      2.653693  
    1675A      2.654574  1676A      2.656776  1677A      2.657183  
    1678A      2.658509  1679A      2.662419  1680A      2.662703  
    1681A      2.663670  1682A      2.666778  1683A      2.675052  
    1684A      2.680329  1685A      2.684859  1686A      2.686325  
    1687A      2.686701  1688A      2.688514  1689A      2.690081  
    1690A      2.696172  1691A      2.701132  1692A      2.709492  
    1693A      2.716868  1694A      2.720104  1695A      2.720830  
    1696A      2.722218  1697A      2.723890  1698A      2.725884  
    1699A      2.726643  1700A      2.729442  1701A      2.730938  
    1702A      2.734974  1703A      2.737215  1704A      2.741972  
    1705A      2.742364  1706A      2.744151  1707A      2.749549  
    1708A      2.751181  1709A      2.751844  1710A      2.760202  
    1711A      2.762520  1712A      2.764210  1713A      2.765577  
    1714A      2.766214  1715A      2.769365  1716A      2.770065  
    1717A      2.773505  1718A      2.775740  1719A      2.790734  
    1720A      2.793512  1721A      2.797294  1722A      2.799325  
    1723A      2.802819  1724A      2.803657  1725A      2.807204  
    1726A      2.809067  1727A      2.813848  1728A      2.846045  
    1729A      2.851845  1730A      2.853881  1731A      2.858324  
    1732A      2.861212  1733A      2.866113  1734A      2.873431  
    1735A      2.877601  1736A      2.878251  1737A      2.878883  
    1738A      2.879248  1739A      2.888326  1740A      2.891089  
    1741A      2.891378  1742A      2.892938  1743A      2.895880  
    1744A      2.899906  1745A      2.905923  1746A      2.909317  
    1747A      2.915984  1748A      2.917014  1749A      2.918954  
    1750A      2.924240  1751A      2.931550  1752A      2.941002  
    1753A      2.942013  1754A      2.944799  1755A      2.948196  
    1756A      2.951084  1757A      2.954184  1758A      2.972405  
    1759A      2.974119  1760A      2.978790  1761A      2.988454  
    1762A      2.989179  1763A      2.998768  1764A      3.002293  
    1765A      3.004401  1766A      3.006575  1767A      3.024933  
    1768A      3.036789  1769A      3.038127  1770A      3.038893  
    1771A      3.048658  1772A      3.064129  1773A      3.071756  
    1774A      3.099712  1775A      3.110822  1776A      3.111174  
    1777A      3.116108  1778A      3.121680  1779A      3.126125  
    1780A      3.132849  1781A      3.133632  1782A      3.134193  
    1783A      3.136173  1784A      3.148213  1785A      3.164471  
    1786A      3.182692  1787A      3.184015  1788A      3.188138  
    1789A      3.199333  1790A      3.203615  1791A      3.203647  
    1792A      3.213100  1793A      3.214119  1794A      3.215761  
    1795A      3.216746  1796A      3.217582  1797A      3.221936  
    1798A      3.225948  1799A      3.229083  1800A      3.232854  
    1801A      3.243245  1802A      3.244881  1803A      3.246696  
    1804A      3.250659  1805A      3.254119  1806A      3.265633  
    1807A      3.271184  1808A      3.291966  1809A      3.333932  
    1810A      3.335293  1811A      3.335975  1812A      3.336300  
    1813A      3.337101  1814A      3.339883  1815A      3.347773  
    1816A      3.349391  1817A      3.351008  1818A      3.354554  
    1819A      3.372470  1820A      3.374383  1821A      3.383061  
    1822A      3.386280  1823A      3.437356  1824A      3.439268  
    1825A      3.453940  1826A      3.478897  1827A      3.498692  
    1828A      3.505703  1829A      3.534547  1830A      3.538668  
    1831A      3.542678  1832A      3.545795  1833A      3.550989  
    1834A      3.554114  1835A      3.556034  1836A      3.564148  
    1837A      3.571628  1838A      3.584852  1839A      3.587177  
    1840A      3.592410  1841A      3.626572  1842A      3.629700  
    1843A      3.653069  1844A      3.658462  1845A      3.666618  
    1846A      3.674724  1847A      3.695921  1848A      3.732696  
    1849A      3.732991  1850A      3.747100  1851A      3.763120  
    1852A      3.782603  1853A      3.813881  1854A      3.834513  
    1855A      3.837352  1856A      3.852008  1857A      3.852363  
    1858A      3.881006  1859A      3.920360  1860A      3.921852  
    1861A      3.949855  1862A      3.957583  1863A      3.995427  
    1864A      3.999080  1865A      4.006524  1866A      4.021500  
    1867A      4.023701  1868A      4.044966  1869A      4.051257  
    1870A      4.061761  1871A      4.095867  1872A      4.099541  
    1873A      4.105743  1874A      4.112649  1875A      4.126577  
    1876A      4.141418  1877A      4.157526  1878A      4.179930  
    1879A      4.197291  1880A      4.228529  1881A      4.239975  
    1882A      4.253776  1883A      4.264789  1884A      4.330005  
    1885A      4.352259  1886A      4.416005  1887A      4.422030  
    1888A      4.434536  1889A      4.492652  1890A      4.532946  
    1891A      4.547366  1892A      4.601049  1893A      4.625504  
    1894A      4.659750  1895A      4.686950  1896A      4.693839  
    1897A      4.734421  1898A      4.896373  

    Final Occupation by Irrep:
              A 
    DOCC [   321 ]
    NA   [   321 ]
    NB   [   321 ]

  @DF-RHF Final Energy: -4072.78296120025152

   => Energetics <=

    Nuclear Repulsion Energy =          17992.9034649720269954
    One-Electron Energy =              -41473.9733784382406157
    Two-Electron Energy =               19408.2869522659639188
    Total Energy =                      -4072.7829612002497015

Computation Completed


Properties will be evaluated at   0.000000,   0.000000,   0.000000 [a0]

Properties computed using the SCF density matrix


 Multipole Moments:

 ------------------------------------------------------------------------------------
     Multipole            Electronic (a.u.)      Nuclear  (a.u.)        Total (a.u.)
 ------------------------------------------------------------------------------------

 L = 1.  Multiply by 2.5417464519 to convert [e a0] to [Debye]
 Dipole X            :          0.0017682           -0.0001188            0.0016494
 Dipole Y            :         -0.0016202           -0.0002727           -0.0018929
 Dipole Z            :         12.6145174          -14.2831277           -1.6686103
 Magnitude           :                                                    1.6686122

 ------------------------------------------------------------------------------------

*** tstop() called on n2cn0754 at Sat Jan 27 15:56:07 2024
Module time:
	user time   =   26884.36 seconds =     448.07 minutes
	system time =    1707.60 seconds =      28.46 minutes
	total time  =      16232 seconds =     270.53 minutes
Total time:
	user time   =   26884.36 seconds =     448.07 minutes
	system time =    1707.60 seconds =      28.46 minutes
	total time  =      16232 seconds =     270.53 minutes

  //>>>>>>>>>>>>>>>>>>>>>>>>>>>>>>>>>>>//
  //            Monomer A HF           //
  //<<<<<<<<<<<<<<<<<<<<<<<<<<<<<<<<<<<//

   => Libint2 <=

    Primary   basis highest AM E, G, H:  5, 4, 3
    Auxiliary basis highest AM E, G, H:  6, 5, 4
    Onebody   basis highest AM E, G, H:  6, 5, 4
    Solid Harmonics ordering:            gaussian

*** tstart() called on n2cn0754
*** at Sat Jan 27 15:56:07 2024

   => Loading Basis Set <=

    Name: JUN-CC-PVDZ
    Role: ORBITAL
    Keyword: BASIS
    atoms 1                                                   entry B          line   130 file /opt/software/pc2/EB-SW/software/PSI4/1.9-foss-2022a/share/psi4/basis/jun-cc-pvdz.gbs 
    atoms 2-5                                                 entry F          line   266 file /opt/software/pc2/EB-SW/software/PSI4/1.9-foss-2022a/share/psi4/basis/jun-cc-pvdz.gbs 
    atoms 6-23, 30-42, 45-59, 62-78, 81-93, 98-108, 111-119   entry C          line   164 file /opt/software/pc2/EB-SW/software/PSI4/1.9-foss-2022a/share/psi4/basis/jun-cc-pvdz.gbs 
    atoms 24-29, 43-44, 60-61, 79-80, 94-97, 109-110, 120-125 entry H          line    36 file /opt/software/pc2/EB-SW/software/PSI4/1.9-foss-2022a/share/psi4/basis/jun-cc-pvdz.gbs 


         ---------------------------------------------------------
                                   SCF
               by Justin Turney, Rob Parrish, Andy Simmonett
                          and Daniel G. A. Smith
                              RHF Reference
                       16 Threads,  61035 MiB Core
         ---------------------------------------------------------

  ==> Geometry <==

    Molecular point group: c1
    Full point group: C1

    Geometry (in Angstrom), charge = -1, multiplicity = 1:

       Center              X                  Y                   Z               Mass       
    ------------   -----------------  -----------------  -----------------  -----------------
         B           -0.000050191042     0.000351518223     2.234689649615    11.009305360000
         F           -1.153601191042     0.000062518223     3.050336649615    18.998403162730
         F            1.153656808958    -0.000566481777     3.050336649615    18.998403162730
         F           -0.000023191042    -1.153622481777     1.419055649615    18.998403162730
         F           -0.000023191042     1.153992518223     1.419055649615    18.998403162730
      Gh(C)          -3.668445455062     7.803766688305    -0.163404309049    12.000000000000
      Gh(C)          -4.847602910388     7.131256349563    -0.165770883982    12.000000000000
      Gh(C)          -4.894963490217     5.696344921754    -0.166343795080    12.000000000000
      Gh(C)          -3.653744869815     4.980744859182    -0.158683353351    12.000000000000
      Gh(C)          -2.409429312536     7.113995554897    -0.163209966789    12.000000000000
      Gh(C)          -2.425481535146     5.681136469126    -0.170214855659    12.000000000000
      Gh(C)          -1.194748207477     7.786158712532    -0.161737786247    12.000000000000
      Gh(C)           0.037954837895     7.099436163980    -0.163908490552    12.000000000000
      Gh(C)           0.030328396378     5.669504077927    -0.169391875468    12.000000000000
      Gh(C)          -1.200988698947     4.969284866138    -0.160422141535    12.000000000000
      Gh(C)           1.277953634773     7.772873961417    -0.162532641992    12.000000000000
      Gh(C)           2.485353893683     7.087711403460    -0.164807129896    12.000000000000
      Gh(C)           2.486124493876     5.654785328463    -0.171744878884    12.000000000000
      Gh(C)           1.254078728602     4.956092631887    -0.160116937296    12.000000000000
      Gh(C)           3.751710400364     7.763926669203    -0.164680278516    12.000000000000
      Gh(C)           4.923561865144     7.078795295213    -0.166736759224    12.000000000000
      Gh(C)           4.955603080284     5.643461981592    -0.166897172031    12.000000000000
      Gh(C)           3.706797343163     4.941224726556    -0.161805611861    12.000000000000
      Gh(H)          -3.658525328800     8.890841937358    -0.161719320799     1.007825032230
      Gh(H)          -1.189217520798     8.874135605583    -0.157765909806     1.007825032230
      Gh(H)           1.284290047845     8.860847953711    -0.158373817851     1.007825032230
      Gh(H)           3.753537895758     8.851049797195    -0.163157754200     1.007825032230
      Gh(H)           5.869954512165     7.613809352878    -0.167662126266     1.007825032230
      Gh(H)          -5.788235898544     7.676316731157    -0.167330731338     1.007825032230
[...]
    1525A      2.174577  1526A      2.178730  1527A      2.179919  
    1528A      2.180809  1529A      2.182644  1530A      2.182861  
    1531A      2.184401  1532A      2.188906  1533A      2.189457  
    1534A      2.195505  1535A      2.196116  1536A      2.197086  
    1537A      2.198730  1538A      2.200601  1539A      2.201828  
    1540A      2.204751  1541A      2.205132  1542A      2.207159  
    1543A      2.208944  1544A      2.210966  1545A      2.213426  
    1546A      2.216029  1547A      2.220225  1548A      2.221632  
    1549A      2.222548  1550A      2.225428  1551A      2.227149  
    1552A      2.228940  1553A      2.229837  1554A      2.232096  
    1555A      2.232446  1556A      2.232768  1557A      2.234795  
    1558A      2.236763  1559A      2.237279  1560A      2.241705  
    1561A      2.242718  1562A      2.248715  1563A      2.249334  
    1564A      2.254587  1565A      2.257902  1566A      2.263345  
    1567A      2.266627  1568A      2.269367  1569A      2.272261  
    1570A      2.273709  1571A      2.275336  1572A      2.277470  
    1573A      2.281253  1574A      2.283538  1575A      2.284674  
    1576A      2.291158  1577A      2.292923  1578A      2.297423  
    1579A      2.297476  1580A      2.301716  1581A      2.303076  
    1582A      2.308555  1583A      2.309795  1584A      2.313887  
    1585A      2.318035  1586A      2.325691  1587A      2.328017  
    1588A      2.329364  1589A      2.329938  1590A      2.331127  
    1591A      2.331720  1592A      2.334183  1593A      2.335658  
    1594A      2.338853  1595A      2.341489  1596A      2.342646  
    1597A      2.342753  1598A      2.344885  1599A      2.345288  
    1600A      2.346401  1601A      2.347631  1602A      2.349480  
    1603A      2.355730  1604A      2.356875  1605A      2.358904  
    1606A      2.374833  1607A      2.383456  1608A      2.385931  
    1609A      2.388831  1610A      2.391426  1611A      2.396063  
    1612A      2.405176  1613A      2.411728  1614A      2.415378  
    1615A      2.419246  1616A      2.423357  1617A      2.426977  
    1618A      2.429638  1619A      2.431421  1620A      2.440544  
    1621A      2.446605  1622A      2.451085  1623A      2.454222  
    1624A      2.464426  1625A      2.466197  1626A      2.467264  
    1627A      2.469709  1628A      2.472156  1629A      2.474174  
    1630A      2.474948  1631A      2.492537  1632A      2.493487  
    1633A      2.498297  1634A      2.507005  1635A      2.508970  
    1636A      2.512925  1637A      2.514615  1638A      2.518619  
    1639A      2.524495  1640A      2.541329  1641A      2.542557  
    1642A      2.542783  1643A      2.544878  1644A      2.547459  
    1645A      2.550658  1646A      2.551036  1647A      2.555009  
    1648A      2.556772  1649A      2.558124  1650A      2.561480  
    1651A      2.564402  1652A      2.571297  1653A      2.571759  
    1654A      2.574207  1655A      2.585530  1656A      2.585674  
    1657A      2.586192  1658A      2.586703  1659A      2.588955  
    1660A      2.590043  1661A      2.593324  1662A      2.594456  
    1663A      2.595406  1664A      2.602634  1665A      2.603625  
    1666A      2.614375  1667A      2.614527  1668A      2.615445  
    1669A      2.616681  1670A      2.617861  1671A      2.623443  
    1672A      2.636195  1673A      2.643935  1674A      2.644317  
    1675A      2.647890  1676A      2.649890  1677A      2.651208  
    1678A      2.652144  1679A      2.654079  1680A      2.654753  
    1681A      2.656973  1682A      2.659377  1683A      2.666374  
    1684A      2.670600  1685A      2.671837  1686A      2.672145  
    1687A      2.673258  1688A      2.675716  1689A      2.681332  
    1690A      2.682306  1691A      2.688118  1692A      2.689647  
    1693A      2.691988  1694A      2.692140  1695A      2.694121  
    1696A      2.694831  1697A      2.696332  1698A      2.699484  
    1699A      2.704842  1700A      2.715422  1701A      2.722137  
    1702A      2.727976  1703A      2.731462  1704A      2.731675  
    1705A      2.732993  1706A      2.735878  1707A      2.748590  
    1708A      2.770484  1709A      2.774695  1710A      2.783166  
    1711A      2.784513  1712A      2.791184  1713A      2.794311  
    1714A      2.800137  1715A      2.801091  1716A      2.802332  
    1717A      2.802695  1718A      2.808189  1719A      2.815023  
    1720A      2.816475  1721A      2.817530  1722A      2.818747  
    1723A      2.822665  1724A      2.824552  1725A      2.827330  
    1726A      2.830396  1727A      2.842891  1728A      2.845118  
    1729A      2.849130  1730A      2.849371  1731A      2.850844  
    1732A      2.861378  1733A      2.865951  1734A      2.867081  
    1735A      2.871358  1736A      2.875882  1737A      2.877502  
    1738A      2.896036  1739A      2.896236  1740A      2.911819  
    1741A      2.918418  1742A      2.918843  1743A      2.920150  
    1744A      2.928978  1745A      2.931841  1746A      2.936491  
    1747A      2.940413  1748A      2.965872  1749A      2.967224  
    1750A      2.969166  1751A      2.972397  1752A      2.976629  
    1753A      2.992741  1754A      3.002684  1755A      3.029740  
    1756A      3.035023  1757A      3.041730  1758A      3.045818  
    1759A      3.048432  1760A      3.056817  1761A      3.057769  
    1762A      3.058249  1763A      3.059860  1764A      3.068757  
    1765A      3.074068  1766A      3.108962  1767A      3.111955  
    1768A      3.113876  1769A      3.125521  1770A      3.130343  
    1771A      3.131145  1772A      3.140408  1773A      3.141393  
    1774A      3.143056  1775A      3.143899  1776A      3.149450  
    1777A      3.150152  1778A      3.153144  1779A      3.154602  
    1780A      3.155476  1781A      3.162250  1782A      3.169457  
    1783A      3.173287  1784A      3.179373  1785A      3.182260  
    1786A      3.184644  1787A      3.193926  1788A      3.214389  
    1789A      3.223968  1790A      3.258085  1791A      3.262706  
    1792A      3.263306  1793A      3.264985  1794A      3.266363  
    1795A      3.268445  1796A      3.272146  1797A      3.276642  
    1798A      3.276971  1799A      3.280945  1800A      3.292087  
    1801A      3.298993  1802A      3.314258  1803A      3.316351  
    1804A      3.344082  1805A      3.363609  1806A      3.368013  
    1807A      3.401284  1808A      3.421850  1809A      3.456807  
    1810A      3.459631  1811A      3.461452  1812A      3.469672  
    1813A      3.473382  1814A      3.476720  1815A      3.479313  
    1816A      3.480812  1817A      3.488103  1818A      3.491203  
    1819A      3.513882  1820A      3.517339  1821A      3.538656  
    1822A      3.557244  1823A      3.578322  1824A      3.582906  
    1825A      3.588459  1826A      3.593145  1827A      3.652145  
    1828A      3.661101  1829A      3.671753  1830A      3.678086  
    1831A      3.703041  1832A      3.732516  1833A      3.762035  
    1834A      3.764466  1835A      3.775242  1836A      3.779071  
    1837A      3.790569  1838A      3.848672  1839A      3.849732  
    1840A      3.875055  1841A      3.879599  1842A      3.922314  
    1843A      3.924823  1844A      3.948059  1845A      3.949868  
    1846A      3.960192  1847A      3.971909  1848A      3.975370  
    1849A      3.995734  1850A      4.024216  1851A      4.027769  
    1852A      4.069056  1853A      4.111112  1854A      4.259441  
    1855A      4.390172  1856A      4.437926  1857A      4.457222  
    1858A      4.540869  1859A      4.710934  1860A      4.886938  
    1861A      4.928940  1862A      5.768167  1863A      5.781625  
    1864A      5.800288  1865A      5.831595  1866A      5.834654  
    1867A      5.845079  1868A      5.882252  1869A      5.938242  
    1870A      5.949178  1871A      6.001529  1872A      6.013208  
    1873A      6.072864  1874A      6.128729  1875A      6.242301  
    1876A      6.243604  1877A      6.351272  1878A      6.366730  
    1879A      6.422553  1880A      6.425989  1881A      6.435318  
    1882A      7.381980  1883A      7.403726  1884A      7.454089  
    1885A      7.483333  1886A      7.682927  1887A      7.700803  
    1888A      7.729048  1889A      7.791548  1890A      7.838216  
    1891A      7.961730  1892A      8.198518  1893A      8.249992  
    1894A     13.116468  1895A     42.957940  1896A     42.983910  
    1897A     43.006358  1898A     43.011708  

    Final Occupation by Irrep:
              A 
    DOCC [   300 ]
    NA   [   300 ]
    NB   [   300 ]

  @DF-RHF Final Energy: -3650.34106346850604

   => Energetics <=

    Nuclear Repulsion Energy =          15611.4211649754324753
    One-Electron Energy =              -36072.1676203222305048
    Two-Electron Energy =               16810.4053918782919936
    Total Energy =                      -3650.3410634685060359

Computation Completed


Properties will be evaluated at   0.000000,   0.000000,   0.000000 [a0]

Properties computed using the SCF density matrix


 Multipole Moments:

 ------------------------------------------------------------------------------------
     Multipole            Electronic (a.u.)      Nuclear  (a.u.)        Total (a.u.)
 ------------------------------------------------------------------------------------

 L = 1.  Multiply by 2.5417464519 to convert [e a0] to [Debye]
 Dipole X            :          0.0002096            0.0001983            0.0004079
 Dipole Y            :          0.0010699           -0.0013163           -0.0002464
 Dipole Z            :        187.4274470         -187.4245778            0.0028692
 Magnitude           :                                                    0.0029085

 ------------------------------------------------------------------------------------

*** tstop() called on n2cn0754 at Sat Jan 27 18:52:37 2024
Module time:
	user time   =   17659.23 seconds =     294.32 minutes
	system time =    1164.09 seconds =      19.40 minutes
	total time  =       6579 seconds =     109.65 minutes
Total time:
	user time   =   48913.52 seconds =     815.23 minutes
	system time =    3197.40 seconds =      53.29 minutes
	total time  =      26822 seconds =     447.03 minutes
  Constructing Basis Sets for SAPT...

   => Loading Basis Set <=

    Name: (JUN-CC-PVDZ AUX)
    Role: RIFIT
    Keyword: DF_BASIS_SAPT
    atoms 1                                                   entry B          line    56 file /opt/software/pc2/EB-SW/software/PSI4/1.9-foss-2022a/share/psi4/basis/jun-cc-pvdz-ri.gbs 
    atoms 2-5                                                 entry F          line   232 file /opt/software/pc2/EB-SW/software/PSI4/1.9-foss-2022a/share/psi4/basis/jun-cc-pvdz-ri.gbs 
    atoms 6-23, 30-42, 45-59, 62-78, 81-93, 98-108, 111-119   entry C          line   100 file /opt/software/pc2/EB-SW/software/PSI4/1.9-foss-2022a/share/psi4/basis/jun-cc-pvdz-ri.gbs 
    atoms 24-29, 43-44, 60-61, 79-80, 94-97, 109-110, 120-125 entry H          line    30 file /opt/software/pc2/EB-SW/software/PSI4/1.9-foss-2022a/share/psi4/basis/jun-cc-pvdz-ri.gbs 

   => Loading Basis Set <=

    Name: (JUN-CC-PVDZ AUX)
    Role: JKFIT
    Keyword: DF_BASIS_ELST
    atoms 1                                                   entry B          line    90 file /opt/software/pc2/EB-SW/software/PSI4/1.9-foss-2022a/share/psi4/basis/jun-cc-pvdz-jkfit.gbs 
    atoms 2-5                                                 entry F          line   314 file /opt/software/pc2/EB-SW/software/PSI4/1.9-foss-2022a/share/psi4/basis/jun-cc-pvdz-jkfit.gbs 
    atoms 6-23, 30-42, 45-59, 62-78, 81-93, 98-108, 111-119   entry C          line   146 file /opt/software/pc2/EB-SW/software/PSI4/1.9-foss-2022a/share/psi4/basis/jun-cc-pvdz-jkfit.gbs 
    atoms 24-29, 43-44, 60-61, 79-80, 94-97, 109-110, 120-125 entry H          line    70 file /opt/software/pc2/EB-SW/software/PSI4/1.9-foss-2022a/share/psi4/basis/jun-cc-pvdz-jkfit.gbs 


  //>>>>>>>>>>>>>>>>>>>>>>>>>>>>>>>>>>>//
  //               SSAPT0              //
  //<<<<<<<<<<<<<<<<<<<<<<<<<<<<<<<<<<<//


*** tstart() called on n2cn0754
*** at Sat Jan 27 18:52:50 2024

        SAPT0  
    Ed Hohenstein
     6 June 2009

      Orbital Information
  --------------------------
    NSO        =      1938
    NMO        =      1898
    NRI        =      6901
    NRI (Elst) =      8531
    NOCC A     =        21
    NOCC B     =       300
    FOCC A     =         5
    FOCC B     =        96
    NVIR A     =      1877
    NVIR B     =      1598

    Elst10,r            =    -0.365689395258 [Eh]
    Exch10              =     0.838691214175 [Eh]
    Exch10 (S^2)        =     0.755047589458 [Eh]

    Iter     Energy [mEh]          dE [mEh]         Residual      Time [s]
       1    -163.81279544     163.812795445     103.563523469           589
       2    -192.59886356      28.786068113      46.035123102          1229
       3    -206.07839217      13.479528611       8.441714193          1841
       4    -205.71542369      -0.362968483       2.394351682          2581
       5    -205.40779978      -0.307623900       0.555057452          3393
       6    -205.40149161      -0.006308172       0.161140083          3993
       7    -205.41858185       0.017090236       0.031336910          4554
       8    -205.41758327      -0.000998578       0.007510697          5222
       9    -205.41730740      -0.000275873       0.001038303          5769
      10    -205.41737634       0.000068944       0.000202787          6345
      11    -205.41736905      -0.000007287       0.000040274          6890
      12    -205.41736901      -0.000000040       0.000010200          7455
      13    -205.41736922       0.000000208       0.000003127          8023
      14    -205.41736929       0.000000071       0.000000680         10975

    CHF Iterations converged


    Iter     Energy [mEh]          dE [mEh]         Residual      Time [s]
       1    -347.87237523     347.872375230     156.089298865          2387
       2    -352.04280519       4.170429959      56.659686941          4696
       3    -396.29608794      44.253282746      15.831671061          7561
       4    -397.27414136       0.978053423       7.874570144         18703
       5    -395.02145797      -2.252683390       3.732113584         20560
       6    -394.97190881      -0.049549154       2.039913276         21839
       7    -395.35454477       0.382635959       0.956816287         23036
       8    -395.43053396       0.075989190       0.507190677         24345
       9    -395.35638066      -0.074153307       0.289475835         27616
      10    -395.33702061      -0.019360044       0.128312773         30282
      11    -395.35358627       0.016565660       0.057961296         33495
      12    -395.35704132       0.003455051       0.028692776         36499
      13    -395.35439691      -0.002644412       0.014399498         38260
      14    -395.35354464      -0.000852276       0.009693299         39655
      15    -395.35419671       0.000652073       0.007173678         49837
      16    -395.35456430       0.000367588       0.004665739         51324
      17    -395.35429934      -0.000264955       0.001919909         52582
      18    -395.35422791      -0.000071437       0.000819566         53853
      19    -395.35425601       0.000028107       0.000354090         55454
      20    -395.35427688       0.000020863       0.000177283         57180
      21    -395.35427500      -0.000001880       0.000095004         58823
      22    -395.35426925      -0.000005747       0.000045776         63937
      23    -395.35426920      -0.000000049       0.000020294         67901
      24    -395.35427032       0.000001120       0.000008329         71531
      25    -395.35427040       0.000000084       0.000003873         76020
      26    -395.35427022      -0.000000184       0.000001606         78721
      27    -395.35427020      -0.000000016       0.000000777         81695

    CHF Iterations converged

    Ind20,r (A<-B)      =    -0.205417369293 [Eh]
    Ind20,r (B<-A)      =    -0.395354270204 [Eh]
    Ind20,r             =    -0.600771639497 [Eh]
    Exch-Ind20,r (A<-B) =     0.135572258337 [Eh]
    Exch-Ind20,r (B<-A) =     0.290108827764 [Eh]
    Exch-Ind20,r        =     0.425681086101 [Eh]
    Disp20              =    -0.126775987139 [Eh]
    Disp20 (SS)         =    -0.063387993569 [Eh]
    Disp20 (OS)         =    -0.063387993569 [Eh]
    Exch-Disp20         =     0.047392763725 [Eh]
    Exch-Disp20 (SS)    =     0.022290058546 [Eh]
    Exch-Disp20 (OS)    =     0.025102705179 [Eh]

    SAPT Results 
  --------------------------------------------------------------------------------------------------------
    Electrostatics               -365.68939526 [mEh]    -229.47355998 [kcal/mol]    -960.11737498 [kJ/mol]
      Elst10,r                   -365.68939526 [mEh]    -229.47355998 [kcal/mol]    -960.11737498 [kJ/mol]

    Exchange                      838.69121418 [mEh]     526.28668247 [kcal/mol]    2201.98347945 [kJ/mol]
      Exch10                      838.69121418 [mEh]     526.28668247 [kcal/mol]    2201.98347945 [kJ/mol]
      Exch10(S^2)                 755.04758946 [mEh]     473.79951554 [kcal/mol]    1982.37717301 [kJ/mol]

    Induction                    -136.66750928 [mEh]     -85.76015683 [kcal/mol]    -358.82049618 [kJ/mol]
      Ind20,r                    -600.77163950 [mEh]    -376.98989536 [kcal/mol]   -1577.32572219 [kJ/mol]
      Exch-Ind20,r                425.68108610 [mEh]     267.11891434 [kcal/mol]    1117.62553758 [kJ/mol]
      delta HF,r (2)               38.42304412 [mEh]      24.11082419 [kcal/mol]     100.87968843 [kJ/mol]

    Dispersion                    -79.38322341 [mEh]     -49.81372475 [kcal/mol]    -208.42062436 [kJ/mol]
      Disp20                     -126.77598714 [mEh]     -79.55313298 [kcal/mol]    -332.85030838 [kJ/mol]
      Exch-Disp20                  47.39276373 [mEh]      29.73940823 [kcal/mol]     124.42968402 [kJ/mol]
      Disp20 (SS)                 -63.38799357 [mEh]     -39.77656649 [kcal/mol]    -166.42515419 [kJ/mol]
      Disp20 (OS)                 -63.38799357 [mEh]     -39.77656649 [kcal/mol]    -166.42515419 [kJ/mol]
      Exch-Disp20 (SS)             22.29005855 [mEh]      13.98722291 [kcal/mol]      58.52254065 [kJ/mol]
      Exch-Disp20 (OS)             25.10270518 [mEh]      15.75218532 [kcal/mol]      65.90714337 [kJ/mol]

  Total HF                        336.33430964 [mEh]     211.05296565 [kcal/mol]     883.04560829 [kJ/mol]
  Total SAPT0                     256.95108622 [mEh]     161.23924090 [kcal/mol]     674.62498394 [kJ/mol]

  Special recipe for scaled SAPT0 (see Manual):
    Electrostatics sSAPT0        -365.68939526 [mEh]    -229.47355998 [kcal/mol]    -960.11737498 [kJ/mol]
    Exchange sSAPT0               838.69121418 [mEh]     526.28668247 [kcal/mol]    2201.98347945 [kJ/mol]
    Induction sSAPT0               21.05306180 [mEh]      13.21099573 [kcal/mol]      55.27480614 [kJ/mol]
    Dispersion sSAPT0             -61.82356666 [mEh]     -38.79487378 [kcal/mol]    -162.31775189 [kJ/mol]
  Total sSAPT0                    432.23131406 [mEh]     271.22924444 [kcal/mol]    1134.82315872 [kJ/mol]
  --------------------------------------------------------------------------------------------------------

*** tstop() called on n2cn0754 at Mon Jan 29 14:20:36 2024
Module time:
	user time   =   64015.21 seconds =    1066.92 minutes
	system time =    4097.19 seconds =      68.29 minutes
	total time  =     156466 seconds =    2607.77 minutes
Total time:
	user time   =  112930.22 seconds =    1882.17 minutes
	system time =    7294.65 seconds =     121.58 minutes
	total time  =     183301 seconds =    3055.02 minutes

    Psi4 stopped on: Monday, 29 January 2024 02:20PM
    Psi4 wall time for execution: 2 days, 2:55:02.32

*** Psi4 exiting successfully. Buy a developer a beer!
