
    -----------------------------------------------------------------------
          Psi4: An Open-Source Ab Initio Electronic Structure Package
                               Psi4 1.9 release

                         Git: Rev {} zzzzzzz 


    D. G. A. Smith, L. A. Burns, A. C. Simmonett, R. M. Parrish,
    M. C. Schieber, R. Galvelis, P. Kraus, H. Kruse, R. Di Remigio,
    A. Alenaizan, A. M. James, S. Lehtola, J. P. Misiewicz, M. Scheurer,
    R. A. Shaw, J. B. Schriber, Y. Xie, Z. L. Glick, D. A. Sirianni,
    J. S. O'Brien, J. M. Waldrop, A. Kumar, E. G. Hohenstein,
    B. P. Pritchard, B. R. Brooks, H. F. Schaefer III, A. Yu. Sokolov,
    K. Patkowski, A. E. DePrince III, U. Bozkaya, R. A. King,
    F. A. Evangelista, J. M. Turney, T. D. Crawford, C. D. Sherrill,
    J. Chem. Phys. 152(18) 184108 (2020). https://doi.org/10.1063/5.0006002

                            Additional Code Authors
    E. T. Seidl, C. L. Janssen, E. F. Valeev, M. L. Leininger,
    J. F. Gonthier, R. M. Richard, H. R. McAlexander, M. Saitow, X. Wang,
    P. Verma, M. H. Lechner, A. Jiang, S. Behnle, A. G. Heide,
    M. F. Herbst, and D. L. Poole

             Previous Authors, Complete List of Code Contributors,
                       and Citations for Specific Modules
    https://github.com/psi4/psi4/blob/master/codemeta.json
    https://github.com/psi4/psi4/graphs/contributors
    http://psicode.org/psi4manual/master/introduction.html#citing-psifour

    -----------------------------------------------------------------------


    Psi4 started on: Saturday, 20 January 2024 10:10PM

    Process ID: 494460
    Host:       d-16-9-3
    PSIDATADIR: /home/gridsan/tfroembgen/.conda/envs/psi4test/share/psi4
    Memory:     500.0 MiB
    Threads:    12
    
  ==> Input File <==

--------------------------------------------------------------------------
memory 32 GB # how much memory is available ! Depends on the nodes/cores !

molecule dimer {
# monomer A
-1 1    # Charge and multiplicity
B -1.977592e-04  2.742729e-04 -6.399966
F  1.123153e-16  1.430594e-17 -4.987181
F  1.147860e+00  6.757812e-01 -6.871107
F  1.191806e-02 -1.332011e+00 -6.870905
F -1.159666e+00  6.560735e-01 -6.870826
--
# monomer B
0 1     # Charge and multiplicity
C   1.22531237526482      0.70753866091955      0.00613762728373
C   1.22532433589282     -0.70753852257020     -0.00619318228664
C   -0.00000567409046      1.41496628609039     -0.00672680580738
C   2.45644923379077      1.41832825917820      0.00902448468363
C   0.00001130712078     -1.41497612663474      0.00347275151708
C   -1.22530046906674      0.70754574598412      0.00838914760619
C   2.45643823516184     -1.41832293188077     -0.00843833914343
C   -0.00000085313587      2.83680140328112     -0.00913035594137
C   3.68182717731192      0.70931832800114     -0.00808954934571
C   2.45512052870677      2.83422403348893     -0.00819210630633
C   3.68182158506039     -0.70933346742900      0.00798293467272
C   -1.22531311884624     -0.70752714354401     -0.00512042085974
C   1.22670006104402      3.54346985599427      0.00816696660346
C   0.00000526469929     -2.83678176723568      0.00832091913869
C   -2.45643555300670      1.41831729028492      0.00842454345199
C   2.45512389762097     -2.83422965658853      0.00783102630520
C   -1.22671388474763      3.54346943575023      0.00827029982280
C   4.91451777504333      1.42717324448953     -0.00160886631602
C   3.69315067131765      3.54279566454522     -0.00155906667985
C   -2.45643712022637     -1.41831290883911     -0.00846337726810
C   1.22670532178455     -3.54347386990643     -0.00780316414624
C   -2.45512491866593      2.83421703463423     -0.00818572995999
C   4.91452486062398     -1.42718653794377      0.00136387641845
C   1.22142509354026      4.97013443726031      0.00150231067809
C   4.89300870916237      2.82518837202648     -0.00039219795739
C   -1.22669652864725     -3.54347062507680     -0.00753595973677
C   -3.68181849668397      0.70932533873199     -0.00807686886569
C   3.69314758099218     -3.54280096939050      0.00148176697923
C   -1.22143177215231      4.97012866986289      0.00168580605083
C   6.13477145276790      0.68054831910577     -0.00083909176631
C   3.65678936045204      4.97295361556775     -0.00065042889723
C   -2.45512642789169     -2.83421472106065      0.00758666850712
C   -3.68181869921921     -0.70932533146830      0.00810055625144
C   4.89301309775526     -2.82519973363176      0.00021895393805
C   -0.00000059327114      5.65044773803267      0.00045449734393
C   6.13477559217374     -0.68055448207492      0.00042622874941
C   2.47813196269732      5.65357712333155      0.00063835075260
C   1.22142288457925     -4.97012668293268     -0.00129718634452
C   -3.69316190412301      3.54279732619245     -0.00139355922051
C   -1.22142804110313     -4.97011793159564     -0.00140994817719
C   -4.91452132810043      1.42717581899491     -0.00153192130862
C   3.65678749952045     -4.97295485423912      0.00080007163680
C   -2.47813805026426      5.65357479452875      0.00092287576113
C   -3.69314125872231     -3.54278984697859      0.00136564082345
C   -4.91451200321153     -1.42718062802730      0.00139857359209
C   -0.00000552908399     -5.65043791501335      0.00005899322272
C   -4.89302000425900      2.82518897091939     -0.00040227981744
C   2.47812647313991     -5.65357317188818     -0.00029052915548
C   -3.65679823041642      4.97295655404175     -0.00047374852278
C   -4.89299899901461     -2.82519139505969      0.00006491824035
C   -2.47812801824129     -5.65356579800621     -0.00056571680280
C   -6.13477002348955      0.68054913825639     -0.00086464346868
C   -3.65678835334731     -4.97294365097028      0.00058578382008
C   -6.13476456307132     -0.68055354348201      0.00040575295444
H   5.83528897565761      3.36927626695423      0.00396712770529
H   7.07385965258860      1.22821762089947     -0.00037744837300
H   4.60066374401555      5.51238117445323     -0.00014522814529
H   5.83528386714679     -3.36930568472863     -0.00423551337640
H   -0.00001167146422      6.73853104613662     -0.00389474766392
H   7.07386165167227     -1.22822657074368     -0.00008250934481
H   2.47331421164041      6.74068466339473      0.00017162982210
H   4.60066897122302     -5.51237575717576      0.00039007446835
H   -2.47331820069565      6.74068209160650      0.00047297644710
H   -0.00000978838621     -6.73852780445195      0.00458867820736
H   -5.83530143450167      3.36927132229595      0.00410314985360
H   2.47330840367253     -6.74068500242887      0.00027980126949
H   -4.60067436136587      5.51237839860371      0.00002010017831
H   -5.83527902699321     -3.36928859177951     -0.00451481925734
H   -2.47329986759855     -6.74067870613986     -0.00016951527498
H   -7.07385728692578      1.22822084484047     -0.00046143985387
H   -4.60067330624313     -5.51236229778631      0.00021776644566
H   -7.07385645456741     -1.22822025997701     -0.00017736581114

    units angstrom      # Angstroms are the default
    no_reorient         # Geometry fixed, default
    symmetry c1         # C1 symmetry, default
}

set {
    scf_type DF         # Density fitting, faster than exact integrals
    freeze_core True    # Freeze core electrons
    basis jun-cc-pVDZ   # Jun-cc-pVDZ basis set, recommended for sSAPT0 in https://doi.org/10.1063/1.4867135
}

energy('ssapt0')        # Compute sSAPT0 energy, includes also SAPT0
--------------------------------------------------------------------------

  Memory set to  29.802 GiB by Python driver.

Scratch directory: /state/partition1/slurm_tmp/24778927.4294967291.0/
   => Loading Basis Set <=

    Name: JUN-CC-PVDZ
    Role: ORBITAL
    Keyword: BASIS
    atoms 1     entry B          line   130 file /home/gridsan/tfroembgen/.conda/envs/psi4test/share/psi4/basis/jun-cc-pvdz.gbs 
    atoms 2-5   entry F          line   266 file /home/gridsan/tfroembgen/.conda/envs/psi4test/share/psi4/basis/jun-cc-pvdz.gbs 
    atoms 6-59  entry C          line   164 file /home/gridsan/tfroembgen/.conda/envs/psi4test/share/psi4/basis/jun-cc-pvdz.gbs 
    atoms 60-77 entry H          line    36 file /home/gridsan/tfroembgen/.conda/envs/psi4test/share/psi4/basis/jun-cc-pvdz.gbs 

   => Loading Basis Set <=

    Name: JUN-CC-PVDZ
    Role: ORBITAL
    Keyword: BASIS
    atoms 1     entry B          line   130 file /home/gridsan/tfroembgen/.conda/envs/psi4test/share/psi4/basis/jun-cc-pvdz.gbs 
    atoms 2-5   entry F          line   266 file /home/gridsan/tfroembgen/.conda/envs/psi4test/share/psi4/basis/jun-cc-pvdz.gbs 
    atoms 6-59  entry C          line   164 file /home/gridsan/tfroembgen/.conda/envs/psi4test/share/psi4/basis/jun-cc-pvdz.gbs 
    atoms 60-77 entry H          line    36 file /home/gridsan/tfroembgen/.conda/envs/psi4test/share/psi4/basis/jun-cc-pvdz.gbs 


  //>>>>>>>>>>>>>>>>>>>>>>>>>>>>>>>>>>>//
  //              Dimer HF             //
  //<<<<<<<<<<<<<<<<<<<<<<<<<<<<<<<<<<<//

   => Libint2 <=

    Primary   basis highest AM E, G, H:  7, 7, 4
    Auxiliary basis highest AM E, G, H:  7, 7, 5
    Onebody   basis highest AM E, G, H:  7, 7, 5
    Solid Harmonics ordering:            gaussian

*** tstart() called on d-16-9-3
*** at Sat Jan 20 22:10:23 2024

   => Loading Basis Set <=

    Name: JUN-CC-PVDZ
    Role: ORBITAL
    Keyword: BASIS
    atoms 1     entry B          line   130 file /home/gridsan/tfroembgen/.conda/envs/psi4test/share/psi4/basis/jun-cc-pvdz.gbs 
    atoms 2-5   entry F          line   266 file /home/gridsan/tfroembgen/.conda/envs/psi4test/share/psi4/basis/jun-cc-pvdz.gbs 
    atoms 6-59  entry C          line   164 file /home/gridsan/tfroembgen/.conda/envs/psi4test/share/psi4/basis/jun-cc-pvdz.gbs 
    atoms 60-77 entry H          line    36 file /home/gridsan/tfroembgen/.conda/envs/psi4test/share/psi4/basis/jun-cc-pvdz.gbs 


         ---------------------------------------------------------
                                   SCF
               by Justin Turney, Rob Parrish, Andy Simmonett
                          and Daniel G. A. Smith
                              RHF Reference
                       12 Threads,  30517 MiB Core
         ---------------------------------------------------------

  ==> Geometry <==

    Molecular point group: c1
    Full point group: C1

    Geometry (in Angstrom), charge = -1, multiplicity = 1:

       Center              X                  Y                   Z               Mass       
    ------------   -----------------  -----------------  -----------------  -----------------
         B           -0.000198161052     0.000273808717    -5.660637914394    11.009305360000
         F           -0.000000401852    -0.000000464183    -4.247852914394    18.998403162730
         F            1.147859598148     0.675780735817    -6.131778914394    18.998403162730
         F            0.011917658148    -1.332011464183    -6.131576914394    18.998403162730
         F           -1.159666401852     0.656073035817    -6.131497914394    18.998403162730
         C            1.225311973413     0.707538196736     0.745465712890    12.000000000000
         C            1.225323934041    -0.707538986754     0.733134903319    12.000000000000
         C           -0.000006075942     1.414965821907     0.732601279798    12.000000000000
         C            2.456448831939     1.418327794995     0.748352570289    12.000000000000
         C            0.000010905269    -1.414976590818     0.742800837123    12.000000000000
         C           -1.225300870919     0.707545281801     0.747717233212    12.000000000000
         C            2.456437833310    -1.418323396064     0.730889746462    12.000000000000
         C           -0.000001254988     2.836800939098     0.730197729664    12.000000000000
         C            3.681826775460     0.709317863818     0.731238536260    12.000000000000
         C            2.455120126855     2.834223569306     0.731135979300    12.000000000000
         C            3.681821183209    -0.709333931612     0.747311020279    12.000000000000
         C           -1.225313520698    -0.707527607727     0.734207664746    12.000000000000
         C            1.226699659192     3.543469391811     0.747495052209    12.000000000000
         C            0.000004862847    -2.836782231419     0.747649004745    12.000000000000
         C           -2.456435954859     1.418316826102     0.747752629058    12.000000000000
         C            2.455123495769    -2.834230120772     0.747159111911    12.000000000000
         C           -1.226714286599     3.543468971567     0.747598385429    12.000000000000
         C            4.914517373191     1.427172780306     0.737719219290    12.000000000000
         C            3.693150269466     3.542795200362     0.737769018926    12.000000000000
         C           -2.456437522078    -1.418313373022     0.730864708338    12.000000000000
         C            1.226704919933    -3.543474334090     0.731524921460    12.000000000000
         C           -2.455125320518     2.834216570451     0.731142355646    12.000000000000
         C            4.914524458772    -1.427187002127     0.740691962024    12.000000000000
         C            1.221424691688     4.970133973077     0.740830396284    12.000000000000
         C            4.893008307311     2.825187907843     0.738935887648    12.000000000000
         C           -1.226696930499    -3.543471089260     0.731792125869    12.000000000000
         C           -3.681818898536     0.709324874549     0.731251216740    12.000000000000
         C            3.693147179140    -3.542801433574     0.740809852585    12.000000000000
         C           -1.221432174004     4.970128205680     0.741013891657    12.000000000000
         C            6.134771050916     0.680547854922     0.738488993840    12.000000000000
         C            3.656788958600     4.972953151384     0.738677656709    12.000000000000
         C           -2.455126829744    -2.834215185244     0.746914754113    12.000000000000
         C           -3.681819101071    -0.709325795652     0.747428641857    12.000000000000
         C            4.893012695903    -2.825200197815     0.739547039544    12.000000000000
         C           -0.000000995123     5.650447273849     0.739782582950    12.000000000000
         C            6.134775190322    -0.680554946258     0.739754314355    12.000000000000
         C            2.478131560845     5.653576659148     0.739966436358    12.000000000000
         C            1.221422482727    -4.970127147116     0.738030899261    12.000000000000
         C           -3.693162305975     3.542796862009     0.737934526385    12.000000000000
         C           -1.221428442955    -4.970118395779     0.737918137429    12.000000000000
         C           -4.914521729952     1.427175354812     0.737796164297    12.000000000000
         C            3.656787097669    -4.972955318422     0.740128157243    12.000000000000
         C           -2.478138452116     5.653574330345     0.740250961367    12.000000000000
         C           -3.693141660574    -3.542790311162     0.740693726429    12.000000000000
         C           -4.914512405063    -1.427181092211     0.740726659198    12.000000000000
         C           -0.000005930936    -5.650438379197     0.739387078829    12.000000000000
         C           -4.893020406111     2.825188506736     0.738925805788    12.000000000000
         C            2.478126071288    -5.653573636072     0.739037556450    12.000000000000
         C           -3.656798632268     4.972956089858     0.738854337083    12.000000000000
         C           -4.892999400866    -2.825191859243     0.739393003846    12.000000000000
         C           -2.478128420093    -5.653566262190     0.738762368803    12.000000000000
         C           -6.134770425341     0.680548674073     0.738463442137    12.000000000000
         C           -3.656788755199    -4.972944115154     0.739913869426    12.000000000000
         C           -6.134764964923    -0.680554007665     0.739733838560    12.000000000000
         H            5.835288573806     3.369275802771     0.743295213311     1.007825032230
         H            7.073859250737     1.228217156716     0.738950637233     1.007825032230
         H            4.600663342164     5.512380710270     0.739182857461     1.007825032230
         H            5.835283465295    -3.369306148912     0.735092572229     1.007825032230
         H           -0.000012073316     6.738530581953     0.735433337942     1.007825032230
         H            7.073861249820    -1.228227034927     0.739245576261     1.007825032230
         H            2.473313809789     6.740684199211     0.739499715428     1.007825032230
         H            4.600668569371    -5.512376221359     0.739718160074     1.007825032230
         H           -2.473318602548     6.740681627423     0.739801062053     1.007825032230
         H           -0.000010190238    -6.738528268635     0.743916763813     1.007825032230
         H           -5.835301836354     3.369270858113     0.743431235459     1.007825032230
         H            2.473308001821    -6.740685466612     0.739607886875     1.007825032230
         H           -4.600674763218     5.512377934420     0.739348185784     1.007825032230
         H           -5.835279428845    -3.369289055963     0.734813266349     1.007825032230
         H           -2.473300269450    -6.740679170323     0.739158570331     1.007825032230
         H           -7.073857688778     1.228220380657     0.738866645752     1.007825032230
         H           -4.600673708095    -5.512362761970     0.739545852052     1.007825032230
         H           -7.073856856419    -1.228220724160     0.739150719795     1.007825032230

  Running in c1 symmetry.

  Rotational constants: A =      0.00155  B =      0.00155  C =      0.00110 [cm^-1]
  Rotational constants: A =     46.56155  B =     46.55653  C =     33.02251 [MHz]
  Nuclear repulsion = 7572.575333778417189

  Charge       = -1
  Multiplicity = 1
  Electrons    = 384
  Nalpha       = 192
  Nbeta        = 192

  ==> Algorithm <==

  SCF Algorithm Type is DF.
  DIIS enabled.
  MOM disabled.
  Fractional occupation disabled.
  Guess Type is SAD.
  Energy threshold   = 1.00e-08
  Density threshold  = 1.00e-08
  Integral threshold = 1.00e-12

  ==> Primary Basis <==

  Basis Set: JUN-CC-PVDZ
    Blend: JUN-CC-PVDZ
    Number of shells: 526
    Number of basis functions: 1152
    Number of Cartesian functions: 1211
    Spherical Harmonics?: true
    Max angular momentum: 2

   => Loading Basis Set <=

    Name: (JUN-CC-PVDZ AUX)
    Role: JKFIT
    Keyword: DF_BASIS_SCF
    atoms 1     entry B          line    90 file /home/gridsan/tfroembgen/.conda/envs/psi4test/share/psi4/basis/jun-cc-pvdz-jkfit.gbs 
    atoms 2-5   entry F          line   314 file /home/gridsan/tfroembgen/.conda/envs/psi4test/share/psi4/basis/jun-cc-pvdz-jkfit.gbs 
    atoms 6-59  entry C          line   146 file /home/gridsan/tfroembgen/.conda/envs/psi4test/share/psi4/basis/jun-cc-pvdz-jkfit.gbs 
    atoms 60-77 entry H          line    70 file /home/gridsan/tfroembgen/.conda/envs/psi4test/share/psi4/basis/jun-cc-pvdz-jkfit.gbs 

  ==> Integral Setup <==

  ==> DiskDFJK: Density-Fitted J/K Matrices <==

    J tasked:                  Yes
    K tasked:                  Yes
    wK tasked:                  No
    OpenMP threads:             12
    Integrals threads:          12
    Memory [MiB]:            22888
    Algorithm:                Core
    Integral Cache:           SAVE
    Schwarz Cutoff:          1E-12
    Fitting Condition:       1E-10

   => Auxiliary Basis Set <=

  Basis Set: (JUN-CC-PVDZ AUX)
    Blend: JUN-CC-PVDZ-JKFIT
    Number of shells: 1755
    Number of basis functions: 5075
    Number of Cartesian functions: 5819
    Spherical Harmonics?: true
    Max angular momentum: 3

  Minimum eigenvalue in the overlap matrix is 8.3985126323E-10.
  Reciprocal condition number of the overlap matrix is 3.7460745235E-11.
    Using canonical orthogonalization.
  Overall, 14 of 1152 possible MOs eliminated.


  ==> Pre-Iterations <==

  SCF Guess: Superposition of Atomic Densities via on-the-fly atomic UHF (no occupation information).

   -------------------------
    Irrep   Nso     Nmo    
   -------------------------
     A       1152    1138 
   -------------------------
    Total    1152    1138
   -------------------------

  ==> Iterations <==

                           Total Energy        Delta E     RMS |[F,P]|

   @DF-RHF iter SAD: -2483.26094254076997   -2.48326e+03   0.00000e+00 
   @DF-RHF iter   1: -2477.62123347487159    5.63971e+00   1.09958e-03 DIIS/ADIIS
   @DF-RHF iter   2: -2478.50975417292557   -8.88521e-01   4.76418e-04 DIIS/ADIIS
   @DF-RHF iter   3: -2478.64240641186052   -1.32652e-01   1.31918e-04 DIIS/ADIIS
   @DF-RHF iter   4: -2478.65553491965102   -1.31285e-02   5.41575e-05 DIIS
   @DF-RHF iter   5: -2478.65797717378928   -2.44225e-03   1.61629e-05 DIIS
   @DF-RHF iter   6: -2478.65826286402898   -2.85690e-04   5.38242e-06 DIIS
   @DF-RHF iter   7: -2478.65834379713078   -8.09331e-05   2.64682e-06 DIIS
   @DF-RHF iter   8: -2478.65836605987852   -2.22627e-05   1.21467e-06 DIIS
   @DF-RHF iter   9: -2478.65837266847075   -6.60859e-06   2.50525e-07 DIIS
   @DF-RHF iter  10: -2478.65837288832563   -2.19855e-07   8.84761e-08 DIIS
   @DF-RHF iter  11: -2478.65837290498894   -1.66633e-08   3.43958e-08 DIIS
   @DF-RHF iter  12: -2478.65837290852278   -3.53384e-09   1.19144e-08 DIIS
   @DF-RHF iter  13: -2478.65837290886930   -3.46517e-10   4.88408e-09 DIIS
  Energy and wave function converged.


  ==> Post-Iterations <==

    Orbital Energies [Eh]
    ---------------------

    Doubly Occupied:                                                      

       1A    -26.065006     2A    -26.064912     3A    -26.064874  
       4A    -26.064825     5A    -11.197038     6A    -11.197026  
       7A    -11.197024     8A    -11.196973     9A    -11.196968  
      10A    -11.196960    11A    -11.196945    12A    -11.196933  
      13A    -11.196929    14A    -11.196878    15A    -11.196870  
      16A    -11.196870    17A    -11.195588    18A    -11.195488  
      19A    -11.195486    20A    -11.195324    21A    -11.195323  
      22A    -11.195245    23A    -11.194727    24A    -11.194510  
      25A    -11.194411    26A    -11.194407    27A    -11.194391  
      28A    -11.194390    29A    -11.193879    30A    -11.193877  
      31A    -11.193782    32A    -11.193500    33A    -11.193359  
      34A    -11.193357    35A    -11.193331    36A    -11.193330  
      37A    -11.193222    38A    -11.192945    39A    -11.192941  
      40A    -11.192869    41A    -11.192868    42A    -11.192867  
      43A    -11.192866    44A    -11.192863    45A    -11.192861  
      46A    -11.192513    47A    -11.191448    48A    -11.191447  
      49A    -11.191445    50A    -11.191444    51A    -11.191441  
      52A    -11.191440    53A    -11.190289    54A    -11.190289  
      55A    -11.190285    56A    -11.190264    57A    -11.190263  
      58A    -11.190262    59A     -7.537176    60A     -1.408831  
      61A     -1.349143    62A     -1.349068    63A     -1.348959  
      64A     -1.179893    65A     -1.156892    66A     -1.156892  
      67A     -1.127360    68A     -1.127352    69A     -1.117623  
      70A     -1.096156    71A     -1.086969    72A     -1.072629  
      73A     -1.072621    74A     -1.051889    75A     -1.051884  
      76A     -1.019975    77A     -1.019967    78A     -1.016066  
      79A     -1.004880    80A     -1.004876    81A     -0.977772  
      82A     -0.961249    83A     -0.958677    84A     -0.958634  
      85A     -0.956523    86A     -0.951899    87A     -0.924810  
      88A     -0.924765    89A     -0.900492    90A     -0.900442  
      91A     -0.833033    92A     -0.833005    93A     -0.825013  
      94A     -0.823143    95A     -0.823086    96A     -0.819154  
      97A     -0.819106    98A     -0.800641    99A     -0.777164  
     100A     -0.756770   101A     -0.754115   102A     -0.750055  
     103A     -0.750046   104A     -0.733843   105A     -0.733832  
     106A     -0.684170   107A     -0.682696   108A     -0.671266  
     109A     -0.671243   110A     -0.671240   111A     -0.671233  
     112A     -0.654762   113A     -0.637734   114A     -0.637722  
     115A     -0.631989   116A     -0.631973   117A     -0.600470  
     118A     -0.600134   119A     -0.591356   120A     -0.589637  
     121A     -0.589631   122A     -0.588882   123A     -0.578293  
     124A     -0.578291   125A     -0.567904   126A     -0.565790  
     127A     -0.565775   128A     -0.546599   129A     -0.541278  
     130A     -0.539563   131A     -0.538759   132A     -0.538727  
     133A     -0.531752   134A     -0.528670   135A     -0.528659  
     136A     -0.526320   137A     -0.526314   138A     -0.526233  
     139A     -0.525335   140A     -0.512897   141A     -0.512891  
     142A     -0.506789   143A     -0.506774   144A     -0.504056  
     145A     -0.504040   146A     -0.496778   147A     -0.494208  
     148A     -0.494201   149A     -0.477887   150A     -0.477884  
     151A     -0.475769   152A     -0.475764   153A     -0.468376  
     154A     -0.464124   155A     -0.461541   156A     -0.461533  
     157A     -0.445173   158A     -0.445131   159A     -0.439956  
     160A     -0.434242   161A     -0.432369   162A     -0.425761  
     163A     -0.423144   164A     -0.420285   165A     -0.420277  
     166A     -0.406911   167A     -0.406897   168A     -0.406383  
     169A     -0.406327   170A     -0.406243   171A     -0.388412  
     172A     -0.388333   173A     -0.382868   174A     -0.382835  
     175A     -0.382773   176A     -0.377911   177A     -0.377901  
     178A     -0.341858   179A     -0.341835   180A     -0.340265  
     181A     -0.314584   182A     -0.314581   183A     -0.287213  
     184A     -0.273277   185A     -0.272142   186A     -0.272091  
     187A     -0.249667   188A     -0.237788   189A     -0.221224  
     190A     -0.221169   191A     -0.163018   192A     -0.162955  

    Virtual:                                                              

     193A      0.075646   194A      0.075710   195A      0.099932  
     196A      0.099935   197A      0.101789   198A      0.102384  
     199A      0.102390   200A      0.109293   201A      0.113433  
     202A      0.124384   203A      0.124386   204A      0.127195  
     205A      0.127242   206A      0.136586   207A      0.139154  
     208A      0.139158   209A      0.143281   210A      0.143319  
     211A      0.143376   212A      0.145221   213A      0.145226  
     214A      0.147832   215A      0.150059   216A      0.151186  
     217A      0.151187   218A      0.158910   219A      0.159974  
     220A      0.165181   221A      0.165189   222A      0.168662  
     223A      0.171080   224A      0.175188   225A      0.175224  
     226A      0.177141   227A      0.182947   228A      0.182962  
     229A      0.183397   230A      0.184894   231A      0.185744  
     232A      0.185753   233A      0.188651   234A      0.189498  
     235A      0.189504   236A      0.192892   237A      0.196658  
     238A      0.198832   239A      0.203167   240A      0.203180  
     241A      0.206026   242A      0.206030   243A      0.209246  
     244A      0.209248   245A      0.214003   246A      0.214009  
     247A      0.226968   248A      0.228344   249A      0.228355  
     250A      0.235693   251A      0.236216   252A      0.236247  
     253A      0.237732   254A      0.237763   255A      0.237774  
     256A      0.243036   257A      0.243047   258A      0.244965  
     259A      0.247825   260A      0.247853   261A      0.249964  
     262A      0.254278   263A      0.254283   264A      0.258597  
     265A      0.259290   266A      0.259298   267A      0.264691  
     268A      0.264716   269A      0.266526   270A      0.267818  
     271A      0.268156   272A      0.268187   273A      0.268420  
     274A      0.269572   275A      0.270723   276A      0.271251  
     277A      0.280697   278A      0.281419   279A      0.281717  
     280A      0.281750   281A      0.283386   282A      0.283419  
     283A      0.284593   284A      0.286674   285A      0.286699  
     286A      0.288105   287A      0.292509   288A      0.292528  
     289A      0.299947   290A      0.299948   291A      0.300041  
     292A      0.303126   293A      0.303130   294A      0.303143  
     295A      0.313190   296A      0.313206   297A      0.314078  
     298A      0.314097   299A      0.315121   300A      0.315123  
     301A      0.321936   302A      0.321954   303A      0.327882  
     304A      0.327890   305A      0.331273   306A      0.331277  
     307A      0.334006   308A      0.336361   309A      0.336425  
     310A      0.338700   311A      0.338748   312A      0.342097  
     313A      0.350063   314A      0.350076   315A      0.351452  
     316A      0.351455   317A      0.357243   318A      0.357534  
     319A      0.360393   320A      0.360426   321A      0.360457  
     322A      0.364600   323A      0.365547   324A      0.365627  
     325A      0.366151   326A      0.368800   327A      0.368829  
     328A      0.369855   329A      0.373305   330A      0.373312  
     331A      0.373495   332A      0.378117   333A      0.378122  
     334A      0.378713   335A      0.379818   336A      0.382931  
     337A      0.383918   338A      0.387872   339A      0.390069  
     340A      0.391146   341A      0.391265   342A      0.393101  
     343A      0.393145   344A      0.396689   345A      0.401142  
     346A      0.401155   347A      0.403869   348A      0.405037  
     349A      0.405048   350A      0.406461   351A      0.409134  
     352A      0.409147   353A      0.409996   354A      0.411326  
     355A      0.411339   356A      0.417740   357A      0.424790  
     358A      0.424815   359A      0.426776   360A      0.426857  
     361A      0.431087   362A      0.431135   363A      0.432331  
     364A      0.436900   365A      0.441257   366A      0.441293  
     367A      0.447071   368A      0.447074   369A      0.447370  
     370A      0.447452   371A      0.449270   372A      0.450638  
     373A      0.453244   374A      0.453303   375A      0.453326  
     376A      0.456738   377A      0.456777   378A      0.457044  
     379A      0.457308   380A      0.457384   381A      0.460507  
     382A      0.462498   383A      0.462512   384A      0.465689  
     385A      0.467600   386A      0.470674   387A      0.470736  
     388A      0.471237   389A      0.472640   390A      0.472733  
     391A      0.474798   392A      0.474822   393A      0.475464  
     394A      0.478634   395A      0.481412   396A      0.481440  
     397A      0.482166   398A      0.484607   399A      0.484646  
     400A      0.486549   401A      0.486597   402A      0.497357  
     403A      0.497578   404A      0.499558   405A      0.499727  
     406A      0.500759   407A      0.502210   408A      0.505822  
     409A      0.505884   410A      0.507576   411A      0.507675  
     412A      0.509493   413A      0.509552   414A      0.512028  
     415A      0.512231   416A      0.512257   417A      0.523352  
     418A      0.523360   419A      0.523469   420A      0.527746  
     421A      0.529021   422A      0.529116   423A      0.529216  
     424A      0.530639   425A      0.535274   426A      0.535295  
     427A      0.538559   428A      0.541404   429A      0.541449  
     430A      0.545208   431A      0.545234   432A      0.548814  
     433A      0.549040   434A      0.549097   435A      0.551385  
     436A      0.552965   437A      0.553008   438A      0.555181  
     439A      0.555199   440A      0.559456   441A      0.566034  
     442A      0.566068   443A      0.566163   444A      0.567461  
     445A      0.575897   446A      0.576153   447A      0.577585  
     448A      0.578821   449A      0.579082   450A      0.582479  
     451A      0.591605   452A      0.591691   453A      0.592380  
     454A      0.592431   455A      0.593202   456A      0.593472  
     457A      0.598035   458A      0.600709   459A      0.606665  
     460A      0.606919   461A      0.606960   462A      0.611350  
     463A      0.612166   464A      0.612199   465A      0.613995  
     466A      0.617227   467A      0.617461   468A      0.621360  
     469A      0.622101   470A      0.624001   471A      0.624238  
     472A      0.624268   473A      0.627529   474A      0.632105  
     475A      0.632176   476A      0.644175   477A      0.655873  
     478A      0.656222   479A      0.657011   480A      0.661336  
     481A      0.661358   482A      0.678222   483A      0.679638  
     484A      0.679690   485A      0.687741   486A      0.687785  
     487A      0.688761   488A      0.688799   489A      0.705333  
     490A      0.707136   491A      0.707334   492A      0.709355  
     493A      0.714928   494A      0.714945   495A      0.718107  
     496A      0.730864   497A      0.731334   498A      0.731358  
     499A      0.738916   500A      0.738933   501A      0.743980  
     502A      0.746841   503A      0.746956   504A      0.777704  
     505A      0.777756   506A      0.783179   507A      0.795048  
     508A      0.801435   509A      0.804785   510A      0.804972  
     511A      0.805329   512A      0.805386   513A      0.817947  
     514A      0.817960   515A      0.823749   516A      0.829840  
     517A      0.838417   518A      0.852145   519A      0.858072  
     520A      0.858138   521A      0.866418   522A      0.869580  
     523A      0.874358   524A      0.874399   525A      0.874896  
     526A      0.884052   527A      0.884332   528A      0.884548  
     529A      0.888509   530A      0.888615   531A      0.888637  
     532A      0.896657   533A      0.907126   534A      0.907236  
     535A      0.915703   536A      0.915765   537A      0.921880  
     538A      0.923522   539A      0.925542   540A      0.925625  
     541A      0.929822   542A      0.932089   543A      0.932493  
     544A      0.936694   545A      0.936757   546A      0.939746  
     547A      0.940261   548A      0.949412   549A      0.949516  
     550A      0.955744   551A      0.955778   552A      0.958347  
     553A      0.958454   554A      0.959239   555A      0.959996  
     556A      0.963659   557A      0.968793   558A      0.969184  
     559A      0.971137   560A      0.973399   561A      0.979655  
     562A      0.980178   563A      0.980299   564A      0.983418  
     565A      0.986457   566A      0.987048   567A      0.993985  
     568A      0.994336   569A      0.995256   570A      0.995741  
     571A      0.998762   572A      0.999027   573A      1.005408  
     574A      1.005554   575A      1.017525   576A      1.017673  
     577A      1.018256   578A      1.018516   579A      1.018671  
     580A      1.028764   581A      1.029265   582A      1.033082  
     583A      1.033453   584A      1.034562   585A      1.034630  
     586A      1.038962   587A      1.039876   588A      1.044067  
     589A      1.049734   590A      1.049793   591A      1.052844  
     592A      1.062984   593A      1.063081   594A      1.066927  
     595A      1.068914   596A      1.074480   597A      1.074490  
     598A      1.077700   599A      1.077718   600A      1.085331  
     601A      1.093577   602A      1.093622   603A      1.098954  
     604A      1.098994   605A      1.099131   606A      1.102242  
     607A      1.102317   608A      1.104701   609A      1.104818  
     610A      1.106897   611A      1.106968   612A      1.107338  
     613A      1.110252   614A      1.111031   615A      1.114760  
     616A      1.114797   617A      1.120503   618A      1.124571  
     619A      1.126431   620A      1.126877   621A      1.127271  
     622A      1.131443   623A      1.131460   624A      1.139290  
     625A      1.139301   626A      1.140402   627A      1.142878  
     628A      1.147164   629A      1.149005   630A      1.149093  
     631A      1.151495   632A      1.151588   633A      1.155246  
     634A      1.155271   635A      1.165280   636A      1.165326  
     637A      1.165879   638A      1.168571   639A      1.168640  
     640A      1.176937   641A      1.176970   642A      1.186526  
     643A      1.187391   644A      1.189418   645A      1.189553  
     646A      1.193008   647A      1.193092   648A      1.196743  
     649A      1.200439   650A      1.200524   651A      1.204256  
     652A      1.206292   653A      1.206305   654A      1.208580  
     655A      1.211057   656A      1.216330   657A      1.225531  
     658A      1.237621   659A      1.239323   660A      1.242537  
     661A      1.242746   662A      1.248233   663A      1.248238  
     664A      1.249127   665A      1.257749   666A      1.257866  
     667A      1.262355   668A      1.262453   669A      1.271868  
     670A      1.279119   671A      1.279172   672A      1.282774  
     673A      1.284140   674A      1.284174   675A      1.297662  
     676A      1.297897   677A      1.298134   678A      1.318344  
     679A      1.318445   680A      1.322562   681A      1.322681  
     682A      1.324683   683A      1.324808   684A      1.325925  
     685A      1.326019   686A      1.334800   687A      1.337439  
     688A      1.346644   689A      1.349353   690A      1.349435  
     691A      1.355089   692A      1.357890   693A      1.358586  
     694A      1.359549   695A      1.365863   696A      1.365887  
     697A      1.369888   698A      1.369908   699A      1.369995  
     700A      1.372871   701A      1.380601   702A      1.380686  
     703A      1.383313   704A      1.383328   705A      1.392020  
     706A      1.392116   707A      1.396093   708A      1.401487  
     709A      1.403728   710A      1.407974   711A      1.408037  
     712A      1.414474   713A      1.417667   714A      1.417698  
     715A      1.420148   716A      1.420176   717A      1.424871  
     718A      1.424902   719A      1.430014   720A      1.430029  
     721A      1.439870   722A      1.447446   723A      1.453887  
     724A      1.461609   725A      1.465568   726A      1.465590  
     727A      1.471279   728A      1.471288   729A      1.472844  
     730A      1.472877   731A      1.481928   732A      1.482961  
     733A      1.489251   734A      1.489376   735A      1.491903  
     736A      1.492837   737A      1.497425   738A      1.497465  
     739A      1.500934   740A      1.501070   741A      1.501476  
     742A      1.505840   743A      1.509360   744A      1.509370  
     745A      1.512150   746A      1.527201   747A      1.527210  
     748A      1.536764   749A      1.536921   750A      1.578006  
     751A      1.578061   752A      1.584003   753A      1.584024  
     754A      1.590835   755A      1.614995   756A      1.640332  
     757A      1.642456   758A      1.642520   759A      1.646682  
     760A      1.663086   761A      1.663650   762A      1.667154  
     763A      1.672485   764A      1.673396   765A      1.673447  
     766A      1.678056   767A      1.678264   768A      1.683765  
     769A      1.685799   770A      1.685849   771A      1.694662  
     772A      1.695027   773A      1.702820   774A      1.702852  
     775A      1.706528   776A      1.706560   777A      1.706639  
     778A      1.707440   779A      1.712352   780A      1.723008  
     781A      1.723031   782A      1.729217   783A      1.737986  
     784A      1.738012   785A      1.739850   786A      1.740320  
     787A      1.740367   788A      1.744927   789A      1.749299  
     790A      1.749350   791A      1.757671   792A      1.759333  
     793A      1.760625   794A      1.760667   795A      1.764242  
     796A      1.768555   797A      1.768623   798A      1.777050  
     799A      1.777068   800A      1.803803   801A      1.814269  
     802A      1.820618   803A      1.820632   804A      1.820637  
     805A      1.823406   806A      1.838509   807A      1.838534  
     808A      1.853120   809A      1.853141   810A      1.877437  
     811A      1.877477   812A      1.877637   813A      1.882731  
     814A      1.887703   815A      1.887803   816A      1.892637  
     817A      1.892721   818A      1.899833   819A      1.905157  
     820A      1.905577   821A      1.921399   822A      1.921439  
     823A      1.922599   824A      1.922664   825A      1.925219  
     826A      1.930718   827A      1.934266   828A      1.942885  
     829A      1.942928   830A      1.954649   831A      1.954712  
     832A      1.958540   833A      1.958681   834A      1.959685  
     835A      1.963324   836A      1.963442   837A      1.971379  
     838A      1.971491   839A      1.976926   840A      1.977193  
     841A      1.979846   842A      1.980000   843A      1.981459  
     844A      1.984162   845A      1.984247   846A      1.999850  
     847A      2.000849   848A      2.000942   849A      2.004287  
     850A      2.005630   851A      2.005691   852A      2.010626  
     853A      2.010674   854A      2.017412   855A      2.017528  
     856A      2.019845   857A      2.019971   858A      2.020942  
     859A      2.020983   860A      2.030498   861A      2.030615  
     862A      2.046939   863A      2.047063   864A      2.052069  
     865A      2.058810   866A      2.059650   867A      2.059733  
     868A      2.062487   869A      2.062621   870A      2.065122  
     871A      2.068235   872A      2.074025   873A      2.074181  
     874A      2.090621   875A      2.090982   876A      2.092528  
     877A      2.093193   878A      2.093240   879A      2.093955  
     880A      2.094439   881A      2.109891   882A      2.113660  
     883A      2.113818   884A      2.120956   885A      2.121769  
     886A      2.125149   887A      2.125221   888A      2.130931  
     889A      2.131305   890A      2.135029   891A      2.135336  
     892A      2.138726   893A      2.138859   894A      2.140681  
     895A      2.145388   896A      2.145538   897A      2.149379  
     898A      2.149545   899A      2.149708   900A      2.154239  
     901A      2.154848   902A      2.157830   903A      2.158467  
     904A      2.162120   905A      2.162303   906A      2.162395  
     907A      2.170009   908A      2.170045   909A      2.172041  
     910A      2.173468   911A      2.173543   912A      2.178387  
     913A      2.180619   914A      2.180716   915A      2.183473  
     916A      2.183589   917A      2.188599   918A      2.188704  
     919A      2.195780   920A      2.196227   921A      2.196744  
     922A      2.196819   923A      2.204314   924A      2.204335  
     925A      2.213900   926A      2.223109   927A      2.223123  
     928A      2.225291   929A      2.225310   930A      2.230072  
     931A      2.234543   932A      2.239718   933A      2.239806  
     934A      2.250756   935A      2.251105   936A      2.254291  
     937A      2.255095   938A      2.260007   939A      2.260129  
     940A      2.261961   941A      2.281447   942A      2.283570  
     943A      2.283615   944A      2.288717   945A      2.292730  
     946A      2.293113   947A      2.293953   948A      2.302660  
     949A      2.302961   950A      2.304279   951A      2.304656  
     952A      2.307113   953A      2.320257   954A      2.320376  
     955A      2.331457   956A      2.331474   957A      2.332700  
     958A      2.332745   959A      2.340554   960A      2.361040  
     961A      2.367727   962A      2.373182   963A      2.375046  
     964A      2.385005   965A      2.388267   966A      2.394127  
     967A      2.394904   968A      2.395007   969A      2.397649  
     970A      2.413243   971A      2.413852   972A      2.414605  
     973A      2.414836   974A      2.429204   975A      2.429304  
     976A      2.438718   977A      2.443403   978A      2.476698  
     979A      2.485970   980A      2.486176   981A      2.486212  
     982A      2.497381   983A      2.503659   984A      2.503707  
     985A      2.532123   986A      2.534202   987A      2.534367  
     988A      2.546839   989A      2.546862   990A      2.564107  
     991A      2.580254   992A      2.591545   993A      2.592229  
     994A      2.604690   995A      2.606740   996A      2.606792  
     997A      2.614073   998A      2.614141   999A      2.618210  
    1000A      2.621549  1001A      2.621557  1002A      2.634645  
    1003A      2.634942  1004A      2.634981  1005A      2.635199  
    1006A      2.647450  1007A      2.647598  1008A      2.649753  
    1009A      2.651106  1010A      2.651603  1011A      2.666948  
    1012A      2.684363  1013A      2.684463  1014A      2.688771  
    1015A      2.693827  1016A      2.694353  1017A      2.701785  
    1018A      2.701857  1019A      2.711245  1020A      2.711588  
    1021A      2.717816  1022A      2.744335  1023A      2.745107  
    1024A      2.745516  1025A      2.746779  1026A      2.765631  
    1027A      2.765962  1028A      2.775648  1029A      2.775654  
    1030A      2.780949  1031A      2.780967  1032A      2.784521  
    1033A      2.784742  1034A      2.801851  1035A      2.813341  
    1036A      2.813760  1037A      2.840012  1038A      2.857207  
    1039A      2.857351  1040A      2.877997  1041A      2.889533  
    1042A      2.890133  1043A      2.914766  1044A      2.914904  
    1045A      2.919950  1046A      2.921923  1047A      2.921947  
    1048A      2.922295  1049A      2.930692  1050A      2.960345  
    1051A      2.960464  1052A      2.977731  1053A      2.977758  
    1054A      2.982117  1055A      2.988627  1056A      2.994440  
    1057A      2.994498  1058A      3.011157  1059A      3.011196  
    1060A      3.023608  1061A      3.069910  1062A      3.070046  
    1063A      3.071737  1064A      3.089868  1065A      3.127253  
    1066A      3.127285  1067A      3.132828  1068A      3.132899  
    1069A      3.170698  1070A      3.171516  1071A      3.188135  
    1072A      3.190995  1073A      3.191291  1074A      3.198529  
    1075A      3.207751  1076A      3.207787  1077A      3.208387  
    1078A      3.209926  1079A      3.209937  1080A      3.218819  
    1081A      3.219219  1082A      3.226811  1083A      3.227295  
    1084A      3.251927  1085A      3.271383  1086A      3.281289  
    1087A      3.282830  1088A      3.298896  1089A      3.336987  
    1090A      3.338856  1091A      3.339016  1092A      3.344279  
    1093A      3.344423  1094A      3.479314  1095A      3.479770  
    1096A      3.510303  1097A      3.545093  1098A      3.547739  
    1099A      3.613439  1100A      3.641428  1101A      3.643424  
    1102A      3.657485  1103A      3.688626  1104A      3.690621  
    1105A      3.725148  1106A      3.732284  1107A      3.831776  
    1108A      3.846148  1109A      3.847157  1110A      3.931914  
    1111A      3.931926  1112A      3.974838  1113A      3.974946  
    1114A      4.039999  1115A      4.074106  1116A      4.098599  
    1117A      4.110473  1118A      4.149017  1119A      4.174556  
    1120A      4.175287  1121A      4.175348  1122A      4.202949  
    1123A      4.203068  1124A      4.203108  1125A      4.203746  
    1126A      4.203848  1127A      4.236152  1128A      4.236169  
    1129A      4.245457  1130A      4.450205  1131A      4.450384  
    1132A      4.450682  1133A      4.651399  1134A      4.652921  
    1135A      4.652980  1136A      4.751918  1137A      4.787394  
    1138A      4.787713  

    Final Occupation by Irrep:
              A 
    DOCC [   192 ]
    NA   [   192 ]
    NB   [   192 ]

  @DF-RHF Final Energy: -2478.65837290886930

   => Energetics <=

    Nuclear Repulsion Energy =           7572.5753337784171890
    One-Electron Energy =              -18497.8595226809484302
    Two-Electron Energy =                8446.6258159936623997
    Total Energy =                      -2478.6583729088688415

Computation Completed


Properties will be evaluated at   0.000000,   0.000000,   0.000000 [a0]

Properties computed using the SCF density matrix


 Multipole Moments:

 ------------------------------------------------------------------------------------
     Multipole            Electronic (a.u.)      Nuclear  (a.u.)        Total (a.u.)
 ------------------------------------------------------------------------------------

 L = 1.  Multiply by 2.5417464519 to convert [e a0] to [Debye]
 Dipole X            :         -0.0004987            0.0000481           -0.0004507
 Dipole Y            :          0.0010240           -0.0001453            0.0008787
 Dipole Z            :        -29.3839448           39.2342901            9.8503453
 Magnitude           :                                                    9.8503454

 ------------------------------------------------------------------------------------

*** tstop() called on d-16-9-3 at Sat Jan 20 22:16:31 2024
Module time:
	user time   =    3387.75 seconds =      56.46 minutes
	system time =      63.20 seconds =       1.05 minutes
	total time  =        368 seconds =       6.13 minutes
Total time:
	user time   =    3387.75 seconds =      56.46 minutes
	system time =      63.20 seconds =       1.05 minutes
	total time  =        368 seconds =       6.13 minutes

  //>>>>>>>>>>>>>>>>>>>>>>>>>>>>>>>>>>>//
  //            Monomer A HF           //
  //<<<<<<<<<<<<<<<<<<<<<<<<<<<<<<<<<<<//

   => Libint2 <=

    Primary   basis highest AM E, G, H:  7, 7, 4
    Auxiliary basis highest AM E, G, H:  7, 7, 5
    Onebody   basis highest AM E, G, H:  7, 7, 5
    Solid Harmonics ordering:            gaussian

*** tstart() called on d-16-9-3
*** at Sat Jan 20 22:16:31 2024

   => Loading Basis Set <=

    Name: JUN-CC-PVDZ
    Role: ORBITAL
    Keyword: BASIS
    atoms 1     entry B          line   130 file /home/gridsan/tfroembgen/.conda/envs/psi4test/share/psi4/basis/jun-cc-pvdz.gbs 
    atoms 2-5   entry F          line   266 file /home/gridsan/tfroembgen/.conda/envs/psi4test/share/psi4/basis/jun-cc-pvdz.gbs 
    atoms 6-59  entry C          line   164 file /home/gridsan/tfroembgen/.conda/envs/psi4test/share/psi4/basis/jun-cc-pvdz.gbs 
    atoms 60-77 entry H          line    36 file /home/gridsan/tfroembgen/.conda/envs/psi4test/share/psi4/basis/jun-cc-pvdz.gbs 


         ---------------------------------------------------------
                                   SCF
               by Justin Turney, Rob Parrish, Andy Simmonett
                          and Daniel G. A. Smith
                              RHF Reference
                       12 Threads,  30517 MiB Core
         ---------------------------------------------------------

  ==> Geometry <==

    Molecular point group: c1
    Full point group: C1

    Geometry (in Angstrom), charge = -1, multiplicity = 1:

       Center              X                  Y                   Z               Mass       
    ------------   -----------------  -----------------  -----------------  -----------------
         B           -0.000198161052     0.000273808717    -5.660637914394    11.009305360000
         F           -0.000000401852    -0.000000464183    -4.247852914394    18.998403162730
         F            1.147859598148     0.675780735817    -6.131778914394    18.998403162730
         F            0.011917658148    -1.332011464183    -6.131576914394    18.998403162730
         F           -1.159666401852     0.656073035817    -6.131497914394    18.998403162730
      Gh(C)           1.225311973413     0.707538196736     0.745465712890    12.000000000000
      Gh(C)           1.225323934041    -0.707538986754     0.733134903319    12.000000000000
      Gh(C)          -0.000006075942     1.414965821907     0.732601279798    12.000000000000
      Gh(C)           2.456448831939     1.418327794995     0.748352570289    12.000000000000
      Gh(C)           0.000010905269    -1.414976590818     0.742800837123    12.000000000000
      Gh(C)          -1.225300870919     0.707545281801     0.747717233212    12.000000000000
      Gh(C)           2.456437833310    -1.418323396064     0.730889746462    12.000000000000
      Gh(C)          -0.000001254988     2.836800939098     0.730197729664    12.000000000000
      Gh(C)           3.681826775460     0.709317863818     0.731238536260    12.000000000000
      Gh(C)           2.455120126855     2.834223569306     0.731135979300    12.000000000000
      Gh(C)           3.681821183209    -0.709333931612     0.747311020279    12.000000000000
      Gh(C)          -1.225313520698    -0.707527607727     0.734207664746    12.000000000000
      Gh(C)           1.226699659192     3.543469391811     0.747495052209    12.000000000000
      Gh(C)           0.000004862847    -2.836782231419     0.747649004745    12.000000000000
      Gh(C)          -2.456435954859     1.418316826102     0.747752629058    12.000000000000
      Gh(C)           2.455123495769    -2.834230120772     0.747159111911    12.000000000000
      Gh(C)          -1.226714286599     3.543468971567     0.747598385429    12.000000000000
      Gh(C)           4.914517373191     1.427172780306     0.737719219290    12.000000000000
      Gh(C)           3.693150269466     3.542795200362     0.737769018926    12.000000000000
      Gh(C)          -2.456437522078    -1.418313373022     0.730864708338    12.000000000000
      Gh(C)           1.226704919933    -3.543474334090     0.731524921460    12.000000000000
      Gh(C)          -2.455125320518     2.834216570451     0.731142355646    12.000000000000
      Gh(C)           4.914524458772    -1.427187002127     0.740691962024    12.000000000000
      Gh(C)           1.221424691688     4.970133973077     0.740830396284    12.000000000000
      Gh(C)           4.893008307311     2.825187907843     0.738935887648    12.000000000000
      Gh(C)          -1.226696930499    -3.543471089260     0.731792125869    12.000000000000
      Gh(C)          -3.681818898536     0.709324874549     0.731251216740    12.000000000000
      Gh(C)           3.693147179140    -3.542801433574     0.740809852585    12.000000000000
      Gh(C)          -1.221432174004     4.970128205680     0.741013891657    12.000000000000
      Gh(C)           6.134771050916     0.680547854922     0.738488993840    12.000000000000
      Gh(C)           3.656788958600     4.972953151384     0.738677656709    12.000000000000
      Gh(C)          -2.455126829744    -2.834215185244     0.746914754113    12.000000000000
      Gh(C)          -3.681819101071    -0.709325795652     0.747428641857    12.000000000000
      Gh(C)           4.893012695903    -2.825200197815     0.739547039544    12.000000000000
      Gh(C)          -0.000000995123     5.650447273849     0.739782582950    12.000000000000
      Gh(C)           6.134775190322    -0.680554946258     0.739754314355    12.000000000000
      Gh(C)           2.478131560845     5.653576659148     0.739966436358    12.000000000000
      Gh(C)           1.221422482727    -4.970127147116     0.738030899261    12.000000000000
      Gh(C)          -3.693162305975     3.542796862009     0.737934526385    12.000000000000
      Gh(C)          -1.221428442955    -4.970118395779     0.737918137429    12.000000000000
      Gh(C)          -4.914521729952     1.427175354812     0.737796164297    12.000000000000
      Gh(C)           3.656787097669    -4.972955318422     0.740128157243    12.000000000000
      Gh(C)          -2.478138452116     5.653574330345     0.740250961367    12.000000000000
      Gh(C)          -3.693141660574    -3.542790311162     0.740693726429    12.000000000000
      Gh(C)          -4.914512405063    -1.427181092211     0.740726659198    12.000000000000
      Gh(C)          -0.000005930936    -5.650438379197     0.739387078829    12.000000000000
      Gh(C)          -4.893020406111     2.825188506736     0.738925805788    12.000000000000
      Gh(C)           2.478126071288    -5.653573636072     0.739037556450    12.000000000000
      Gh(C)          -3.656798632268     4.972956089858     0.738854337083    12.000000000000
      Gh(C)          -4.892999400866    -2.825191859243     0.739393003846    12.000000000000
      Gh(C)          -2.478128420093    -5.653566262190     0.738762368803    12.000000000000
      Gh(C)          -6.134770425341     0.680548674073     0.738463442137    12.000000000000
      Gh(C)          -3.656788755199    -4.972944115154     0.739913869426    12.000000000000
      Gh(C)          -6.134764964923    -0.680554007665     0.739733838560    12.000000000000
      Gh(H)           5.835288573806     3.369275802771     0.743295213311     1.007825032230
      Gh(H)           7.073859250737     1.228217156716     0.738950637233     1.007825032230
      Gh(H)           4.600663342164     5.512380710270     0.739182857461     1.007825032230
      Gh(H)           5.835283465295    -3.369306148912     0.735092572229     1.007825032230
      Gh(H)          -0.000012073316     6.738530581953     0.735433337942     1.007825032230
      Gh(H)           7.073861249820    -1.228227034927     0.739245576261     1.007825032230
      Gh(H)           2.473313809789     6.740684199211     0.739499715428     1.007825032230
      Gh(H)           4.600668569371    -5.512376221359     0.739718160074     1.007825032230
      Gh(H)          -2.473318602548     6.740681627423     0.739801062053     1.007825032230
      Gh(H)          -0.000010190238    -6.738528268635     0.743916763813     1.007825032230
      Gh(H)          -5.835301836354     3.369270858113     0.743431235459     1.007825032230
      Gh(H)           2.473308001821    -6.740685466612     0.739607886875     1.007825032230
      Gh(H)          -4.600674763218     5.512377934420     0.739348185784     1.007825032230
      Gh(H)          -5.835279428845    -3.369289055963     0.734813266349     1.007825032230
      Gh(H)          -2.473300269450    -6.740679170323     0.739158570331     1.007825032230
      Gh(H)          -7.073857688778     1.228220380657     0.738866645752     1.007825032230
      Gh(H)          -4.600673708095    -5.512362761970     0.739545852052     1.007825032230
      Gh(H)          -7.073856856419    -1.228220724160     0.739150719795     1.007825032230

  Running in c1 symmetry.

  Rotational constants: A =      0.00155  B =      0.00155  C =      0.00110 [cm^-1]
  Rotational constants: A =     46.56155  B =     46.55653  C =     33.02251 [MHz]
  Nuclear repulsion =  178.879455044809106

  Charge       = -1
  Multiplicity = 1
  Electrons    = 42
  Nalpha       = 21
  Nbeta        = 21

  ==> Algorithm <==

  SCF Algorithm Type is DF.
  DIIS enabled.
  MOM disabled.
  Fractional occupation disabled.
  Guess Type is SAD.
  Energy threshold   = 1.00e-08
  Density threshold  = 1.00e-08
  Integral threshold = 1.00e-12

  ==> Primary Basis <==

  Basis Set: JUN-CC-PVDZ
    Blend: JUN-CC-PVDZ
    Number of shells: 526
    Number of basis functions: 1152
    Number of Cartesian functions: 1211
    Spherical Harmonics?: true
    Max angular momentum: 2

   => Loading Basis Set <=

    Name: (JUN-CC-PVDZ AUX)
    Role: JKFIT
    Keyword: DF_BASIS_SCF
    atoms 1     entry B          line    90 file /home/gridsan/tfroembgen/.conda/envs/psi4test/share/psi4/basis/jun-cc-pvdz-jkfit.gbs 
    atoms 2-5   entry F          line   314 file /home/gridsan/tfroembgen/.conda/envs/psi4test/share/psi4/basis/jun-cc-pvdz-jkfit.gbs 
    atoms 6-59  entry C          line   146 file /home/gridsan/tfroembgen/.conda/envs/psi4test/share/psi4/basis/jun-cc-pvdz-jkfit.gbs 
    atoms 60-77 entry H          line    70 file /home/gridsan/tfroembgen/.conda/envs/psi4test/share/psi4/basis/jun-cc-pvdz-jkfit.gbs 

  ==> Integral Setup <==

  ==> DiskDFJK: Density-Fitted J/K Matrices <==

    J tasked:                  Yes
    K tasked:                  Yes
    wK tasked:                  No
    OpenMP threads:             12
    Integrals threads:          12
    Memory [MiB]:            22888
    Algorithm:                Core
    Integral Cache:           LOAD
    Schwarz Cutoff:          1E-12
    Fitting Condition:       1E-10

   => Auxiliary Basis Set <=

  Basis Set: (JUN-CC-PVDZ AUX)
    Blend: JUN-CC-PVDZ-JKFIT
    Number of shells: 1755
    Number of basis functions: 5075
    Number of Cartesian functions: 5819
    Spherical Harmonics?: true
    Max angular momentum: 3

  Minimum eigenvalue in the overlap matrix is 8.3985126323E-10.
  Reciprocal condition number of the overlap matrix is 3.7460745235E-11.
    Using canonical orthogonalization.
  Overall, 14 of 1152 possible MOs eliminated.


  ==> Pre-Iterations <==

  SCF Guess: Superposition of Atomic Densities via on-the-fly atomic UHF (no occupation information).

   -------------------------
    Irrep   Nso     Nmo    
   -------------------------
     A       1152    1138 
   -------------------------
    Total    1152    1138
   -------------------------

  ==> Iterations <==

                           Total Energy        Delta E     RMS |[F,P]|

   @DF-RHF iter SAD:  -421.23044343672302   -4.21230e+02   0.00000e+00 
   @DF-RHF iter   1:  -422.64987291463638   -1.41943e+00   5.29906e-04 DIIS/ADIIS
   @DF-RHF iter   2:  -422.73266862461207   -8.27957e-02   3.22975e-04 DIIS/ADIIS
   @DF-RHF iter   3:  -422.77123733680418   -3.85687e-02   1.73907e-05 DIIS
   @DF-RHF iter   4:  -422.77159795335143   -3.60617e-04   2.75412e-06 DIIS
   @DF-RHF iter   5:  -422.77160660258704   -8.64924e-06   7.03034e-07 DIIS
   @DF-RHF iter   6:  -422.77160716231430   -5.59727e-07   1.44795e-07 DIIS
   @DF-RHF iter   7:  -422.77160718336216   -2.10479e-08   1.40989e-08 DIIS
   @DF-RHF iter   8:  -422.77160718357419   -2.12026e-10   3.93992e-09 DIIS
  Energy and wave function converged.


  ==> Post-Iterations <==

    Orbital Energies [Eh]
    ---------------------

    Doubly Occupied:                                                      

       1A    -26.067091     2A    -26.067003     3A    -26.066991  
       4A    -26.066911     5A     -7.539258     6A     -1.410931  
       7A     -1.351233     8A     -1.351177     9A     -1.351049  
      10A     -0.602215    11A     -0.528416    12A     -0.528396  
      13A     -0.528328    14A     -0.447274    15A     -0.447232  
      16A     -0.408455    17A     -0.408428    18A     -0.408348  
      19A     -0.384960    20A     -0.384930    21A     -0.384872  

    Virtual:                                                              

      22A      0.080341    23A      0.082017    24A      0.082019  
      25A      0.089915    26A      0.089921    27A      0.101751  
      28A      0.102604    29A      0.104258    30A      0.118624  
      31A      0.118625    32A      0.120425    33A      0.120429  
      34A      0.130253    35A      0.135743    36A      0.135751  
      37A      0.137127    38A      0.137137    39A      0.137844  
      40A      0.137860    41A      0.145736    42A      0.148868  
      43A      0.148876    44A      0.157604    45A      0.158527  
      46A      0.159146    47A      0.163326    48A      0.168074  
      49A      0.169338    50A      0.170959    51A      0.170962  
      52A      0.171685    53A      0.178191    54A      0.178203  
      55A      0.180228    56A      0.180232    57A      0.185512  
      58A      0.185533    59A      0.188208    60A      0.188223  
      61A      0.190660    62A      0.191276    63A      0.191284  
      64A      0.193834    65A      0.194764    66A      0.194785  
      67A      0.201387    68A      0.201407    69A      0.205673  
      70A      0.205675    71A      0.208820    72A      0.211140  
      73A      0.211157    74A      0.211225    75A      0.214591  
      76A      0.214603    77A      0.215657    78A      0.217407  
      79A      0.217761    80A      0.217765    81A      0.224255  
      82A      0.224257    83A      0.227077    84A      0.232341  
      85A      0.236686    86A      0.236689    87A      0.237144  
      88A      0.237333    89A      0.240837    90A      0.242080  
      91A      0.242093    92A      0.250761    93A      0.250767  
      94A      0.250851    95A      0.252281    96A      0.252420  
      97A      0.254709    98A      0.254951    99A      0.261309  
     100A      0.261311   101A      0.264458   102A      0.264473  
     103A      0.268004   104A      0.268013   105A      0.269541  
     106A      0.271543   107A      0.271557   108A      0.276024  
     109A      0.276036   110A      0.280914   111A      0.280921  
     112A      0.280987   113A      0.286778   114A      0.287945  
     115A      0.287951   116A      0.290504   117A      0.293416  
     118A      0.293447   119A      0.294777   120A      0.294789  
     121A      0.298901   122A      0.305241   123A      0.305446  
     124A      0.310572   125A      0.310583   126A      0.313120  
     127A      0.314032   128A      0.314041   129A      0.319731  
     130A      0.319759   131A      0.321346   132A      0.321351  
     133A      0.323007   134A      0.323025   135A      0.329695  
     136A      0.335545   137A      0.335551   138A      0.339570  
     139A      0.340014   140A      0.340934   141A      0.340950  
     142A      0.344341   143A      0.344503   144A      0.344510  
     145A      0.345001   146A      0.345008   147A      0.352842  
     148A      0.353981   149A      0.356974   150A      0.361590  
     151A      0.361610   152A      0.363698   153A      0.367403  
     154A      0.367443   155A      0.372939   156A      0.381981  
     157A      0.382534   158A      0.382552   159A      0.383450  
     160A      0.383485   161A      0.389179   162A      0.389275  
     163A      0.389320   164A      0.392592   165A      0.392607  
     166A      0.393999   167A      0.394558   168A      0.394657  
     169A      0.400273   170A      0.404107   171A      0.405640  
     172A      0.405708   173A      0.412703   174A      0.417575  
     175A      0.417597   176A      0.421156   177A      0.421327  
     178A      0.424316   179A      0.426783   180A      0.428265  
     181A      0.428771   182A      0.428816   183A      0.428837  
     184A      0.433426   185A      0.433645   186A      0.433819  
     187A      0.435187   188A      0.435329   189A      0.443504  
     190A      0.443740   191A      0.443779   192A      0.444727  
     193A      0.445259   194A      0.447876   195A      0.447960  
     196A      0.450210   197A      0.450461   198A      0.455792  
     199A      0.463311   200A      0.464723   201A      0.464774  
     202A      0.465225   203A      0.465385   204A      0.471464  
     205A      0.473438   206A      0.473507   207A      0.474519  
     208A      0.478349   209A      0.478368   210A      0.478693  
     211A      0.489981   212A      0.491686   213A      0.491753  
     214A      0.493054   215A      0.494237   216A      0.494252  
     217A      0.500725   218A      0.501645   219A      0.501747  
     220A      0.504052   221A      0.504644   222A      0.504672  
     223A      0.504829   224A      0.509227   225A      0.509303  
     226A      0.510030   227A      0.510224   228A      0.513917  
     229A      0.516315   230A      0.516637   231A      0.520041  
     232A      0.520675   233A      0.521068   234A      0.522027  
     235A      0.528659   236A      0.529341   237A      0.529395  
     238A      0.533293   239A      0.536559   240A      0.536658  
     241A      0.541122   242A      0.544473   243A      0.544576  
     244A      0.545559   245A      0.545596   246A      0.548880  
     247A      0.551009   248A      0.551263   249A      0.551268  
     250A      0.559995   251A      0.560076   252A      0.561190  
     253A      0.561316   254A      0.563809   255A      0.565857  
     256A      0.566885   257A      0.567126   258A      0.576431  
     259A      0.579354   260A      0.579388   261A      0.581987  
     262A      0.582014   263A      0.587763   264A      0.589373  
     265A      0.590220   266A      0.592014   267A      0.592197  
     268A      0.593510   269A      0.593593   270A      0.595546  
     271A      0.595855   272A      0.597740   273A      0.607788  
     274A      0.607804   275A      0.612029   276A      0.612061  
     277A      0.613492   278A      0.616801   279A      0.620965  
     280A      0.627278   281A      0.627293   282A      0.630612  
     283A      0.630622   284A      0.633292   285A      0.633323  
     286A      0.635786   287A      0.636453   288A      0.641584  
     289A      0.643754   290A      0.643766   291A      0.655003  
     292A      0.655021   293A      0.655078   294A      0.660126  
     295A      0.660150   296A      0.661028   297A      0.671649  
     298A      0.671694   299A      0.674501   300A      0.674580  
     301A      0.675076   302A      0.677154   303A      0.677164  
     304A      0.680306   305A      0.681870   306A      0.681909  
     307A      0.687969   308A      0.688061   309A      0.697191  
     310A      0.701799   311A      0.703313   312A      0.703320  
     313A      0.707753   314A      0.708353   315A      0.708357  
     316A      0.712067   317A      0.715743   318A      0.715770  
     319A      0.726391   320A      0.729227   321A      0.733312  
     322A      0.734277   323A      0.734642   324A      0.734753  
     325A      0.742200   326A      0.742215   327A      0.742647  
     328A      0.745701   329A      0.745720   330A      0.746714  
     331A      0.750237   332A      0.750273   333A      0.750734  
     334A      0.759809   335A      0.759834   336A      0.764640  
     337A      0.768188   338A      0.768464   339A      0.774621  
     340A      0.774717   341A      0.781236   342A      0.781276  
     343A      0.783719   344A      0.783796   345A      0.784593  
     346A      0.792651   347A      0.792670   348A      0.792725  
     349A      0.803338   350A      0.803529   351A      0.805842  
     352A      0.808024   353A      0.808033   354A      0.822639  
     355A      0.822653   356A      0.823211   357A      0.824948  
     358A      0.827631   359A      0.834997   360A      0.835009  
     361A      0.837014   362A      0.838756   363A      0.838788  
     364A      0.843718   365A      0.844108   366A      0.844278  
     367A      0.844496   368A      0.850013   369A      0.850043  
     370A      0.854371   371A      0.859619   372A      0.860006  
     373A      0.860572   374A      0.860599   375A      0.865248  
     376A      0.865312   377A      0.867274   378A      0.867290  
     379A      0.869483   380A      0.872137   381A      0.881434  
     382A      0.899479   383A      0.899483   384A      0.911929  
     385A      0.911942   386A      0.933970   387A      0.938636  
     388A      0.938736   389A      0.940205   390A      0.945326  
     391A      0.945699   392A      0.945706   393A      0.947912  
     394A      0.947928   395A      0.955132   396A      0.955163  
     397A      0.962139   398A      0.962179   399A      0.964797  
     400A      0.967313   401A      0.998350   402A      0.998378  
     403A      0.999205   404A      1.013467   405A      1.022189  
     406A      1.022224   407A      1.032722   408A      1.032758  
     409A      1.040705   410A      1.047469   411A      1.055892  
     412A      1.055907   413A      1.073327   414A      1.076180  
     415A      1.099691   416A      1.099728   417A      1.119670  
     418A      1.119720   419A      1.124438   420A      1.126376  
     421A      1.126390   422A      1.136669   423A      1.136699  
     424A      1.161077   425A      1.163559   426A      1.163575  
     427A      1.171373   428A      1.224375   429A      1.224436  
     430A      1.228225   431A      1.228366   432A      1.232571  
     433A      1.242775   434A      1.244645   435A      1.244654  
     436A      1.263643   437A      1.263690   438A      1.282187  
     439A      1.286050   440A      1.286053   441A      1.291924  
     442A      1.299961   443A      1.347143   444A      1.347245  
     445A      1.357506   446A      1.364649   447A      1.364690  
     448A      1.372188   449A      1.373041   450A      1.373089  
     451A      1.386739   452A      1.386829   453A      1.396066  
     454A      1.398972   455A      1.423265   456A      1.427165  
     457A      1.438907   458A      1.438965   459A      1.486124  
     460A      1.513821   461A      1.514371   462A      1.531781  
     463A      1.531804   464A      1.538246   465A      1.538650  
     466A      1.538852   467A      1.541724   468A      1.551541  
     469A      1.552429   470A      1.616514   471A      1.624158  
     472A      1.624218   473A      1.626759   474A      1.627983  
     475A      1.639749   476A      1.639759   477A      1.639925  
     478A      1.642217   479A      1.696198   480A      1.706426  
     481A      1.708548   482A      1.719495   483A      1.722279  
     484A      1.729868   485A      1.737295   486A      1.737377  
     487A      1.754468   488A      1.755128   489A      1.757150  
     490A      1.758886   491A      1.772105   492A      1.809415  
     493A      1.810741   494A      1.811093   495A      1.811924  
     496A      1.813141   497A      1.818988   498A      1.823375  
     499A      1.823720   500A      1.828651   501A      1.837183  
     502A      1.837274   503A      1.845763   504A      1.856382  
     505A      1.857290   506A      1.861678   507A      1.862453  
     508A      1.871201   509A      1.881949   510A      1.893575  
     511A      1.893985   512A      1.895462   513A      1.895806  
     514A      1.895900   515A      1.897027   516A      1.899433  
     517A      1.899776   518A      1.901684   519A      1.904908  
     520A      1.904989   521A      1.909902   522A      1.910025  
     523A      1.917334   524A      1.925644   525A      1.926342  
     526A      1.936134   527A      1.936212   528A      1.942057  
     529A      1.946739   530A      1.949988   531A      1.952003  
     532A      1.952343   533A      1.954126   534A      1.955166  
     535A      1.969480   536A      1.969744   537A      1.974496  
     538A      1.974906   539A      1.975445   540A      1.975870  
     541A      1.977663   542A      1.980924   543A      1.986087  
     544A      1.986455   545A      1.994950   546A      1.995399  
     547A      1.997515   548A      1.997679   549A      2.000624  
     550A      2.004482   551A      2.008188   552A      2.009097  
     553A      2.009118   554A      2.016178   555A      2.023143  
     556A      2.023206   557A      2.029726   558A      2.036855  
     559A      2.038429   560A      2.038765   561A      2.043159  
     562A      2.043342   563A      2.053892   564A      2.053999  
     565A      2.055324   566A      2.055375   567A      2.059388  
     568A      2.062243   569A      2.066522   570A      2.066567  
     571A      2.069087   572A      2.069200   573A      2.069496  
     574A      2.074195   575A      2.088676   576A      2.088715  
     577A      2.097120   578A      2.097344   579A      2.131429  
     580A      2.135700   581A      2.135774   582A      2.137785  
     583A      2.142334   584A      2.142447   585A      2.146271  
     586A      2.150043   587A      2.150785   588A      2.150895  
     589A      2.161526   590A      2.161770   591A      2.161824  
     592A      2.166032   593A      2.170131   594A      2.182502  
     595A      2.182594   596A      2.186983   597A      2.188771  
     598A      2.195368   599A      2.196361   600A      2.196387  
     601A      2.205781   602A      2.205867   603A      2.206201  
     604A      2.207398   605A      2.207419   606A      2.214167  
     607A      2.214204   608A      2.215171   609A      2.216484  
     610A      2.217644   611A      2.217662   612A      2.221566  
     613A      2.221603   614A      2.222521   615A      2.227764  
     616A      2.227772   617A      2.229192   618A      2.231125  
     619A      2.231134   620A      2.235154   621A      2.237406  
     622A      2.237439   623A      2.239099   624A      2.242560  
     625A      2.243088   626A      2.243206   627A      2.245389  
     628A      2.245428   629A      2.248001   630A      2.248230  
     631A      2.250916   632A      2.250956   633A      2.251006  
     634A      2.251273   635A      2.255374   636A      2.255505  
     637A      2.262414   638A      2.262608   639A      2.264370  
     640A      2.264435   641A      2.264921   642A      2.285457  
     643A      2.285480   644A      2.304937   645A      2.305473  
     646A      2.310837   647A      2.310853   648A      2.315380  
     649A      2.315474   650A      2.318446   651A      2.318455  
     652A      2.321870   653A      2.335244   654A      2.335981  
     655A      2.336060   656A      2.341344   657A      2.341433  
     658A      2.342520   659A      2.353128   660A      2.353154  
     661A      2.359564   662A      2.359580   663A      2.364054  
     664A      2.376192   665A      2.376276   666A      2.384784  
     667A      2.396140   668A      2.396225   669A      2.396901  
     670A      2.396943   671A      2.400789   672A      2.407320  
     673A      2.412629   674A      2.412647   675A      2.412717  
     676A      2.426141   677A      2.427576   678A      2.433010  
     679A      2.433046   680A      2.435688   681A      2.435810  
     682A      2.438088   683A      2.438134   684A      2.439724  
     685A      2.442110   686A      2.446846   687A      2.446959  
     688A      2.447023   689A      2.456536   690A      2.456677  
     691A      2.456919   692A      2.461069   693A      2.464956  
     694A      2.477315   695A      2.477454   696A      2.483936  
     697A      2.484241   698A      2.484582   699A      2.486534  
     700A      2.486645   701A      2.489979   702A      2.490007  
     703A      2.498355   704A      2.507706   705A      2.515054  
     706A      2.515071   707A      2.522677   708A      2.522700  
     709A      2.533435   710A      2.535816   711A      2.538163  
     712A      2.538217   713A      2.539071   714A      2.539179  
     715A      2.542831   716A      2.553344   717A      2.553847  
     718A      2.553910   719A      2.564789   720A      2.570346  
     721A      2.570424   722A      2.572782   723A      2.572814  
     724A      2.582016   725A      2.591639   726A      2.594318  
     727A      2.603113   728A      2.603173   729A      2.609924  
     730A      2.610487   731A      2.615898   732A      2.615925  
     733A      2.616738   734A      2.616837   735A      2.623777  
     736A      2.627757   737A      2.627822   738A      2.632640  
     739A      2.640479   740A      2.647574   741A      2.647694  
     742A      2.672328   743A      2.672590   744A      2.672874  
     745A      2.690487   746A      2.692590   747A      2.692640  
     748A      2.699888   749A      2.699957   750A      2.700005  
     751A      2.700062   752A      2.700912   753A      2.715304  
     754A      2.716701   755A      2.717049   756A      2.720131  
     757A      2.724699   758A      2.725082   759A      2.726736  
     760A      2.726805   761A      2.743689   762A      2.743817  
     763A      2.759751   764A      2.759786   765A      2.768297  
     766A      2.768558   767A      2.775246   768A      2.777729  
     769A      2.779002   770A      2.781977   771A      2.782213  
     772A      2.786623   773A      2.786664   774A      2.792067  
     775A      2.792134   776A      2.811397   777A      2.811482  
     778A      2.813124   779A      2.813826   780A      2.813933  
     781A      2.817363   782A      2.825892   783A      2.825968  
     784A      2.826971   785A      2.836332   786A      2.840760  
[...]
     709A      1.367385   710A      1.380093   711A      1.391580  
     712A      1.401647   713A      1.404807   714A      1.404828  
     715A      1.408234   716A      1.408249   717A      1.412409  
     718A      1.412440   719A      1.420087   720A      1.422260  
     721A      1.427329   722A      1.427423   723A      1.429598  
     724A      1.429854   725A      1.436477   726A      1.436525  
     727A      1.439302   728A      1.439899   729A      1.440012  
     730A      1.440785   731A      1.448462   732A      1.448470  
     733A      1.450526   734A      1.463815   735A      1.463827  
     736A      1.473598   737A      1.473775   738A      1.516663  
     739A      1.516712   740A      1.521381   741A      1.521403  
     742A      1.531347   743A      1.552367   744A      1.576754  
     745A      1.600047   746A      1.600221   747A      1.600789  
     748A      1.607779   749A      1.609154   750A      1.609186  
     751A      1.609974   752A      1.612951   753A      1.613123  
     754A      1.617679   755A      1.622001   756A      1.622091  
     757A      1.630205   758A      1.630538   759A      1.639375  
     760A      1.639418   761A      1.643551   762A      1.643583  
     763A      1.643654   764A      1.644025   765A      1.649390  
     766A      1.649437   767A      1.650901   768A      1.661437  
     769A      1.661475   770A      1.667439   771A      1.676378  
     772A      1.676504   773A      1.676763   774A      1.676835  
     775A      1.677044   776A      1.683091   777A      1.686697  
     778A      1.686750   779A      1.695107   780A      1.696064  
     781A      1.699319   782A      1.699365   783A      1.700968  
     784A      1.704790   785A      1.704864   786A      1.709991  
     787A      1.715753   788A      1.715772   789A      1.741702  
     790A      1.745054   791A      1.745266   792A      1.751427  
     793A      1.760499   794A      1.760521   795A      1.761083  
     796A      1.761853   797A      1.776767   798A      1.776789  
     799A      1.791667   800A      1.791687   801A      1.816588  
     802A      1.816629   803A      1.817495   804A      1.820156  
     805A      1.824715   806A      1.824815   807A      1.830971  
     808A      1.831050   809A      1.835017   810A      1.842424  
     811A      1.842736   812A      1.860692   813A      1.860836  
     814A      1.860889   815A      1.863424   816A      1.863462  
     817A      1.864065   818A      1.871262   819A      1.872852  
     820A      1.880220   821A      1.880275   822A      1.896254  
     823A      1.896353   824A      1.899613   825A      1.903012  
     826A      1.903140   827A      1.908686   828A      1.908800  
     829A      1.915085   830A      1.915344   831A      1.917750  
     832A      1.917898   833A      1.919255   834A      1.922021  
     835A      1.922107   836A      1.940458   837A      1.941204  
     838A      1.941959   839A      1.942129   840A      1.946446  
     841A      1.946474   842A      1.954371   843A      1.954462  
     844A      1.955682   845A      1.955698   846A      1.958025  
     847A      1.971464   848A      1.983118   849A      1.983210  
     850A      1.990501   851A      1.997124   852A      1.998539  
     853A      1.998565   854A      2.005206   855A      2.008070  
     856A      2.012337   857A      2.012497   858A      2.027867  
     859A      2.029784   860A      2.030362   861A      2.030810  
     862A      2.031267   863A      2.031470   864A      2.032043  
     865A      2.047884   866A      2.052284   867A      2.052564  
     868A      2.057869   869A      2.058773   870A      2.061542  
     871A      2.061596   872A      2.068272   873A      2.071985  
     874A      2.072394   875A      2.072491   876A      2.075825  
     877A      2.075947   878A      2.083068   879A      2.086314  
     880A      2.086435   881A      2.092841   882A      2.094934  
     883A      2.096342   884A      2.096871   885A      2.100543  
     886A      2.100616   887A      2.108276   888A      2.108357  
     889A      2.108388   890A      2.109868   891A      2.109916  
     892A      2.113901   893A      2.117550   894A      2.119296  
     895A      2.119349   896A      2.120841   897A      2.120953  
     898A      2.126946   899A      2.127021   900A      2.134410  
     901A      2.134588   902A      2.135781   903A      2.135865  
     904A      2.143199   905A      2.143220   906A      2.155958  
     907A      2.159774   908A      2.159784   909A      2.163163  
     910A      2.163181   911A      2.171266   912A      2.178234  
     913A      2.178311   914A      2.190627   915A      2.191003  
     916A      2.192525   917A      2.194189   918A      2.195879  
     919A      2.196000   920A      2.198385   921A      2.219704  
     922A      2.220309   923A      2.220341   924A      2.228119  
     925A      2.228659   926A      2.230083   927A      2.230271  
     928A      2.243276   929A      2.243627   930A      2.243889  
     931A      2.244285   932A      2.247102   933A      2.260178  
     934A      2.260294   935A      2.270157   936A      2.270168  
     937A      2.272082   938A      2.272128   939A      2.281064  
     940A      2.300202   941A      2.306689   942A      2.310579  
     943A      2.312601   944A      2.322231   945A      2.324833  
     946A      2.331048   947A      2.331156   948A      2.331248  
     949A      2.334372   950A      2.350708   951A      2.351389  
     952A      2.352668   953A      2.352780   954A      2.366508  
     955A      2.366637   956A      2.374604   957A      2.381510  
     958A      2.415954   959A      2.424023   960A      2.424408  
     961A      2.424433   962A      2.436471   963A      2.441143  
     964A      2.441187   965A      2.469902   966A      2.472917  
     967A      2.473083   968A      2.485437   969A      2.485473  
     970A      2.502319   971A      2.519472   972A      2.529827  
     973A      2.530143   974A      2.543869   975A      2.545852  
     976A      2.545889   977A      2.554173   978A      2.554241  
     979A      2.554861   980A      2.559946   981A      2.559953  
     982A      2.572988   983A      2.573023   984A      2.574713  
     985A      2.575257   986A      2.586321   987A      2.586443  
     988A      2.587354   989A      2.589838   990A      2.591412  
     991A      2.606009   992A      2.623541   993A      2.623634  
     994A      2.626041   995A      2.631371   996A      2.631910  
     997A      2.641197   998A      2.641267   999A      2.650844  
    1000A      2.651195  1001A      2.656857  1002A      2.681917  
    1003A      2.683086  1004A      2.683988  1005A      2.686945  
    1006A      2.701958  1007A      2.702286  1008A      2.713037  
    1009A      2.713044  1010A      2.718703  1011A      2.718723  
    1012A      2.722559  1013A      2.722785  1014A      2.738669  
    1015A      2.752345  1016A      2.752750  1017A      2.776953  
    1018A      2.794319  1019A      2.794475  1020A      2.812831  
    1021A      2.813436  1022A      2.814588  1023A      2.826748  
    1024A      2.827129  1025A      2.827479  1026A      2.853000  
    1027A      2.853134  1028A      2.856081  1029A      2.858366  
    1030A      2.859390  1031A      2.859474  1032A      2.871982  
    1033A      2.916855  1034A      2.916882  1035A      2.924546  
    1036A      2.933592  1037A      2.933648  1038A      2.949680  
    1039A      2.949709  1040A      2.962745  1041A      3.007043  
    1042A      3.007224  1043A      3.011876  1044A      3.029445  
    1045A      3.064168  1046A      3.064202  1047A      3.070553  
    1048A      3.070633  1049A      3.109653  1050A      3.110477  
    1051A      3.127913  1052A      3.129732  1053A      3.130028  
    1054A      3.137469  1055A      3.146698  1056A      3.146735  
    1057A      3.147051  1058A      3.149028  1059A      3.149037  
    1060A      3.157716  1061A      3.158103  1062A      3.165686  
    1063A      3.166174  1064A      3.191623  1065A      3.211152  
    1066A      3.219302  1067A      3.237574  1068A      3.273876  
    1069A      3.276922  1070A      3.277063  1071A      3.282117  
    1072A      3.282261  1073A      3.416303  1074A      3.416772  
    1075A      3.443073  1076A      3.481572  1077A      3.484245  
    1078A      3.549395  1079A      3.577301  1080A      3.579310  
    1081A      3.593836  1082A      3.626501  1083A      3.628489  
    1084A      3.663129  1085A      3.670174  1086A      3.769245  
    1087A      3.782742  1088A      3.783713  1089A      3.870767  
    1090A      3.870779  1091A      3.913132  1092A      3.913242  
    1093A      3.976951  1094A      4.010963  1095A      4.033008  
    1096A      4.044846  1097A      4.083069  1098A      4.193589  
    1099A      4.193648  1100A      4.215758  1101A      4.338535  
    1102A      5.747614  1103A      5.748962  1104A      5.748971  
    1105A      5.753234  1106A      5.753241  1107A      5.757547  
    1108A      5.760297  1109A      5.760300  1110A      5.779485  
    1111A      5.779528  1112A      5.789071  1113A      6.018941  
    1114A      6.020147  1115A      6.020488  1116A      6.193197  
    1117A      6.326340  1118A      6.326673  1119A      6.374491  
    1120A      6.374829  1121A      6.375682  1122A      7.161155  
    1123A      7.161225  1124A      7.231135  1125A      7.231198  
    1126A      7.232629  1127A      7.239941  1128A      7.274854  
    1129A      7.274936  1130A      7.457453  1131A      7.457605  
    1132A      7.506880  1133A      7.605619  1134A     12.603043  
    1135A     42.908722  1136A     42.908771  1137A     42.915339  
    1138A     42.939725  

    Final Occupation by Irrep:
              A 
    DOCC [   171 ]
    NA   [   171 ]
    NB   [   171 ]

  @DF-RHF Final Energy: -2055.89201100017362

   => Energetics <=

    Nuclear Repulsion Energy =           6452.5568002797772351
    One-Electron Energy =              -15636.4379527312648861
    Two-Electron Energy =                7127.9891414513140262
    Total Energy =                      -2055.8920110001736248

Computation Completed


Properties will be evaluated at   0.000000,   0.000000,   0.000000 [a0]

Properties computed using the SCF density matrix


 Multipole Moments:

 ------------------------------------------------------------------------------------
     Multipole            Electronic (a.u.)      Nuclear  (a.u.)        Total (a.u.)
 ------------------------------------------------------------------------------------

 L = 1.  Multiply by 2.5417464519 to convert [e a0] to [Debye]
 Dipole X            :          0.0000466            0.0000419            0.0000885
 Dipole Y            :          0.0000340           -0.0000426           -0.0000086
 Dipole Z            :       -477.8131206          477.8161958            0.0030752
 Magnitude           :                                                    0.0030764

 ------------------------------------------------------------------------------------

*** tstop() called on d-16-9-3 at Sat Jan 20 22:22:24 2024
Module time:
	user time   =    2123.52 seconds =      35.39 minutes
	system time =      42.31 seconds =       0.71 minutes
	total time  =        221 seconds =       3.68 minutes
Total time:
	user time   =    6747.09 seconds =     112.45 minutes
	system time =     141.58 seconds =       2.36 minutes
	total time  =        721 seconds =      12.02 minutes
  Constructing Basis Sets for SAPT...

   => Loading Basis Set <=

    Name: (JUN-CC-PVDZ AUX)
    Role: RIFIT
    Keyword: DF_BASIS_SAPT
    atoms 1     entry B          line    56 file /home/gridsan/tfroembgen/.conda/envs/psi4test/share/psi4/basis/jun-cc-pvdz-ri.gbs 
    atoms 2-5   entry F          line   232 file /home/gridsan/tfroembgen/.conda/envs/psi4test/share/psi4/basis/jun-cc-pvdz-ri.gbs 
    atoms 6-59  entry C          line   100 file /home/gridsan/tfroembgen/.conda/envs/psi4test/share/psi4/basis/jun-cc-pvdz-ri.gbs 
    atoms 60-77 entry H          line    30 file /home/gridsan/tfroembgen/.conda/envs/psi4test/share/psi4/basis/jun-cc-pvdz-ri.gbs 

   => Loading Basis Set <=

    Name: (JUN-CC-PVDZ AUX)
    Role: JKFIT
    Keyword: DF_BASIS_ELST
    atoms 1     entry B          line    90 file /home/gridsan/tfroembgen/.conda/envs/psi4test/share/psi4/basis/jun-cc-pvdz-jkfit.gbs 
    atoms 2-5   entry F          line   314 file /home/gridsan/tfroembgen/.conda/envs/psi4test/share/psi4/basis/jun-cc-pvdz-jkfit.gbs 
    atoms 6-59  entry C          line   146 file /home/gridsan/tfroembgen/.conda/envs/psi4test/share/psi4/basis/jun-cc-pvdz-jkfit.gbs 
    atoms 60-77 entry H          line    70 file /home/gridsan/tfroembgen/.conda/envs/psi4test/share/psi4/basis/jun-cc-pvdz-jkfit.gbs 


  //>>>>>>>>>>>>>>>>>>>>>>>>>>>>>>>>>>>//
  //               SSAPT0              //
  //<<<<<<<<<<<<<<<<<<<<<<<<<<<<<<<<<<<//


*** tstart() called on d-16-9-3
*** at Sat Jan 20 22:22:25 2024

        SAPT0  
    Ed Hohenstein
     6 June 2009

      Orbital Information
  --------------------------
    NSO        =      1152
    NMO        =      1138
    NRI        =      4087
    NRI (Elst) =      5075
    NOCC A     =        21
    NOCC B     =       171
    FOCC A     =         5
    FOCC B     =        54
    NVIR A     =      1117
    NVIR B     =       967

    Elst10,r            =     0.008469435803 [Eh]
    Exch10              =     0.000000661559 [Eh]
    Exch10 (S^2)        =     0.000000661574 [Eh]

    Iter     Energy [mEh]          dE [mEh]         Residual      Time [s]
       1      -0.00705713       0.007057131       0.616099012           300
       2      -0.00827300       0.001215866       0.321674246           440
       3      -0.00880398       0.000530983       0.056613030           491
       4      -0.00879983      -0.000004149       0.012634363           503
       5      -0.00878791      -0.000011919       0.001819400           516
       6      -0.00878993       0.000002014       0.000315260           527
       7      -0.00878983      -0.000000095       0.000092884           539
       8      -0.00878981      -0.000000026       0.000023506           552
       9      -0.00878980      -0.000000003       0.000004103           564
      10      -0.00878981       0.000000002       0.000000555           576

    CHF Iterations converged


    Iter     Energy [mEh]          dE [mEh]         Residual      Time [s]
       1      -4.69314532       4.693145320      36.098295560           118
       2      -3.17232145      -1.520823868       4.616593059           247
       3      -3.17038417      -0.001937278       1.602296588           265
       4      -3.24492032       0.074536144       0.362310116           281
       5      -3.24850729       0.003586978       0.105257060           299
       6      -3.24695324      -0.001554055       0.051984136           316
       7      -3.24645681      -0.000496433       0.024594052           333
       8      -3.24676973       0.000312924       0.015476970           351
       9      -3.24686670       0.000096968       0.010162957           368
      10      -3.24677215      -0.000094552       0.005175584           386
      11      -3.24676381      -0.000008336       0.001888466           401
      12      -3.24677430       0.000010491       0.000783609           416
      13      -3.24677735       0.000003051       0.000299539           433
      14      -3.24677680      -0.000000551       0.000107610           450
      15      -3.24677592      -0.000000886       0.000033087           466
      16      -3.24677611       0.000000191       0.000017546           484
      17      -3.24677616       0.000000053       0.000007949           502
      18      -3.24677614      -0.000000015       0.000002892           519
      19      -3.24677613      -0.000000015       0.000001163           535
      20      -3.24677613      -0.000000001       0.000000381           553

    CHF Iterations converged

    Ind20,r (A<-B)      =    -0.000008789805 [Eh]
    Ind20,r (B<-A)      =    -0.003246776129 [Eh]
    Ind20,r             =    -0.003255565934 [Eh]
    Exch-Ind20,r (A<-B) =     0.000000407149 [Eh]
    Exch-Ind20,r (B<-A) =     0.000001591386 [Eh]
    Exch-Ind20,r        =     0.000001998536 [Eh]
    Disp20              =    -0.000697384323 [Eh]
    Disp20 (SS)         =    -0.000348692161 [Eh]
    Disp20 (OS)         =    -0.000348692161 [Eh]
    Exch-Disp20         =     0.000001473225 [Eh]
    Exch-Disp20 (SS)    =     0.000001118992 [Eh]
    Exch-Disp20 (OS)    =     0.000000354233 [Eh]

    SAPT Results 
  --------------------------------------------------------------------------------------------------------
    Electrostatics                  8.46943580 [mEh]       5.31465120 [kcal/mol]      22.23650064 [kJ/mol]
      Elst10,r                      8.46943580 [mEh]       5.31465120 [kcal/mol]      22.23650064 [kJ/mol]

    Exchange                        0.00066156 [mEh]       0.00041513 [kcal/mol]       0.00173692 [kJ/mol]
      Exch10                        0.00066156 [mEh]       0.00041513 [kcal/mol]       0.00173692 [kJ/mol]
      Exch10(S^2)                   0.00066157 [mEh]       0.00041514 [kcal/mol]       0.00173696 [kJ/mol]

    Induction                      -3.22482248 [mEh]      -2.02360666 [kcal/mol]      -8.46677026 [kJ/mol]
      Ind20,r                      -3.25556593 [mEh]      -2.04289847 [kcal/mol]      -8.54748718 [kJ/mol]
      Exch-Ind20,r                  0.00199854 [mEh]       0.00125410 [kcal/mol]       0.00524716 [kJ/mol]
      delta HF,r (2)                0.02874492 [mEh]       0.01803771 [kcal/mol]       0.07546977 [kJ/mol]

    Dispersion                     -0.69591110 [mEh]      -0.43669081 [kcal/mol]      -1.82711434 [kJ/mol]
      Disp20                       -0.69738432 [mEh]      -0.43761527 [kcal/mol]      -1.83098229 [kJ/mol]
      Exch-Disp20                   0.00147323 [mEh]       0.00092446 [kcal/mol]       0.00386795 [kJ/mol]
      Disp20 (SS)                  -0.34869216 [mEh]      -0.21880763 [kcal/mol]      -0.91549114 [kJ/mol]
      Disp20 (OS)                  -0.34869216 [mEh]      -0.21880763 [kcal/mol]      -0.91549114 [kJ/mol]
      Exch-Disp20 (SS)              0.00111899 [mEh]       0.00070218 [kcal/mol]       0.00293791 [kJ/mol]
      Exch-Disp20 (OS)              0.00035423 [mEh]       0.00022228 [kcal/mol]       0.00093004 [kJ/mol]

  Total HF                          5.24527488 [mEh]       3.29145968 [kcal/mol]      13.77146730 [kJ/mol]
  Total SAPT0                       4.54936378 [mEh]       2.85476887 [kcal/mol]      11.94435296 [kJ/mol]

  Special recipe for scaled SAPT0 (see Manual):
    Electrostatics sSAPT0           8.46943580 [mEh]       5.31465120 [kcal/mol]      22.23650064 [kJ/mol]
    Exchange sSAPT0                 0.00066156 [mEh]       0.00041513 [kcal/mol]       0.00173692 [kJ/mol]
    Induction sSAPT0               -3.22482248 [mEh]      -2.02360666 [kcal/mol]      -8.46677026 [kJ/mol]
    Dispersion sSAPT0              -0.69591110 [mEh]      -0.43669081 [kcal/mol]      -1.82711434 [kJ/mol]
  Total sSAPT0                      4.54936378 [mEh]       2.85476887 [kcal/mol]      11.94435296 [kJ/mol]
  --------------------------------------------------------------------------------------------------------

*** tstop() called on d-16-9-3 at Sat Jan 20 23:23:08 2024
Module time:
	user time   =    6771.61 seconds =     112.86 minutes
	system time =     627.49 seconds =      10.46 minutes
	total time  =       3643 seconds =      60.72 minutes
Total time:
	user time   =   13520.36 seconds =     225.34 minutes
	system time =     769.09 seconds =      12.82 minutes
	total time  =       4365 seconds =      72.75 minutes

    Psi4 stopped on: Saturday, 20 January 2024 11:23PM
    Psi4 wall time for execution: 1:12:46.91

*** Psi4 exiting successfully. Buy a developer a beer!
