
    -----------------------------------------------------------------------
          Psi4: An Open-Source Ab Initio Electronic Structure Package
                               Psi4 1.9 release

                         Git: Rev {} zzzzzzz 


    D. G. A. Smith, L. A. Burns, A. C. Simmonett, R. M. Parrish,
    M. C. Schieber, R. Galvelis, P. Kraus, H. Kruse, R. Di Remigio,
    A. Alenaizan, A. M. James, S. Lehtola, J. P. Misiewicz, M. Scheurer,
    R. A. Shaw, J. B. Schriber, Y. Xie, Z. L. Glick, D. A. Sirianni,
    J. S. O'Brien, J. M. Waldrop, A. Kumar, E. G. Hohenstein,
    B. P. Pritchard, B. R. Brooks, H. F. Schaefer III, A. Yu. Sokolov,
    K. Patkowski, A. E. DePrince III, U. Bozkaya, R. A. King,
    F. A. Evangelista, J. M. Turney, T. D. Crawford, C. D. Sherrill,
    J. Chem. Phys. 152(18) 184108 (2020). https://doi.org/10.1063/5.0006002

                            Additional Code Authors
    E. T. Seidl, C. L. Janssen, E. F. Valeev, M. L. Leininger,
    J. F. Gonthier, R. M. Richard, H. R. McAlexander, M. Saitow, X. Wang,
    P. Verma, M. H. Lechner, A. Jiang, S. Behnle, A. G. Heide,
    M. F. Herbst, and D. L. Poole

             Previous Authors, Complete List of Code Contributors,
                       and Citations for Specific Modules
    https://github.com/psi4/psi4/blob/master/codemeta.json
    https://github.com/psi4/psi4/graphs/contributors
    http://psicode.org/psi4manual/master/introduction.html#citing-psifour

    -----------------------------------------------------------------------


    Psi4 started on: Monday, 22 January 2024 07:57PM

    Process ID: 366377
    Host:       d-16-5-1
    PSIDATADIR: /home/gridsan/tfroembgen/.conda/envs/psi4test/share/psi4
    Memory:     500.0 MiB
    Threads:    12
    
  ==> Input File <==

--------------------------------------------------------------------------
memory 32 GB # how much memory is available ! Depends on the nodes/cores !

molecule dimer {
# monomer A
+1 1    # Charge and multiplicity
C  0.680067 -0.008042  -9.415929
C -0.680504 -0.006014  -9.415545
N -1.085635 -0.005016  -8.097221
C  0.000108 -0.001740  -7.315820
C -2.477365  0.044390  -7.629242
N  1.085222 -0.005016  -8.097221
H  1.385146 -0.015870 -10.233368
H -1.385302 -0.006204 -10.233214
H -0.000009  0.000007  -6.234731
C  2.478117 -0.021908  -7.632123
H  2.490592  0.005437  -6.541870
H  2.967028 -0.935354  -7.979299
H  3.001428  0.853575  -8.023595
H -2.857359  1.066461  -7.709201
H -3.082679 -0.625694  -8.242306
H -2.518128 -0.282594  -6.589294
--
# monomer B
0 1     # Charge and multiplicity
C   1.22531237526482      0.70753866091955      0.00613762728373
C   1.22532433589282     -0.70753852257020     -0.00619318228664
C   -0.00000567409046      1.41496628609039     -0.00672680580738
C   2.45644923379077      1.41832825917820      0.00902448468363
C   0.00001130712078     -1.41497612663474      0.00347275151708
C   -1.22530046906674      0.70754574598412      0.00838914760619
C   2.45643823516184     -1.41832293188077     -0.00843833914343
C   -0.00000085313587      2.83680140328112     -0.00913035594137
C   3.68182717731192      0.70931832800114     -0.00808954934571
C   2.45512052870677      2.83422403348893     -0.00819210630633
C   3.68182158506039     -0.70933346742900      0.00798293467272
C   -1.22531311884624     -0.70752714354401     -0.00512042085974
C   1.22670006104402      3.54346985599427      0.00816696660346
C   0.00000526469929     -2.83678176723568      0.00832091913869
C   -2.45643555300670      1.41831729028492      0.00842454345199
C   2.45512389762097     -2.83422965658853      0.00783102630520
C   -1.22671388474763      3.54346943575023      0.00827029982280
C   4.91451777504333      1.42717324448953     -0.00160886631602
C   3.69315067131765      3.54279566454522     -0.00155906667985
C   -2.45643712022637     -1.41831290883911     -0.00846337726810
C   1.22670532178455     -3.54347386990643     -0.00780316414624
C   -2.45512491866593      2.83421703463423     -0.00818572995999
C   4.91452486062398     -1.42718653794377      0.00136387641845
C   1.22142509354026      4.97013443726031      0.00150231067809
C   4.89300870916237      2.82518837202648     -0.00039219795739
C   -1.22669652864725     -3.54347062507680     -0.00753595973677
C   -3.68181849668397      0.70932533873199     -0.00807686886569
C   3.69314758099218     -3.54280096939050      0.00148176697923
C   -1.22143177215231      4.97012866986289      0.00168580605083
C   6.13477145276790      0.68054831910577     -0.00083909176631
C   3.65678936045204      4.97295361556775     -0.00065042889723
C   -2.45512642789169     -2.83421472106065      0.00758666850712
C   -3.68181869921921     -0.70932533146830      0.00810055625144
C   4.89301309775526     -2.82519973363176      0.00021895393805
C   -0.00000059327114      5.65044773803267      0.00045449734393
C   6.13477559217374     -0.68055448207492      0.00042622874941
C   2.47813196269732      5.65357712333155      0.00063835075260
C   1.22142288457925     -4.97012668293268     -0.00129718634452
C   -3.69316190412301      3.54279732619245     -0.00139355922051
C   -1.22142804110313     -4.97011793159564     -0.00140994817719
C   -4.91452132810043      1.42717581899491     -0.00153192130862
C   3.65678749952045     -4.97295485423912      0.00080007163680
C   -2.47813805026426      5.65357479452875      0.00092287576113
C   -3.69314125872231     -3.54278984697859      0.00136564082345
C   -4.91451200321153     -1.42718062802730      0.00139857359209
C   -0.00000552908399     -5.65043791501335      0.00005899322272
C   -4.89302000425900      2.82518897091939     -0.00040227981744
C   2.47812647313991     -5.65357317188818     -0.00029052915548
C   -3.65679823041642      4.97295655404175     -0.00047374852278
C   -4.89299899901461     -2.82519139505969      0.00006491824035
C   -2.47812801824129     -5.65356579800621     -0.00056571680280
C   -6.13477002348955      0.68054913825639     -0.00086464346868
C   -3.65678835334731     -4.97294365097028      0.00058578382008
C   -6.13476456307132     -0.68055354348201      0.00040575295444
H   5.83528897565761      3.36927626695423      0.00396712770529
H   7.07385965258860      1.22821762089947     -0.00037744837300
H   4.60066374401555      5.51238117445323     -0.00014522814529
H   5.83528386714679     -3.36930568472863     -0.00423551337640
H   -0.00001167146422      6.73853104613662     -0.00389474766392
H   7.07386165167227     -1.22822657074368     -0.00008250934481
H   2.47331421164041      6.74068466339473      0.00017162982210
H   4.60066897122302     -5.51237575717576      0.00039007446835
H   -2.47331820069565      6.74068209160650      0.00047297644710
H   -0.00000978838621     -6.73852780445195      0.00458867820736
H   -5.83530143450167      3.36927132229595      0.00410314985360
H   2.47330840367253     -6.74068500242887      0.00027980126949
H   -4.60067436136587      5.51237839860371      0.00002010017831
H   -5.83527902699321     -3.36928859177951     -0.00451481925734
H   -2.47329986759855     -6.74067870613986     -0.00016951527498
H   -7.07385728692578      1.22822084484047     -0.00046143985387
H   -4.60067330624313     -5.51236229778631      0.00021776644566
H   -7.07385645456741     -1.22822025997701     -0.00017736581114

    units angstrom      # Angstroms are the default
    no_reorient         # Geometry fixed, default
    symmetry c1         # C1 symmetry, default
}

set {
    scf_type DF         # Density fitting, faster than exact integrals
    freeze_core True    # Freeze core electrons
    basis jun-cc-pVDZ   # Jun-cc-pVDZ basis set, recommended for sSAPT0 in https://doi.org/10.1063/1.4867135
}

energy('ssapt0')        # Compute sSAPT0 energy, includes also SAPT0
--------------------------------------------------------------------------

  Memory set to  29.802 GiB by Python driver.

Scratch directory: /state/partition1/slurm_tmp/24798283.4294967291.0/
   => Loading Basis Set <=

    Name: JUN-CC-PVDZ
    Role: ORBITAL
    Keyword: BASIS
    atoms 1-2, 4-5, 10, 17-70 entry C          line   164 file /home/gridsan/tfroembgen/.conda/envs/psi4test/share/psi4/basis/jun-cc-pvdz.gbs 
    atoms 3, 6                entry N          line   198 file /home/gridsan/tfroembgen/.conda/envs/psi4test/share/psi4/basis/jun-cc-pvdz.gbs 
    atoms 7-9, 11-16, 71-88   entry H          line    36 file /home/gridsan/tfroembgen/.conda/envs/psi4test/share/psi4/basis/jun-cc-pvdz.gbs 

   => Loading Basis Set <=

    Name: JUN-CC-PVDZ
    Role: ORBITAL
    Keyword: BASIS
    atoms 1-2, 4-5, 10, 17-70 entry C          line   164 file /home/gridsan/tfroembgen/.conda/envs/psi4test/share/psi4/basis/jun-cc-pvdz.gbs 
    atoms 3, 6                entry N          line   198 file /home/gridsan/tfroembgen/.conda/envs/psi4test/share/psi4/basis/jun-cc-pvdz.gbs 
    atoms 7-9, 11-16, 71-88   entry H          line    36 file /home/gridsan/tfroembgen/.conda/envs/psi4test/share/psi4/basis/jun-cc-pvdz.gbs 


  //>>>>>>>>>>>>>>>>>>>>>>>>>>>>>>>>>>>//
  //              Dimer HF             //
  //<<<<<<<<<<<<<<<<<<<<<<<<<<<<<<<<<<<//

   => Libint2 <=

    Primary   basis highest AM E, G, H:  7, 7, 4
    Auxiliary basis highest AM E, G, H:  7, 7, 5
    Onebody   basis highest AM E, G, H:  7, 7, 5
    Solid Harmonics ordering:            gaussian

*** tstart() called on d-16-5-1
*** at Mon Jan 22 19:57:20 2024

   => Loading Basis Set <=

    Name: JUN-CC-PVDZ
    Role: ORBITAL
    Keyword: BASIS
    atoms 1-2, 4-5, 10, 17-70 entry C          line   164 file /home/gridsan/tfroembgen/.conda/envs/psi4test/share/psi4/basis/jun-cc-pvdz.gbs 
    atoms 3, 6                entry N          line   198 file /home/gridsan/tfroembgen/.conda/envs/psi4test/share/psi4/basis/jun-cc-pvdz.gbs 
    atoms 7-9, 11-16, 71-88   entry H          line    36 file /home/gridsan/tfroembgen/.conda/envs/psi4test/share/psi4/basis/jun-cc-pvdz.gbs 


         ---------------------------------------------------------
                                   SCF
               by Justin Turney, Rob Parrish, Andy Simmonett
                          and Daniel G. A. Smith
                              RHF Reference
                       12 Threads,  30517 MiB Core
         ---------------------------------------------------------

  ==> Geometry <==

    Molecular point group: c1
    Full point group: C1

    Geometry (in Angstrom), charge = 1, multiplicity = 1:

       Center              X                  Y                   Z               Mass       
    ------------   -----------------  -----------------  -----------------  -----------------
         C            0.680066520158    -0.008042372515    -8.372941583557    12.000000000000
         C           -0.680504479842    -0.006014372515    -8.372557583557    12.000000000000
         N           -1.085635479842    -0.005016372515    -7.054233583557    14.003074004430
         C            0.000107520158    -0.001740372515    -6.272832583557    12.000000000000
         C           -2.477365479842     0.044389627485    -6.586254583557    12.000000000000
         N            1.085221520158    -0.005016372515    -7.054233583557    14.003074004430
         H            1.385145520158    -0.015870372515    -9.190380583557     1.007825032230
         H           -1.385302479842    -0.006204372515    -9.190226583557     1.007825032230
         H           -0.000009479842     0.000006627485    -5.191743583557     1.007825032230
         C            2.478116520158    -0.021908372515    -6.589135583557    12.000000000000
         H            2.490591520158     0.005436627485    -5.498882583557     1.007825032230
         H            2.967027520158    -0.935354372515    -6.936311583557     1.007825032230
         H            3.001427520158     0.853574627485    -6.980607583557     1.007825032230
         H           -2.857359479842     1.066460627485    -6.666213583557     1.007825032230
         H           -3.082679479842    -0.625694372515    -7.199318583557     1.007825032230
         H           -2.518128479842    -0.282594372515    -5.546306583557     1.007825032230
         C            1.225311895423     0.707538288405     1.049125043726    12.000000000000
         C            1.225323856051    -0.707538895085     1.036794234156    12.000000000000
         C           -0.000006153932     1.414965913575     1.036260610635    12.000000000000
         C            2.456448753949     1.418327886663     1.052011901126    12.000000000000
         C            0.000010827279    -1.414976499150     1.046460167960    12.000000000000
         C           -1.225300948908     0.707545373469     1.051376564049    12.000000000000
         C            2.456437755320    -1.418323304396     1.034549077299    12.000000000000
         C           -0.000001332978     2.836801030766     1.033857060501    12.000000000000
         C            3.681826697470     0.709317955486     1.034897867097    12.000000000000
         C            2.455120048865     2.834223660974     1.034795310136    12.000000000000
         C            3.681821105219    -0.709333839944     1.050970351115    12.000000000000
         C           -1.225313598688    -0.707527516059     1.037866995583    12.000000000000
         C            1.226699581202     3.543469483479     1.051154383046    12.000000000000
         C            0.000004784858    -2.836782139751     1.051308335581    12.000000000000
         C           -2.456436032848     1.418316917770     1.051411959895    12.000000000000
         C            2.455123417779    -2.834230029103     1.050818442748    12.000000000000
         C           -1.226714364589     3.543469063235     1.051257716266    12.000000000000
         C            4.914517295202     1.427172871975     1.041378550127    12.000000000000
         C            3.693150191476     3.542795292030     1.041428349763    12.000000000000
         C           -2.456437600068    -1.418313281354     1.034524039175    12.000000000000
         C            1.226704841943    -3.543474242421     1.035184252297    12.000000000000
         C           -2.455125398508     2.834216662119     1.034801686483    12.000000000000
         C            4.914524380782    -1.427186910459     1.044351292861    12.000000000000
         C            1.221424613699     4.970134064745     1.044489727121    12.000000000000
         C            4.893008229321     2.825187999512     1.042595218485    12.000000000000
         C           -1.226697008489    -3.543470997592     1.035451456706    12.000000000000
         C           -3.681818976526     0.709324966217     1.034910547577    12.000000000000
         C            3.693147101150    -3.542801341905     1.044469183422    12.000000000000
         C           -1.221432251994     4.970128297348     1.044673222494    12.000000000000
         C            6.134770972926     0.680547946591     1.042148324676    12.000000000000
         C            3.656788880610     4.972953243053     1.042336987546    12.000000000000
         C           -2.455126907733    -2.834215093576     1.050574084950    12.000000000000
         C           -3.681819179061    -0.709325703983     1.051087972694    12.000000000000
         C            4.893012617914    -2.825200106147     1.043206370381    12.000000000000
         C           -0.000001073113     5.650447365518     1.043441913787    12.000000000000
         C            6.134775112332    -0.680554854590     1.043413645192    12.000000000000
         C            2.478131482856     5.653576750817     1.043625767195    12.000000000000
         C            1.221422404738    -4.970127055448     1.041690230098    12.000000000000
         C           -3.693162383965     3.542796953677     1.041593857222    12.000000000000
         C           -1.221428520945    -4.970118304111     1.041577468266    12.000000000000
         C           -4.914521807942     1.427175446480     1.041455495134    12.000000000000
         C            3.656787019679    -4.972955226754     1.043787488080    12.000000000000
         C           -2.478138530106     5.653574422014     1.043910292204    12.000000000000
         C           -3.693141738564    -3.542790219494     1.044353057266    12.000000000000
         C           -4.914512483053    -1.427181000542     1.044385990035    12.000000000000
         C           -0.000006008926    -5.650438287528     1.043046409665    12.000000000000
         C           -4.893020484101     2.825188598404     1.042585136625    12.000000000000
         C            2.478125993298    -5.653573544403     1.042696887287    12.000000000000
         C           -3.656798710258     4.972956181527     1.042513667920    12.000000000000
         C           -4.892999478856    -2.825191767575     1.043052334683    12.000000000000
         C           -2.478128498083    -5.653566170521     1.042421699640    12.000000000000
         C           -6.134770503331     0.680548765741     1.042122772974    12.000000000000
         C           -3.656788833189    -4.972944023485     1.043573200263    12.000000000000
         C           -6.134765042913    -0.680553915997     1.043393169397    12.000000000000
         H            5.835288495816     3.369275894439     1.046954544148     1.007825032230
         H            7.073859172747     1.228217248385     1.042609968070     1.007825032230
         H            4.600663264174     5.512380801938     1.042842188297     1.007825032230
         H            5.835283387305    -3.369306057244     1.038751903066     1.007825032230
         H           -0.000012151306     6.738530673622     1.039092668779     1.007825032230
         H            7.073861171831    -1.228226943259     1.042904907098     1.007825032230
         H            2.473313731799     6.740684290880     1.043159046265     1.007825032230
         H            4.600668491381    -5.512376129691     1.043377490911     1.007825032230
         H           -2.473318680537     6.740681719092     1.043460392890     1.007825032230
         H           -0.000010268228    -6.738528176967     1.047576094650     1.007825032230
         H           -5.835301914343     3.369270949781     1.047090566296     1.007825032230
         H            2.473307923831    -6.740685374944     1.043267217712     1.007825032230
         H           -4.600674841208     5.512378026089     1.043007516621     1.007825032230
         H           -5.835279506835    -3.369288964294     1.038472597185     1.007825032230
         H           -2.473300347440    -6.740679078655     1.042817901168     1.007825032230
         H           -7.073857766768     1.228220472326     1.042525976589     1.007825032230
         H           -4.600673786085    -5.512362670301     1.043205182888     1.007825032230
         H           -7.073856934409    -1.228220632492     1.042810050632     1.007825032230

  Running in c1 symmetry.

  Rotational constants: A =      0.00126  B =      0.00124  C =      0.00109 [cm^-1]
  Rotational constants: A =     37.79012  B =     37.12578  C =     32.71081 [MHz]
  Nuclear repulsion = 7771.015874315178735

  Charge       = 1
  Multiplicity = 1
  Electrons    = 394
  Nalpha       = 197
  Nbeta        = 197

  ==> Algorithm <==

  SCF Algorithm Type is DF.
  DIIS enabled.
  MOM disabled.
  Fractional occupation disabled.
  Guess Type is SAD.
  Energy threshold   = 1.00e-08
  Density threshold  = 1.00e-08
  Integral threshold = 1.00e-12

  ==> Primary Basis <==

  Basis Set: JUN-CC-PVDZ
    Blend: JUN-CC-PVDZ
    Number of shells: 569
    Number of basis functions: 1233
    Number of Cartesian functions: 1294
    Spherical Harmonics?: true
    Max angular momentum: 2

   => Loading Basis Set <=

    Name: (JUN-CC-PVDZ AUX)
    Role: JKFIT
    Keyword: DF_BASIS_SCF
    atoms 1-2, 4-5, 10, 17-70 entry C          line   146 file /home/gridsan/tfroembgen/.conda/envs/psi4test/share/psi4/basis/jun-cc-pvdz-jkfit.gbs 
    atoms 3, 6                entry N          line   202 file /home/gridsan/tfroembgen/.conda/envs/psi4test/share/psi4/basis/jun-cc-pvdz-jkfit.gbs 
    atoms 7-9, 11-16, 71-88   entry H          line    70 file /home/gridsan/tfroembgen/.conda/envs/psi4test/share/psi4/basis/jun-cc-pvdz-jkfit.gbs 

  ==> Integral Setup <==

  ==> DiskDFJK: Density-Fitted J/K Matrices <==

    J tasked:                  Yes
    K tasked:                  Yes
    wK tasked:                  No
    OpenMP threads:             12
    Integrals threads:          12
    Memory [MiB]:            22888
    Algorithm:                Core
    Integral Cache:           SAVE
    Schwarz Cutoff:          1E-12
    Fitting Condition:       1E-10

   => Auxiliary Basis Set <=

  Basis Set: (JUN-CC-PVDZ AUX)
    Blend: JUN-CC-PVDZ-JKFIT
    Number of shells: 1890
    Number of basis functions: 5440
    Number of Cartesian functions: 6226
    Spherical Harmonics?: true
    Max angular momentum: 3

  Minimum eigenvalue in the overlap matrix is 8.3977581854E-10.
  Reciprocal condition number of the overlap matrix is 3.7564798820E-11.
    Using canonical orthogonalization.
  Overall, 14 of 1233 possible MOs eliminated.


  ==> Pre-Iterations <==

  SCF Guess: Superposition of Atomic Densities via on-the-fly atomic UHF (no occupation information).

   -------------------------
    Irrep   Nso     Nmo    
   -------------------------
     A       1233    1219 
   -------------------------
    Total    1233    1219
   -------------------------

  ==> Iterations <==

                           Total Energy        Delta E     RMS |[F,P]|

   @DF-RHF iter SAD: -2365.39391972095336   -2.36539e+03   0.00000e+00 
   @DF-RHF iter   1: -2358.18797300025381    7.20595e+00   9.48184e-04 ADIIS/DIIS
   @DF-RHF iter   2: -2359.08870800415934   -9.00735e-01   3.23933e-04 ADIIS/DIIS
   @DF-RHF iter   3: -2359.18107107159449   -9.23631e-02   1.18876e-04 ADIIS/DIIS
   @DF-RHF iter   4: -2359.19434633760693   -1.32753e-02   4.49608e-05 DIIS
   @DF-RHF iter   5: -2359.19631529985145   -1.96896e-03   1.02295e-05 DIIS
   @DF-RHF iter   6: -2359.19649402675304   -1.78727e-04   5.17002e-06 DIIS
   @DF-RHF iter   7: -2359.19656377805904   -6.97513e-05   2.25513e-06 DIIS
   @DF-RHF iter   8: -2359.19658431501375   -2.05370e-05   1.13289e-06 DIIS
   @DF-RHF iter   9: -2359.19658937492704   -5.05991e-06   2.59321e-07 DIIS
   @DF-RHF iter  10: -2359.19658961602454   -2.41097e-07   8.62470e-08 DIIS
   @DF-RHF iter  11: -2359.19658963349502   -1.74705e-08   3.18734e-08 DIIS
   @DF-RHF iter  12: -2359.19658963715301   -3.65799e-09   1.16120e-08 DIIS
   @DF-RHF iter  13: -2359.19658963748725   -3.34239e-10   4.86457e-09 DIIS
  Energy and wave function converged.


  ==> Post-Iterations <==

    Orbital Energies [Eh]
    ---------------------

    Doubly Occupied:                                                      

       1A    -15.825859     2A    -15.825337     3A    -11.520566  
       4A    -11.451952     5A    -11.450398     6A    -11.440701  
       7A    -11.440595     8A    -11.317067     9A    -11.316600  
      10A    -11.316573    11A    -11.315631    12A    -11.315594  
      13A    -11.315217    14A    -11.314529    15A    -11.314522  
      16A    -11.314430    17A    -11.314360    18A    -11.314257  
      19A    -11.314144    20A    -11.313133    21A    -11.313120  
      22A    -11.312978    23A    -11.312941    24A    -11.312903  
      25A    -11.312878    26A    -11.312808    27A    -11.312804  
      28A    -11.312621    29A    -11.312612    30A    -11.312585  
      31A    -11.312580    32A    -11.312124    33A    -11.312121  
      34A    -11.311944    35A    -11.311938    36A    -11.311934  
      37A    -11.311929    38A    -11.311451    39A    -11.311443  
      40A    -11.311296    41A    -11.311283    42A    -11.311217  
      43A    -11.311208    44A    -11.305390    45A    -11.305387  
      46A    -11.305354    47A    -11.305351    48A    -11.305254  
      49A    -11.305251    50A    -11.305135    51A    -11.305105  
      52A    -11.304890    53A    -11.304886    54A    -11.304880  
      55A    -11.304876    56A    -11.303837    57A    -11.303834  
      58A    -11.303457    59A    -11.303454    60A    -11.303451  
      61A    -11.303449    62A     -1.569611    63A     -1.425130  
      64A     -1.300003    65A     -1.275067    66A     -1.274907  
      67A     -1.244238    68A     -1.244223    69A     -1.236256  
      70A     -1.230231    71A     -1.211730    72A     -1.203553  
      73A     -1.190615    74A     -1.190468    75A     -1.180517  
      76A     -1.167299    77A     -1.167266    78A     -1.137249  
      79A     -1.137238    80A     -1.133431    81A     -1.119931  
      82A     -1.119915    83A     -1.110062    84A     -1.093668  
      85A     -1.079477    86A     -1.076973    87A     -1.076911  
      88A     -1.071760    89A     -1.066564    90A     -1.041675  
      91A     -1.041630    92A     -1.015953    93A     -1.015951  
      94A     -1.014122    95A     -0.988192    96A     -0.948468  
      97A     -0.948402    98A     -0.943062    99A     -0.941309  
     100A     -0.941173   101A     -0.936117   102A     -0.936032  
     103A     -0.915932   104A     -0.908312   105A     -0.890775  
     106A     -0.872388   107A     -0.871460   108A     -0.866750  
     109A     -0.866657   110A     -0.848432   111A     -0.848429  
     112A     -0.841854   113A     -0.807914   114A     -0.804110  
     115A     -0.801483   116A     -0.799523   117A     -0.788086  
     118A     -0.787962   119A     -0.786001   120A     -0.785921  
     121A     -0.781666   122A     -0.777499   123A     -0.773648  
     124A     -0.770820   125A     -0.753067   126A     -0.752949  
     127A     -0.747915   128A     -0.747795   129A     -0.720650  
     130A     -0.716798   131A     -0.714914   132A     -0.708417  
     133A     -0.707456   134A     -0.705845   135A     -0.703888  
     136A     -0.703841   137A     -0.693301   138A     -0.693248  
     139A     -0.684070   140A     -0.681869   141A     -0.681854  
     142A     -0.662715   143A     -0.658419   144A     -0.656243  
     145A     -0.653607   146A     -0.653462   147A     -0.648121  
     148A     -0.646127   149A     -0.646025   150A     -0.638388  
     151A     -0.631817   152A     -0.631586   153A     -0.620826  
     154A     -0.620777   155A     -0.620508   156A     -0.620389  
     157A     -0.613159   158A     -0.608451   159A     -0.608308  
     160A     -0.592976   161A     -0.592948   162A     -0.592230  
     163A     -0.592200   164A     -0.587784   165A     -0.583771  
     166A     -0.583649   167A     -0.576958   168A     -0.576825  
     169A     -0.554012   170A     -0.549722   171A     -0.546951  
     172A     -0.542406   173A     -0.539531   174A     -0.535894  
     175A     -0.535850   176A     -0.525644   177A     -0.525447  
     178A     -0.515729   179A     -0.505936   180A     -0.505782  
     181A     -0.493062   182A     -0.493023   183A     -0.459728  
     184A     -0.459727   185A     -0.458398   186A     -0.429193  
     187A     -0.429178   188A     -0.403513   189A     -0.393436  
     190A     -0.392381   191A     -0.392308   192A     -0.365288  
     193A     -0.351451   194A     -0.339462   195A     -0.339428  
     196A     -0.279268   197A     -0.279221  

    Virtual:                                                              

     198A     -0.060017   199A     -0.054677   200A     -0.046992  
     201A     -0.040950   202A     -0.040405   203A     -0.040234  
     204A     -0.024364   205A     -0.022196   206A     -0.021551  
     207A     -0.017687   208A     -0.000498   209A      0.002490  
     210A      0.002848   211A      0.003139   212A      0.004275  
     213A      0.005577   214A      0.005965   215A      0.009753  
     216A      0.009902   217A      0.010672   218A      0.010848  
     219A      0.012075   220A      0.013919   221A      0.018377  
     222A      0.024043   223A      0.029476   224A      0.029537  
     225A      0.030034   226A      0.030426   227A      0.032321  
     228A      0.032356   229A      0.034729   230A      0.036353  
     231A      0.038044   232A      0.042128   233A      0.044486  
     234A      0.045086   235A      0.045135   236A      0.045832  
     237A      0.047177   238A      0.050129   239A      0.052870  
     240A      0.053905   241A      0.056695   242A      0.063532  
     243A      0.064514   244A      0.064610   245A      0.064692  
     246A      0.068543   247A      0.071722   248A      0.072450  
     249A      0.073700   250A      0.074626   251A      0.078924  
     252A      0.079708   253A      0.084223   254A      0.084605  
     255A      0.084888   256A      0.085410   257A      0.087816  
     258A      0.088121   259A      0.089037   260A      0.091466  
     261A      0.092602   262A      0.093885   263A      0.094101  
     264A      0.101812   265A      0.103616   266A      0.106058  
     267A      0.106341   268A      0.107428   269A      0.111017  
     270A      0.112275   271A      0.115289   272A      0.118039  
     273A      0.118420   274A      0.120447   275A      0.124181  
     276A      0.127752   277A      0.130077   278A      0.130690  
     279A      0.132747   280A      0.134479   281A      0.135155  
     282A      0.135407   283A      0.135445   284A      0.137812  
     285A      0.139198   286A      0.139577   287A      0.140333  
     288A      0.141852   289A      0.141942   290A      0.145048  
     291A      0.147324   292A      0.150074   293A      0.152999  
     294A      0.155242   295A      0.155744   296A      0.156617  
     297A      0.156885   298A      0.162544   299A      0.162709  
     300A      0.162756   301A      0.163683   302A      0.163945  
     303A      0.165118   304A      0.167156   305A      0.167563  
     306A      0.168084   307A      0.169598   308A      0.173784  
     309A      0.174735   310A      0.177902   311A      0.178366  
     312A      0.179188   313A      0.179576   314A      0.181729  
     315A      0.182041   316A      0.182603   317A      0.182912  
     318A      0.184595   319A      0.184810   320A      0.187817  
     321A      0.190541   322A      0.193658   323A      0.196185  
     324A      0.196647   325A      0.197528   326A      0.198301  
     327A      0.200529   328A      0.201670   329A      0.201974  
     330A      0.204504   331A      0.204601   332A      0.205936  
     333A      0.207571   334A      0.207606   335A      0.210311  
     336A      0.216317   337A      0.216390   338A      0.216915  
     339A      0.217214   340A      0.218785   341A      0.218803  
     342A      0.220735   343A      0.222619   344A      0.223075  
     345A      0.223803   346A      0.225528   347A      0.232106  
     348A      0.232759   349A      0.235943   350A      0.236564  
     351A      0.239658   352A      0.239825   353A      0.241037  
     354A      0.246019   355A      0.246342   356A      0.251459  
     357A      0.251636   358A      0.252121   359A      0.252569  
     360A      0.257143   361A      0.257749   362A      0.257849  
     363A      0.257947   364A      0.259189   365A      0.260623  
     366A      0.260773   367A      0.261097   368A      0.263349  
     369A      0.264580   370A      0.265398   371A      0.267576  
     372A      0.269735   373A      0.270505   374A      0.270649  
     375A      0.271145   376A      0.271898   377A      0.272448  
     378A      0.274545   379A      0.276664   380A      0.278322  
     381A      0.279119   382A      0.283748   383A      0.284488  
     384A      0.287987   385A      0.291962   386A      0.292499  
     387A      0.293760   388A      0.294590   389A      0.295160  
     390A      0.295647   391A      0.297057   392A      0.299432  
     393A      0.300180   394A      0.302031   395A      0.303397  
     396A      0.304399   397A      0.304588   398A      0.309846  
     399A      0.312884   400A      0.315022   401A      0.317605  
     402A      0.318698   403A      0.321184   404A      0.321690  
     405A      0.321964   406A      0.323609   407A      0.328716  
     408A      0.330451   409A      0.332301   410A      0.332676  
     411A      0.337176   412A      0.338388   413A      0.338534  
     414A      0.338896   415A      0.339271   416A      0.339656  
     417A      0.342663   418A      0.344285   419A      0.344384  
     420A      0.345279   421A      0.346810   422A      0.349197  
     423A      0.350122   424A      0.353130   425A      0.353576  
     426A      0.353690   427A      0.353790   428A      0.355025  
     429A      0.355136   430A      0.356528   431A      0.358014  
     432A      0.359944   433A      0.361457   434A      0.367367  
     435A      0.368246   436A      0.369667   437A      0.370570  
     438A      0.370964   439A      0.375737   440A      0.379887  
     441A      0.383535   442A      0.383727   443A      0.386444  
     444A      0.390406   445A      0.390734   446A      0.392378  
     447A      0.392462   448A      0.394649   449A      0.396574  
     450A      0.397280   451A      0.399630   452A      0.400812  
     453A      0.403931   454A      0.406123   455A      0.407025  
     456A      0.407077   457A      0.407369   458A      0.409142  
     459A      0.410964   460A      0.414219   461A      0.416067  
     462A      0.416218   463A      0.418142   464A      0.419036  
     465A      0.423975   466A      0.428681   467A      0.428945  
     468A      0.430446   469A      0.430657   470A      0.439263  
     471A      0.440427   472A      0.440524   473A      0.442008  
     474A      0.442498   475A      0.444996   476A      0.448214  
     477A      0.448697   478A      0.448795   479A      0.453566  
     480A      0.453672   481A      0.455645   482A      0.459337  
     483A      0.459498   484A      0.459963   485A      0.462119  
     486A      0.465478   487A      0.466082   488A      0.471465  
     489A      0.472424   490A      0.473223   491A      0.481340  
     492A      0.485109   493A      0.486661   494A      0.488663  
     495A      0.490415   496A      0.494804   497A      0.494929  
     498A      0.495273   499A      0.499147   500A      0.499254  
     501A      0.500238   502A      0.502202   503A      0.502369  
     504A      0.506975   505A      0.507235   506A      0.508387  
     507A      0.508673   508A      0.514861   509A      0.516030  
     510A      0.516186   511A      0.532484   512A      0.532929  
     513A      0.542884   514A      0.543494   515A      0.544430  
     516A      0.551499   517A      0.560144   518A      0.560376  
     519A      0.567651   520A      0.567721   521A      0.571377  
     522A      0.573155   523A      0.573208   524A      0.590644  
     525A      0.595601   526A      0.595832   527A      0.600617  
     528A      0.613428   529A      0.613511   530A      0.615658  
     531A      0.616157   532A      0.623912   533A      0.623952  
     534A      0.626751   535A      0.635715   536A      0.655646  
     537A      0.659359   538A      0.662466   539A      0.662719  
     540A      0.670877   541A      0.678860   542A      0.685834  
     543A      0.687170   544A      0.689101   545A      0.689758  
     546A      0.689821   547A      0.690114   548A      0.694190  
     549A      0.701637   550A      0.703576   551A      0.703736  
     552A      0.706861   553A      0.710692   554A      0.715620  
     555A      0.718640   556A      0.726876   557A      0.737606  
     558A      0.740848   559A      0.743721   560A      0.746922  
     561A      0.748691   562A      0.752357   563A      0.753399  
     564A      0.755282   565A      0.757624   566A      0.759855  
     567A      0.761803   568A      0.766291   569A      0.771173  
     570A      0.774388   571A      0.774573   572A      0.776038  
     573A      0.777218   574A      0.782536   575A      0.786849  
     576A      0.787096   577A      0.788123   578A      0.790287  
     579A      0.801722   580A      0.801834   581A      0.805096  
     582A      0.808856   583A      0.811180   584A      0.812181  
     585A      0.816774   586A      0.818831   587A      0.818935  
     588A      0.819674   589A      0.821633   590A      0.824210  
     591A      0.824618   592A      0.826628   593A      0.833576  
     594A      0.835442   595A      0.835865   596A      0.841161  
     597A      0.843119   598A      0.844762   599A      0.844891  
     600A      0.848925   601A      0.854696   602A      0.855022  
     603A      0.855819   604A      0.856554   605A      0.858601  
     606A      0.860596   607A      0.862148   608A      0.863055  
     609A      0.868558   610A      0.868809   611A      0.873732  
     612A      0.875000   613A      0.877977   614A      0.878270  
     615A      0.878764   616A      0.882304   617A      0.882352  
     618A      0.888321   619A      0.888582   620A      0.891981  
     621A      0.892390   622A      0.893235   623A      0.902608  
     624A      0.903805   625A      0.904101   626A      0.910628  
     627A      0.917155   628A      0.917232   629A      0.918077  
     630A      0.918397   631A      0.919790   632A      0.919846  
     633A      0.923935   634A      0.925980   635A      0.927296  
     636A      0.934223   637A      0.934525   638A      0.940330  
     639A      0.944698   640A      0.944810   641A      0.951815  
     642A      0.953458   643A      0.959592   644A      0.962438  
     645A      0.962821   646A      0.963097   647A      0.965363  
     648A      0.966129   649A      0.973842   650A      0.978229  
     651A      0.978285   652A      0.981025   653A      0.981226  
     654A      0.981571   655A      0.984596   656A      0.984818  
     657A      0.985992   658A      0.986443   659A      0.987834  
     660A      0.991135   661A      0.991464   662A      0.991858  
     663A      0.992557   664A      0.993799   665A      0.995447  
     666A      1.000216   667A      1.000843   668A      1.006530  
     669A      1.007023   670A      1.007457   671A      1.007745  
     672A      1.012902   673A      1.015256   674A      1.017333  
     675A      1.018505   676A      1.018586   677A      1.023491  
     678A      1.025286   679A      1.028400   680A      1.029640  
     681A      1.030118   682A      1.030925   683A      1.031827  
     684A      1.034052   685A      1.037406   686A      1.040285  
     687A      1.050009   688A      1.050385   689A      1.050907  
     690A      1.055121   691A      1.056958   692A      1.062070  
     693A      1.062531   694A      1.062611   695A      1.063153  
     696A      1.066530   697A      1.067610   698A      1.071966  
     699A      1.072106   700A      1.073666   701A      1.078627  
     702A      1.080764   703A      1.080948   704A      1.086625  
     705A      1.086690   706A      1.087413   707A      1.089684  
     708A      1.091293   709A      1.100498   710A      1.105874  
     711A      1.111874   712A      1.113643   713A      1.120142  
     714A      1.123200   715A      1.123419   716A      1.123556  
     717A      1.128683   718A      1.128791   719A      1.130852  
     720A      1.134202   721A      1.141776   722A      1.143442  
     723A      1.145326   724A      1.145839   725A      1.147949  
     726A      1.156873   727A      1.157944   728A      1.164336  
     729A      1.164420   730A      1.167015   731A      1.169275  
     732A      1.169405   733A      1.171524   734A      1.185176  
     735A      1.185909   736A      1.185990   737A      1.202887  
     738A      1.206307   739A      1.208790   740A      1.208867  
     741A      1.209145   742A      1.209418   743A      1.212049  
     744A      1.212359   745A      1.215177   746A      1.223761  
     747A      1.227410   748A      1.240960   749A      1.241290  
     750A      1.243136   751A      1.243471   752A      1.244852  
     753A      1.245923   754A      1.254167   755A      1.254820  
     756A      1.256149   757A      1.256335   758A      1.265435  
     759A      1.265784   760A      1.266615   761A      1.267739  
     762A      1.274657   763A      1.275895   764A      1.275980  
     765A      1.280030   766A      1.281481   767A      1.286051  
     768A      1.287364   769A      1.287611   770A      1.293289  
     771A      1.294796   772A      1.300081   773A      1.300154  
     774A      1.303753   775A      1.304732   776A      1.305527  
     777A      1.306060   778A      1.311064   779A      1.311939  
     780A      1.327234   781A      1.328509   782A      1.337394  
     783A      1.346112   784A      1.349357   785A      1.350150  
     786A      1.353264   787A      1.353691   788A      1.355454  
     789A      1.358708   790A      1.359515   791A      1.365413  
     792A      1.369076   793A      1.370760   794A      1.372244  
     795A      1.374535   796A      1.377420   797A      1.381111  
     798A      1.382971   799A      1.383064   800A      1.385610  
     801A      1.386145   802A      1.386439   803A      1.394238  
     804A      1.394737   805A      1.396506   806A      1.408416  
     807A      1.408620   808A      1.417559   809A      1.418428  
     810A      1.431922   811A      1.462672   812A      1.462873  
     813A      1.466592   814A      1.466657   815A      1.473291  
     816A      1.477997   817A      1.486419   818A      1.497717  
     819A      1.511695   820A      1.520248   821A      1.526503  
     822A      1.543217   823A      1.544855   824A      1.545393  
     825A      1.553302   826A      1.553621   827A      1.554548  
     828A      1.556711   829A      1.556958   830A      1.560616  
     831A      1.567070   832A      1.567450   833A      1.572060  
     834A      1.574541   835A      1.574896   836A      1.585740  
     837A      1.585773   838A      1.588610   839A      1.588796  
     840A      1.588848   841A      1.588911   842A      1.596234  
     843A      1.606836   844A      1.606898   845A      1.613305  
     846A      1.614207   847A      1.620893   848A      1.620929  
     849A      1.622238   850A      1.622908   851A      1.623021  
     852A      1.627550   853A      1.629359   854A      1.632083  
     855A      1.632132   856A      1.642031   857A      1.643460  
     858A      1.645436   859A      1.645619   860A      1.646143  
     861A      1.649447   862A      1.649553   863A      1.661992  
     864A      1.662103   865A      1.670051   866A      1.678266  
     867A      1.687341   868A      1.689551   869A      1.696624  
     870A      1.699981   871A      1.707030   872A      1.707605  
     873A      1.707854   874A      1.708436   875A      1.722691  
     876A      1.722698   877A      1.737448   878A      1.737509  
     879A      1.741510   880A      1.755011   881A      1.757396  
     882A      1.762053   883A      1.762993   884A      1.763244  
     885A      1.764585   886A      1.765034   887A      1.769809  
     888A      1.769884   889A      1.776587   890A      1.776726  
     891A      1.782916   892A      1.787680   893A      1.787891  
     894A      1.791181   895A      1.806639   896A      1.806865  
     897A      1.807427   898A      1.807596   899A      1.810383  
     900A      1.814902   901A      1.816687   902A      1.817822  
     903A      1.819587   904A      1.825295   905A      1.825514  
     906A      1.825829   907A      1.841981   908A      1.842043  
     909A      1.846362   910A      1.849948   911A      1.850072  
     912A      1.852944   913A      1.854046   914A      1.854226  
     915A      1.860312   916A      1.861354   917A      1.863329  
     918A      1.863489   919A      1.864805   920A      1.866154  
     921A      1.867662   922A      1.867792   923A      1.876869  
     924A      1.886398   925A      1.888008   926A      1.888257  
     927A      1.888335   928A      1.893919   929A      1.894023  
     930A      1.899059   931A      1.899323   932A      1.899944  
     933A      1.900115   934A      1.903408   935A      1.903751  
     936A      1.906328   937A      1.917376   938A      1.927879  
     939A      1.928105   940A      1.935860   941A      1.943081  
     942A      1.944908   943A      1.944926   944A      1.950540  
     945A      1.953995   946A      1.955195   947A      1.958710  
     948A      1.958751   949A      1.973162   950A      1.974235  
     951A      1.974554   952A      1.975977   953A      1.976050  
     954A      1.976853   955A      1.977118   956A      1.977329  
     957A      1.994094   958A      1.997955   959A      1.998255  
     960A      2.003054   961A      2.004018   962A      2.005261  
     963A      2.006581   964A      2.012245   965A      2.014361  
     966A      2.015694   967A      2.016886   968A      2.017101  
     969A      2.021031   970A      2.021445   971A      2.026877  
     972A      2.029616   973A      2.029995   974A      2.039429  
     975A      2.040869   976A      2.042715   977A      2.043255  
     978A      2.046383   979A      2.046646   980A      2.048788  
     981A      2.053365   982A      2.054078   983A      2.054195  
     984A      2.054467   985A      2.055110   986A      2.057177  
     987A      2.060718   988A      2.065540   989A      2.065609  
     990A      2.065752   991A      2.066073   992A      2.072333  
     993A      2.072520   994A      2.074916   995A      2.079502  
     996A      2.080532   997A      2.082301   998A      2.082406  
     999A      2.089504  1000A      2.089532  1001A      2.096937  
    1002A      2.101894  1003A      2.104694  1004A      2.104779  
    1005A      2.108396  1006A      2.108585  1007A      2.116207  
    1008A      2.124334  1009A      2.124499  1010A      2.137453  
    1011A      2.137736  1012A      2.137911  1013A      2.140313  
    1014A      2.140368  1015A      2.141199  1016A      2.143049  
    1017A      2.143927  1018A      2.152130  1019A      2.165210  
    1020A      2.165407  1021A      2.165647  1022A      2.166066  
    1023A      2.172677  1024A      2.173837  1025A      2.173995  
    1026A      2.174807  1027A      2.190497  1028A      2.190965  
    1029A      2.191011  1030A      2.191242  1031A      2.194178  
    1032A      2.206870  1033A      2.207147  1034A      2.207303  
    1035A      2.216335  1036A      2.216389  1037A      2.218711  
    1038A      2.218742  1039A      2.228514  1040A      2.231132  
    1041A      2.246845  1042A      2.253094  1043A      2.255067  
    1044A      2.255730  1045A      2.257688  1046A      2.265596  
    1047A      2.267683  1048A      2.275661  1049A      2.275740  
    1050A      2.276343  1051A      2.279040  1052A      2.296051  
    1053A      2.296678  1054A      2.298342  1055A      2.298454  
    1056A      2.301864  1057A      2.311639  1058A      2.311763  
    1059A      2.319122  1060A      2.325430  1061A      2.331683  
    1062A      2.341054  1063A      2.362436  1064A      2.369765  
    1065A      2.370274  1066A      2.370436  1067A      2.382921  
    1068A      2.386632  1069A      2.386670  1070A      2.415685  
    1071A      2.418881  1072A      2.419319  1073A      2.431435  
    1074A      2.431669  1075A      2.448245  1076A      2.449709  
    1077A      2.465369  1078A      2.467233  1079A      2.475579  
    1080A      2.475955  1081A      2.490448  1082A      2.491780  
    1083A      2.492001  1084A      2.499783  1085A      2.501378  
    1086A      2.501524  1087A      2.503771  1088A      2.505792  
    1089A      2.505869  1090A      2.518745  1091A      2.518784  
    1092A      2.521838  1093A      2.522323  1094A      2.532602  
    1095A      2.532705  1096A      2.532876  1097A      2.535812  
    1098A      2.538732  1099A      2.552493  1100A      2.570057  
    1101A      2.570210  1102A      2.571184  1103A      2.576841  
    1104A      2.577345  1105A      2.578013  1106A      2.587808  
    1107A      2.587900  1108A      2.597618  1109A      2.597936  
    1110A      2.603253  1111A      2.609490  1112A      2.627421  
    1113A      2.628513  1114A      2.630305  1115A      2.633908  
    1116A      2.640618  1117A      2.646783  1118A      2.647021  
    1119A      2.658306  1120A      2.658471  1121A      2.664127  
    1122A      2.664275  1123A      2.665947  1124A      2.668305  
    1125A      2.668490  1126A      2.679042  1127A      2.683331  
    1128A      2.684351  1129A      2.692727  1130A      2.698749  
    1131A      2.698960  1132A      2.710556  1133A      2.722707  
    1134A      2.739770  1135A      2.739940  1136A      2.741645  
    1137A      2.752126  1138A      2.761723  1139A      2.772260  
    1140A      2.773775  1141A      2.796576  1142A      2.797464  
    1143A      2.797669  1144A      2.800652  1145A      2.802983  
    1146A      2.804804  1147A      2.804904  1148A      2.813869  
    1149A      2.863565  1150A      2.863616  1151A      2.870381  
    1152A      2.880094  1153A      2.880217  1154A      2.895805  
    1155A      2.895842  1156A      2.909439  1157A      2.921987  
    1158A      2.952203  1159A      2.952616  1160A      2.959025  
    1161A      2.976211  1162A      2.980330  1163A      3.009261  
    1164A      3.009268  1165A      3.016090  1166A      3.016342  
    1167A      3.051116  1168A      3.055851  1169A      3.056619  
    1170A      3.069071  1171A      3.074965  1172A      3.075862  
    1173A      3.075969  1174A      3.083825  1175A      3.092586  
    1176A      3.092767  1177A      3.092814  1178A      3.095453  
    1179A      3.095613  1180A      3.103986  1181A      3.104521  
    1182A      3.111952  1183A      3.112549  1184A      3.138573  
    1185A      3.158035  1186A      3.164284  1187A      3.183631  
    1188A      3.218155  1189A      3.222723  1190A      3.222824  
    1191A      3.227408  1192A      3.227709  1193A      3.361496  
    1194A      3.361954  1195A      3.385685  1196A      3.426293  
    1197A      3.428773  1198A      3.443837  1199A      3.493725  
    1200A      3.521668  1201A      3.523515  1202A      3.532576  
    1203A      3.538528  1204A      3.572151  1205A      3.574163  
    1206A      3.608609  1207A      3.614109  1208A      3.714623  
    1209A      3.727673  1210A      3.728574  1211A      3.816991  
    1212A      3.817123  1213A      3.858970  1214A      3.859195  
    1215A      3.922038  1216A      3.955915  1217A      3.976523  
    1218A      3.988345  1219A      4.024621  

    Final Occupation by Irrep:
              A 
    DOCC [   197 ]
    NA   [   197 ]
    NB   [   197 ]

  @DF-RHF Final Energy: -2359.19658963748725

   => Energetics <=

    Nuclear Repulsion Energy =           7771.0158743151787348
    One-Electron Energy =              -18648.5558144938950136
    Two-Electron Energy =                8518.3433505412285740
    Total Energy =                      -2359.1965896374877047

Computation Completed


Properties will be evaluated at   0.000000,   0.000000,   0.000000 [a0]

Properties computed using the SCF density matrix


 Multipole Moments:

 ------------------------------------------------------------------------------------
     Multipole            Electronic (a.u.)      Nuclear  (a.u.)        Total (a.u.)
 ------------------------------------------------------------------------------------

 L = 1.  Multiply by 2.5417464519 to convert [e a0] to [Debye]
 Dipole X            :         -0.0010868            0.0006313           -0.0004555
 Dipole Y            :         -0.0479249            0.0560211            0.0080961
 Dipole Z            :         28.5175816          -40.8571262          -12.3395447
 Magnitude           :                                                   12.3395473

 ------------------------------------------------------------------------------------

*** tstop() called on d-16-5-1 at Mon Jan 22 20:04:51 2024
Module time:
	user time   =    4116.65 seconds =      68.61 minutes
	system time =      96.04 seconds =       1.60 minutes
	total time  =        451 seconds =       7.52 minutes
Total time:
	user time   =    4116.65 seconds =      68.61 minutes
	system time =      96.04 seconds =       1.60 minutes
	total time  =        451 seconds =       7.52 minutes

  //>>>>>>>>>>>>>>>>>>>>>>>>>>>>>>>>>>>//
  //            Monomer A HF           //
  //<<<<<<<<<<<<<<<<<<<<<<<<<<<<<<<<<<<//

   => Libint2 <=

    Primary   basis highest AM E, G, H:  7, 7, 4
    Auxiliary basis highest AM E, G, H:  7, 7, 5
    Onebody   basis highest AM E, G, H:  7, 7, 5
    Solid Harmonics ordering:            gaussian

*** tstart() called on d-16-5-1
*** at Mon Jan 22 20:04:51 2024

   => Loading Basis Set <=

    Name: JUN-CC-PVDZ
    Role: ORBITAL
    Keyword: BASIS
    atoms 1-2, 4-5, 10, 17-70 entry C          line   164 file /home/gridsan/tfroembgen/.conda/envs/psi4test/share/psi4/basis/jun-cc-pvdz.gbs 
    atoms 3, 6                entry N          line   198 file /home/gridsan/tfroembgen/.conda/envs/psi4test/share/psi4/basis/jun-cc-pvdz.gbs 
    atoms 7-9, 11-16, 71-88   entry H          line    36 file /home/gridsan/tfroembgen/.conda/envs/psi4test/share/psi4/basis/jun-cc-pvdz.gbs 


         ---------------------------------------------------------
                                   SCF
               by Justin Turney, Rob Parrish, Andy Simmonett
                          and Daniel G. A. Smith
                              RHF Reference
                       12 Threads,  30517 MiB Core
         ---------------------------------------------------------

  ==> Geometry <==

    Molecular point group: c1
    Full point group: C1

    Geometry (in Angstrom), charge = 1, multiplicity = 1:

       Center              X                  Y                   Z               Mass       
    ------------   -----------------  -----------------  -----------------  -----------------
         C            0.680066520158    -0.008042372515    -8.372941583557    12.000000000000
         C           -0.680504479842    -0.006014372515    -8.372557583557    12.000000000000
         N           -1.085635479842    -0.005016372515    -7.054233583557    14.003074004430
         C            0.000107520158    -0.001740372515    -6.272832583557    12.000000000000
         C           -2.477365479842     0.044389627485    -6.586254583557    12.000000000000
         N            1.085221520158    -0.005016372515    -7.054233583557    14.003074004430
         H            1.385145520158    -0.015870372515    -9.190380583557     1.007825032230
         H           -1.385302479842    -0.006204372515    -9.190226583557     1.007825032230
         H           -0.000009479842     0.000006627485    -5.191743583557     1.007825032230
         C            2.478116520158    -0.021908372515    -6.589135583557    12.000000000000
         H            2.490591520158     0.005436627485    -5.498882583557     1.007825032230
         H            2.967027520158    -0.935354372515    -6.936311583557     1.007825032230
         H            3.001427520158     0.853574627485    -6.980607583557     1.007825032230
         H           -2.857359479842     1.066460627485    -6.666213583557     1.007825032230
         H           -3.082679479842    -0.625694372515    -7.199318583557     1.007825032230
         H           -2.518128479842    -0.282594372515    -5.546306583557     1.007825032230
      Gh(C)           1.225311895423     0.707538288405     1.049125043726    12.000000000000
      Gh(C)           1.225323856051    -0.707538895085     1.036794234156    12.000000000000
      Gh(C)          -0.000006153932     1.414965913575     1.036260610635    12.000000000000
      Gh(C)           2.456448753949     1.418327886663     1.052011901126    12.000000000000
      Gh(C)           0.000010827279    -1.414976499150     1.046460167960    12.000000000000
      Gh(C)          -1.225300948908     0.707545373469     1.051376564049    12.000000000000
      Gh(C)           2.456437755320    -1.418323304396     1.034549077299    12.000000000000
      Gh(C)          -0.000001332978     2.836801030766     1.033857060501    12.000000000000
      Gh(C)           3.681826697470     0.709317955486     1.034897867097    12.000000000000
      Gh(C)           2.455120048865     2.834223660974     1.034795310136    12.000000000000
      Gh(C)           3.681821105219    -0.709333839944     1.050970351115    12.000000000000
      Gh(C)          -1.225313598688    -0.707527516059     1.037866995583    12.000000000000
      Gh(C)           1.226699581202     3.543469483479     1.051154383046    12.000000000000
      Gh(C)           0.000004784858    -2.836782139751     1.051308335581    12.000000000000
      Gh(C)          -2.456436032848     1.418316917770     1.051411959895    12.000000000000
      Gh(C)           2.455123417779    -2.834230029103     1.050818442748    12.000000000000
      Gh(C)          -1.226714364589     3.543469063235     1.051257716266    12.000000000000
      Gh(C)           4.914517295202     1.427172871975     1.041378550127    12.000000000000
      Gh(C)           3.693150191476     3.542795292030     1.041428349763    12.000000000000
      Gh(C)          -2.456437600068    -1.418313281354     1.034524039175    12.000000000000
      Gh(C)           1.226704841943    -3.543474242421     1.035184252297    12.000000000000
      Gh(C)          -2.455125398508     2.834216662119     1.034801686483    12.000000000000
      Gh(C)           4.914524380782    -1.427186910459     1.044351292861    12.000000000000
      Gh(C)           1.221424613699     4.970134064745     1.044489727121    12.000000000000
      Gh(C)           4.893008229321     2.825187999512     1.042595218485    12.000000000000
      Gh(C)          -1.226697008489    -3.543470997592     1.035451456706    12.000000000000
      Gh(C)          -3.681818976526     0.709324966217     1.034910547577    12.000000000000
      Gh(C)           3.693147101150    -3.542801341905     1.044469183422    12.000000000000
      Gh(C)          -1.221432251994     4.970128297348     1.044673222494    12.000000000000
      Gh(C)           6.134770972926     0.680547946591     1.042148324676    12.000000000000
      Gh(C)           3.656788880610     4.972953243053     1.042336987546    12.000000000000
      Gh(C)          -2.455126907733    -2.834215093576     1.050574084950    12.000000000000
      Gh(C)          -3.681819179061    -0.709325703983     1.051087972694    12.000000000000
      Gh(C)           4.893012617914    -2.825200106147     1.043206370381    12.000000000000
      Gh(C)          -0.000001073113     5.650447365518     1.043441913787    12.000000000000
      Gh(C)           6.134775112332    -0.680554854590     1.043413645192    12.000000000000
      Gh(C)           2.478131482856     5.653576750817     1.043625767195    12.000000000000
      Gh(C)           1.221422404738    -4.970127055448     1.041690230098    12.000000000000
      Gh(C)          -3.693162383965     3.542796953677     1.041593857222    12.000000000000
      Gh(C)          -1.221428520945    -4.970118304111     1.041577468266    12.000000000000
      Gh(C)          -4.914521807942     1.427175446480     1.041455495134    12.000000000000
      Gh(C)           3.656787019679    -4.972955226754     1.043787488080    12.000000000000
      Gh(C)          -2.478138530106     5.653574422014     1.043910292204    12.000000000000
      Gh(C)          -3.693141738564    -3.542790219494     1.044353057266    12.000000000000
      Gh(C)          -4.914512483053    -1.427181000542     1.044385990035    12.000000000000
      Gh(C)          -0.000006008926    -5.650438287528     1.043046409665    12.000000000000
      Gh(C)          -4.893020484101     2.825188598404     1.042585136625    12.000000000000
      Gh(C)           2.478125993298    -5.653573544403     1.042696887287    12.000000000000
      Gh(C)          -3.656798710258     4.972956181527     1.042513667920    12.000000000000
      Gh(C)          -4.892999478856    -2.825191767575     1.043052334683    12.000000000000
      Gh(C)          -2.478128498083    -5.653566170521     1.042421699640    12.000000000000
      Gh(C)          -6.134770503331     0.680548765741     1.042122772974    12.000000000000
      Gh(C)          -3.656788833189    -4.972944023485     1.043573200263    12.000000000000
      Gh(C)          -6.134765042913    -0.680553915997     1.043393169397    12.000000000000
      Gh(H)           5.835288495816     3.369275894439     1.046954544148     1.007825032230
      Gh(H)           7.073859172747     1.228217248385     1.042609968070     1.007825032230
      Gh(H)           4.600663264174     5.512380801938     1.042842188297     1.007825032230
      Gh(H)           5.835283387305    -3.369306057244     1.038751903066     1.007825032230
      Gh(H)          -0.000012151306     6.738530673622     1.039092668779     1.007825032230
      Gh(H)           7.073861171831    -1.228226943259     1.042904907098     1.007825032230
      Gh(H)           2.473313731799     6.740684290880     1.043159046265     1.007825032230
      Gh(H)           4.600668491381    -5.512376129691     1.043377490911     1.007825032230
      Gh(H)          -2.473318680537     6.740681719092     1.043460392890     1.007825032230
      Gh(H)          -0.000010268228    -6.738528176967     1.047576094650     1.007825032230
      Gh(H)          -5.835301914343     3.369270949781     1.047090566296     1.007825032230
      Gh(H)           2.473307923831    -6.740685374944     1.043267217712     1.007825032230
      Gh(H)          -4.600674841208     5.512378026089     1.043007516621     1.007825032230
      Gh(H)          -5.835279506835    -3.369288964294     1.038472597185     1.007825032230
      Gh(H)          -2.473300347440    -6.740679078655     1.042817901168     1.007825032230
      Gh(H)          -7.073857766768     1.228220472326     1.042525976589     1.007825032230
      Gh(H)          -4.600673786085    -5.512362670301     1.043205182888     1.007825032230
      Gh(H)          -7.073856934409    -1.228220632492     1.042810050632     1.007825032230

  Running in c1 symmetry.

  Rotational constants: A =      0.00126  B =      0.00124  C =      0.00109 [cm^-1]
  Rotational constants: A =     37.79012  B =     37.12578  C =     32.71081 [MHz]
  Nuclear repulsion =  306.774908447733083

  Charge       = 1
  Multiplicity = 1
  Electrons    = 52
  Nalpha       = 26
  Nbeta        = 26

  ==> Algorithm <==

  SCF Algorithm Type is DF.
  DIIS enabled.
  MOM disabled.
  Fractional occupation disabled.
  Guess Type is SAD.
  Energy threshold   = 1.00e-08
  Density threshold  = 1.00e-08
  Integral threshold = 1.00e-12

  ==> Primary Basis <==

  Basis Set: JUN-CC-PVDZ
    Blend: JUN-CC-PVDZ
    Number of shells: 569
    Number of basis functions: 1233
    Number of Cartesian functions: 1294
    Spherical Harmonics?: true
    Max angular momentum: 2

   => Loading Basis Set <=

    Name: (JUN-CC-PVDZ AUX)
    Role: JKFIT
    Keyword: DF_BASIS_SCF
    atoms 1-2, 4-5, 10, 17-70 entry C          line   146 file /home/gridsan/tfroembgen/.conda/envs/psi4test/share/psi4/basis/jun-cc-pvdz-jkfit.gbs 
    atoms 3, 6                entry N          line   202 file /home/gridsan/tfroembgen/.conda/envs/psi4test/share/psi4/basis/jun-cc-pvdz-jkfit.gbs 
    atoms 7-9, 11-16, 71-88   entry H          line    70 file /home/gridsan/tfroembgen/.conda/envs/psi4test/share/psi4/basis/jun-cc-pvdz-jkfit.gbs 

  ==> Integral Setup <==

  ==> DiskDFJK: Density-Fitted J/K Matrices <==

    J tasked:                  Yes
    K tasked:                  Yes
    wK tasked:                  No
    OpenMP threads:             12
    Integrals threads:          12
    Memory [MiB]:            22888
    Algorithm:                Core
    Integral Cache:           LOAD
    Schwarz Cutoff:          1E-12
    Fitting Condition:       1E-10

   => Auxiliary Basis Set <=

  Basis Set: (JUN-CC-PVDZ AUX)
    Blend: JUN-CC-PVDZ-JKFIT
    Number of shells: 1890
    Number of basis functions: 5440
    Number of Cartesian functions: 6226
    Spherical Harmonics?: true
    Max angular momentum: 3

  Minimum eigenvalue in the overlap matrix is 8.3977581854E-10.
  Reciprocal condition number of the overlap matrix is 3.7564798820E-11.
    Using canonical orthogonalization.
  Overall, 14 of 1233 possible MOs eliminated.


  ==> Pre-Iterations <==

  SCF Guess: Superposition of Atomic Densities via on-the-fly atomic UHF (no occupation information).

   -------------------------
    Irrep   Nso     Nmo    
   -------------------------
     A       1233    1219 
   -------------------------
    Total    1233    1219
   -------------------------

  ==> Iterations <==

                           Total Energy        Delta E     RMS |[F,P]|

   @DF-RHF iter SAD:  -303.36533940091493   -3.03365e+02   0.00000e+00 
   @DF-RHF iter   1:  -303.16940311844564    1.95936e-01   3.44031e-04 ADIIS/DIIS
   @DF-RHF iter   2:  -303.28373104597131   -1.14328e-01   1.15856e-04 ADIIS/DIIS
   @DF-RHF iter   3:  -303.29517513329563   -1.14441e-02   4.53134e-05 DIIS
   @DF-RHF iter   4:  -303.29707589466778   -1.90076e-03   9.88814e-06 DIIS
   @DF-RHF iter   5:  -303.29718128913339   -1.05394e-04   2.41032e-06 DIIS
   @DF-RHF iter   6:  -303.29719053356371   -9.24443e-06   6.54136e-07 DIIS
   @DF-RHF iter   7:  -303.29719160541168   -1.07185e-06   3.32001e-07 DIIS
   @DF-RHF iter   8:  -303.29719185755971   -2.52148e-07   1.33569e-07 DIIS
   @DF-RHF iter   9:  -303.29719190593846   -4.83788e-08   3.37114e-08 DIIS
   @DF-RHF iter  10:  -303.29719190876472   -2.82625e-09   1.26776e-08 DIIS
   @DF-RHF iter  11:  -303.29719190901051   -2.45791e-10   2.99237e-09 DIIS
  Energy and wave function converged.


  ==> Post-Iterations <==

    Orbital Energies [Eh]
    ---------------------

    Doubly Occupied:                                                      

       1A    -15.834667     2A    -15.834135     3A    -11.529555  
       4A    -11.459860     5A    -11.458305     6A    -11.449668  
       7A    -11.449554     8A     -1.578234     9A     -1.433825  
      10A     -1.238666    11A     -1.189309    12A     -1.118866  
      13A     -1.022535    14A     -0.996965    15A     -0.917046  
      16A     -0.850523    17A     -0.816258    18A     -0.813204  
      19A     -0.790130    20A     -0.786226    21A     -0.781773  
      22A     -0.729704    23A     -0.725782    24A     -0.717095  
      25A     -0.596302    26A     -0.523857  

    Virtual:                                                              

      27A     -0.071294    28A     -0.070073    29A     -0.057089  
      30A     -0.050763    31A     -0.035859    32A     -0.034029  
      33A     -0.031953    34A     -0.031311    35A     -0.030182  
      36A     -0.023540    37A     -0.019206    38A     -0.016544  
      39A     -0.014012    40A     -0.009299    41A     -0.006284  
      42A     -0.005391    43A     -0.001490    44A      0.000400  
      45A      0.001581    46A      0.002621    47A      0.003256  
      48A      0.010517    49A      0.011211    50A      0.012791  
      51A      0.015549    52A      0.020895    53A      0.021016  
      54A      0.023791    55A      0.026486    56A      0.028806  
      57A      0.031728    58A      0.032277    59A      0.033387  
      60A      0.036904    61A      0.037936    62A      0.041443  
      63A      0.041521    64A      0.042319    65A      0.049381  
      66A      0.052411    67A      0.054852    68A      0.055492  
      69A      0.057853    70A      0.059243    71A      0.059572  
      72A      0.064350    73A      0.065961    74A      0.066828  
      75A      0.070036    76A      0.072982    77A      0.073078  
      78A      0.073782    79A      0.074987    80A      0.075731  
      81A      0.075893    82A      0.076854    83A      0.078164  
      84A      0.082307    85A      0.083823    86A      0.085284  
      87A      0.085828    88A      0.089498    89A      0.091581  
      90A      0.092637    91A      0.092657    92A      0.095621  
      93A      0.096154    94A      0.096275    95A      0.099066  
      96A      0.099538    97A      0.103182    98A      0.103526  
      99A      0.103707   100A      0.104505   101A      0.111151  
     102A      0.111957   103A      0.113537   104A      0.116780  
     105A      0.118752   106A      0.119187   107A      0.121103  
     108A      0.122381   109A      0.123035   110A      0.123290  
     111A      0.125839   112A      0.127596   113A      0.129016  
     114A      0.129282   115A      0.130423   116A      0.131871  
     117A      0.132663   118A      0.134998   119A      0.137782  
     120A      0.140754   121A      0.141381   122A      0.144109  
     123A      0.144380   124A      0.144502   125A      0.145003  
     126A      0.145295   127A      0.146158   128A      0.150556  
     129A      0.150694   130A      0.151945   131A      0.152374  
     132A      0.156524   133A      0.156672   134A      0.157152  
     135A      0.158278   136A      0.161829   137A      0.168196  
     138A      0.168348   139A      0.171757   140A      0.171829  
     141A      0.172054   142A      0.172722   143A      0.173903  
     144A      0.174722   145A      0.176372   146A      0.177483  
     147A      0.177896   148A      0.183565   149A      0.184574  
     150A      0.185847   151A      0.186878   152A      0.187711  
     153A      0.188043   154A      0.189840   155A      0.189915  
     156A      0.190680   157A      0.192672   158A      0.193695  
     159A      0.195748   160A      0.199706   161A      0.200311  
     162A      0.200361   163A      0.201270   164A      0.201789  
     165A      0.202986   166A      0.209001   167A      0.217151  
     168A      0.217669   169A      0.218487   170A      0.221543  
     171A      0.222796   172A      0.224473   173A      0.224590  
     174A      0.225215   175A      0.225277   176A      0.225610  
     177A      0.228327   178A      0.229607   179A      0.231994  
     180A      0.232226   181A      0.233678   182A      0.233837  
     183A      0.235218   184A      0.235273   185A      0.237910  
     186A      0.242475   187A      0.244561   188A      0.245764  
     189A      0.246109   190A      0.249567   191A      0.249788  
     192A      0.252663   193A      0.257445   194A      0.257723  
     195A      0.260843   196A      0.261984   197A      0.262524  
     198A      0.268369   199A      0.272038   200A      0.272405  
     201A      0.273053   202A      0.273697   203A      0.276907  
     204A      0.277452   205A      0.279546   206A      0.282104  
     207A      0.288173   208A      0.290540   209A      0.290706  
     210A      0.293225   211A      0.293647   212A      0.294408  
     213A      0.294823   214A      0.298774   215A      0.300480  
     216A      0.301469   217A      0.302543   218A      0.303826  
     219A      0.307482   220A      0.309994   221A      0.310620  
     222A      0.311097   223A      0.311638   224A      0.312423  
     225A      0.316837   226A      0.317548   227A      0.318426  
     228A      0.320820   229A      0.320886   230A      0.326989  
     231A      0.327279   232A      0.329168   233A      0.331156  
     234A      0.335493   235A      0.335924   236A      0.340296  
     237A      0.342567   238A      0.346247   239A      0.349508  
     240A      0.350192   241A      0.351243   242A      0.353899  
     243A      0.359423   244A      0.363873   245A      0.365042  
     246A      0.366145   247A      0.370115   248A      0.370619  
     249A      0.371833   250A      0.375861   251A      0.376330  
     252A      0.376901   253A      0.376922   254A      0.377321  
     255A      0.379651   256A      0.380210   257A      0.381821  
     258A      0.390115   259A      0.391752   260A      0.392345  
     261A      0.392561   262A      0.393361   263A      0.395446  
     264A      0.400010   265A      0.400699   266A      0.401061  
     267A      0.401416   268A      0.401831   269A      0.402674  
     270A      0.404280   271A      0.407946   272A      0.413537  
     273A      0.413740   274A      0.414183   275A      0.416245  
     276A      0.417969   277A      0.419443   278A      0.421077  
     279A      0.422790   280A      0.423074   281A      0.428570  
     282A      0.429043   283A      0.429997   284A      0.432498  
     285A      0.432730   286A      0.433553   287A      0.433854  
     288A      0.437043   289A      0.439531   290A      0.440576  
     291A      0.440671   292A      0.451320   293A      0.451398  
     294A      0.452998   295A      0.455850   296A      0.455957  
     297A      0.461917   298A      0.463066   299A      0.464716  
     300A      0.469508   301A      0.471527   302A      0.471827  
     303A      0.474564   304A      0.474923   305A      0.475673  
     306A      0.476272   307A      0.477437   308A      0.479394  
     309A      0.486748   310A      0.487849   311A      0.487983  
     312A      0.491522   313A      0.491766   314A      0.492673  
     315A      0.493577   316A      0.507785   317A      0.509107  
     318A      0.510705   319A      0.511632   320A      0.513712  
     321A      0.519549   322A      0.519690   323A      0.520637  
     324A      0.521206   325A      0.522384   326A      0.523651  
     327A      0.525109   328A      0.525879   329A      0.532075  
     330A      0.543241   331A      0.543605   332A      0.543802  
     333A      0.544520   334A      0.545617   335A      0.545721  
     336A      0.555150   337A      0.555249   338A      0.560708  
     339A      0.561988   340A      0.562404   341A      0.564672  
     342A      0.565043   343A      0.565690   344A      0.565743  
     345A      0.576522   346A      0.577195   347A      0.577861  
     348A      0.584626   349A      0.584892   350A      0.590790  
     351A      0.591053   352A      0.591499   353A      0.595314  
     354A      0.601193   355A      0.606625   356A      0.607697  
     357A      0.613417   358A      0.616692   359A      0.621335  
     360A      0.622944   361A      0.623132   362A      0.624446  
     363A      0.624629   364A      0.627873   365A      0.628108  
     366A      0.634368   367A      0.634692   368A      0.636110  
     369A      0.636241   370A      0.642520   371A      0.643798  
     372A      0.646857   373A      0.647392   374A      0.649047  
     375A      0.651290   376A      0.651346   377A      0.652190  
     378A      0.653860   379A      0.654502   380A      0.655263  
     381A      0.664796   382A      0.667419   383A      0.667626  
     384A      0.668830   385A      0.669082   386A      0.682236  
     387A      0.685673   388A      0.689448   389A      0.692744  
     390A      0.694099   391A      0.696026   392A      0.701875  
     393A      0.705615   394A      0.706014   395A      0.708711  
     396A      0.709005   397A      0.709692   398A      0.710938  
     399A      0.711043   400A      0.711617   401A      0.712873  
     402A      0.714101   403A      0.717543   404A      0.718487  
     405A      0.720123   406A      0.721401   407A      0.721743  
     408A      0.724254   409A      0.732008   410A      0.732410  
     411A      0.732567   412A      0.735717   413A      0.738884  
     414A      0.740586   415A      0.740658   416A      0.742240  
     417A      0.747104   418A      0.748405   419A      0.751429  
     420A      0.751588   421A      0.752018   422A      0.752865  
     423A      0.761621   424A      0.780680   425A      0.790076  
     426A      0.790232   427A      0.790344   428A      0.794074  
     429A      0.794215   430A      0.804456   431A      0.804557  
     432A      0.814432   433A      0.817344   434A      0.820284  
     435A      0.825730   436A      0.825784   437A      0.830789  
     438A      0.830857   439A      0.834953   440A      0.835992  
     441A      0.843483   442A      0.843591   443A      0.850620  
     444A      0.854979   445A      0.861784   446A      0.869079  
     447A      0.869139   448A      0.886486   449A      0.892826  
     450A      0.901793   451A      0.904846   452A      0.904903  
     453A      0.913295   454A      0.913339   455A      0.922484  
     456A      0.935511   457A      0.944591   458A      0.944791  
     459A      0.945731   460A      0.949961   461A      0.954063  
     462A      0.954246   463A      0.966751   464A      0.971989  
     465A      0.972209   466A      0.977751   467A      0.987289  
     468A      0.987655   469A      1.003815   470A      1.010441  
     471A      1.010501   472A      1.012754   473A      1.012929  
     474A      1.031938   475A      1.038252   476A      1.043387  
     477A      1.047539   478A      1.047879   479A      1.050180  
     480A      1.065417   481A      1.096805   482A      1.099189  
     483A      1.099274   484A      1.103335   485A      1.105836  
     486A      1.105918   487A      1.119797   488A      1.121578  
     489A      1.125340   490A      1.127670   491A      1.127895  
     492A      1.138779   493A      1.141244   494A      1.141253  
     495A      1.146197   496A      1.149709   497A      1.162590  
     498A      1.164616   499A      1.164688   500A      1.172796  
     501A      1.173928   502A      1.232336   503A      1.240294  
     504A      1.240304   505A      1.247419   506A      1.250612  
     507A      1.250820   508A      1.263169   509A      1.266479  
     510A      1.266676   511A      1.271735   512A      1.273796  
     513A      1.275675   514A      1.308691   515A      1.314950  
     516A      1.315113   517A      1.319115   518A      1.346811  
     519A      1.365366   520A      1.387027   521A      1.387496  
     522A      1.405967   523A      1.406070   524A      1.407577  
     525A      1.411165   526A      1.411400   527A      1.413994  
     528A      1.421986   529A      1.426830   530A      1.427711  
     531A      1.463928   532A      1.477665   533A      1.487991  
     534A      1.499077   535A      1.499489   536A      1.501471  
     537A      1.502162   538A      1.503366   539A      1.513115  
     540A      1.517225   541A      1.562646   542A      1.567050  
     543A      1.579470   544A      1.582373   545A      1.591411  
     546A      1.594637   547A      1.603172   548A      1.604899  
     549A      1.605017   550A      1.606467   551A      1.618991  
     552A      1.626440   553A      1.627850   554A      1.634082  
     555A      1.636052   556A      1.644681   557A      1.660422  
     558A      1.668929   559A      1.680451   560A      1.686475  
     561A      1.690178   562A      1.691168   563A      1.691626  
     564A      1.692738   565A      1.694312   566A      1.695841  
     567A      1.704057   568A      1.706012   569A      1.706684  
     570A      1.710213   571A      1.726453   572A      1.732222  
     573A      1.733227   574A      1.734824   575A      1.735708  
     576A      1.737718   577A      1.741162   578A      1.745741  
     579A      1.747529   580A      1.750538   581A      1.754868  
     582A      1.756138   583A      1.761417   584A      1.768645  
     585A      1.769699   586A      1.773830   587A      1.774094  
     588A      1.774473   589A      1.777739   590A      1.778119  
     591A      1.780621   592A      1.786298   593A      1.786735  
     594A      1.786945   595A      1.788360   596A      1.792475  
     597A      1.801720   598A      1.805184   599A      1.805616  
     600A      1.807390   601A      1.810430   602A      1.816585  
     603A      1.820373   604A      1.821855   605A      1.823421  
     606A      1.827701   607A      1.829705   608A      1.830877  
     609A      1.832910   610A      1.837049   611A      1.839294  
     612A      1.842874   613A      1.848267   614A      1.850321  
[...]
     790A      1.643526   791A      1.643587   792A      1.643681  
     793A      1.643958   794A      1.649982   795A      1.661011  
     796A      1.661074   797A      1.664848   798A      1.667464  
     799A      1.676283   800A      1.676371   801A      1.676749  
     802A      1.676760   803A      1.677025   804A      1.680117  
     805A      1.686630   806A      1.686679   807A      1.692730  
     808A      1.696051   809A      1.699305   810A      1.699347  
     811A      1.699910   812A      1.701377   813A      1.704752  
     814A      1.704821   815A      1.715738   816A      1.715772  
     817A      1.741691   818A      1.751402   819A      1.755737  
     820A      1.760266   821A      1.760361   822A      1.761067  
     823A      1.761742   824A      1.776726   825A      1.776758  
     826A      1.790899   827A      1.791459   828A      1.791567  
     829A      1.799542   830A      1.803531   831A      1.805858  
     832A      1.816580   833A      1.816592   834A      1.816907  
     835A      1.818167   836A      1.824655   837A      1.824787  
     838A      1.830742   839A      1.830930   840A      1.835881  
     841A      1.837544   842A      1.842407   843A      1.842790  
     844A      1.856954   845A      1.860647   846A      1.860797  
     847A      1.861155   848A      1.861364   849A      1.864123  
     850A      1.869059   851A      1.872205   852A      1.880149  
     853A      1.880291   854A      1.891516   855A      1.896131  
     856A      1.896326   857A      1.897130   858A      1.899411  
     859A      1.902950   860A      1.903123   861A      1.908569  
     862A      1.908692   863A      1.913990   864A      1.914288  
     865A      1.915430   866A      1.917675   867A      1.917846  
     868A      1.919279   869A      1.921971   870A      1.922099  
     871A      1.940588   872A      1.941769   873A      1.941839  
     874A      1.941928   875A      1.942812   876A      1.946468  
     877A      1.946641   878A      1.953933   879A      1.954279  
     880A      1.954463   881A      1.954653   882A      1.958010  
     883A      1.970243   884A      1.982880   885A      1.983100  
     886A      1.989750   887A      1.994897   888A      1.997122  
     889A      1.998599   890A      1.998617   891A      2.005421  
     892A      2.008101   893A      2.012355   894A      2.012395  
     895A      2.016218   896A      2.027813   897A      2.028376  
     898A      2.029910   899A      2.030114   900A      2.030221  
     901A      2.031216   902A      2.031378   903A      2.032956  
     904A      2.037898   905A      2.047844   906A      2.048245  
     907A      2.052004   908A      2.052187   909A      2.057056  
     910A      2.057439   911A      2.058335   912A      2.059584  
     913A      2.061673   914A      2.068298   915A      2.070297  
     916A      2.071295   917A      2.071593   918A      2.075593  
     919A      2.075789   920A      2.081519   921A      2.082964  
     922A      2.084238   923A      2.085402   924A      2.086835  
     925A      2.093540   926A      2.094889   927A      2.095894  
     928A      2.096857   929A      2.100529   930A      2.100606  
     931A      2.107117   932A      2.108073   933A      2.108308  
     934A      2.108832   935A      2.109400   936A      2.109895  
     937A      2.113763   938A      2.114565   939A      2.119214  
     940A      2.119255   941A      2.120232   942A      2.120793  
     943A      2.124511   944A      2.126141   945A      2.126283  
     946A      2.133180   947A      2.134153   948A      2.134571  
     949A      2.135804   950A      2.136076   951A      2.143160  
     952A      2.143181   953A      2.148145   954A      2.155804  
     955A      2.159377   956A      2.159621   957A      2.162708  
     958A      2.162836   959A      2.166299   960A      2.171292  
     961A      2.178233   962A      2.178532   963A      2.187405  
     964A      2.190376   965A      2.190726   966A      2.192493  
     967A      2.193357   968A      2.193858   969A      2.195781  
     970A      2.196105   971A      2.198374   972A      2.212998  
     973A      2.219663   974A      2.220310   975A      2.220349  
     976A      2.227855   977A      2.228161   978A      2.228668  
     979A      2.229011   980A      2.235364   981A      2.243260  
     982A      2.243612   983A      2.243943   984A      2.244230  
     985A      2.247127   986A      2.260078   987A      2.260163  
     988A      2.267502   989A      2.270123   990A      2.270160  
     991A      2.272036   992A      2.272054   993A      2.276841  
     994A      2.281049   995A      2.297160   996A      2.300285  
     997A      2.306666   998A      2.310305   999A      2.312172  
    1000A      2.315989  1001A      2.320611  1002A      2.322301  
    1003A      2.330944  1004A      2.330981  1005A      2.331092  
    1006A      2.333834  1007A      2.340517  1008A      2.341982  
    1009A      2.350713  1010A      2.351381  1011A      2.352392  
    1012A      2.352423  1013A      2.366285  1014A      2.366452  
    1015A      2.374633  1016A      2.379498  1017A      2.386158  
    1018A      2.415845  1019A      2.424000  1020A      2.424370  
    1021A      2.424395  1022A      2.436447  1023A      2.441104  
    1024A      2.441174  1025A      2.443690  1026A      2.447784  
    1027A      2.456027  1028A      2.468713  1029A      2.470142  
    1030A      2.472668  1031A      2.472967  1032A      2.475849  
    1033A      2.485337  1034A      2.485466  1035A      2.502287  
    1036A      2.507232  1037A      2.519319  1038A      2.529782  
    1039A      2.529932  1040A      2.543681  1041A      2.545291  
    1042A      2.545449  1043A      2.554255  1044A      2.554284  
    1045A      2.554795  1046A      2.559817  1047A      2.559835  
    1048A      2.572964  1049A      2.572986  1050A      2.574637  
    1051A      2.575195  1052A      2.577245  1053A      2.586216  
    1054A      2.586339  1055A      2.587324  1056A      2.589716  
    1057A      2.591391  1058A      2.606120  1059A      2.623370  
    1060A      2.623524  1061A      2.625304  1062A      2.631342  
    1063A      2.631812  1064A      2.633143  1065A      2.641088  
    1066A      2.641258  1067A      2.645069  1068A      2.650117  
    1069A      2.650796  1070A      2.651144  1071A      2.656829  
    1072A      2.658380  1073A      2.673570  1074A      2.681999  
    1075A      2.683058  1076A      2.683988  1077A      2.686842  
    1078A      2.701976  1079A      2.702241  1080A      2.713001  
    1081A      2.713008  1082A      2.718659  1083A      2.718667  
    1084A      2.722509  1085A      2.722832  1086A      2.736864  
    1087A      2.737835  1088A      2.747334  1089A      2.752262  
    1090A      2.752551  1091A      2.766528  1092A      2.777327  
    1093A      2.794500  1094A      2.794607  1095A      2.804398  
    1096A      2.815937  1097A      2.827090  1098A      2.827833  
    1099A      2.835526  1100A      2.851137  1101A      2.851871  
    1102A      2.856016  1103A      2.858308  1104A      2.859451  
    1105A      2.859556  1106A      2.866924  1107A      2.874937  
    1108A      2.889340  1109A      2.908539  1110A      2.916875  
    1111A      2.916923  1112A      2.922748  1113A      2.923869  
    1114A      2.933509  1115A      2.933692  1116A      2.947253  
    1117A      2.949588  1118A      2.949634  1119A      2.962860  
    1120A      2.971095  1121A      2.995057  1122A      3.006332  
    1123A      3.006784  1124A      3.008008  1125A      3.011858  
    1126A      3.029278  1127A      3.038342  1128A      3.064129  
    1129A      3.064148  1130A      3.070519  1131A      3.070626  
    1132A      3.109335  1133A      3.110189  1134A      3.128066  
    1135A      3.129540  1136A      3.129715  1137A      3.137444  
    1138A      3.140423  1139A      3.146154  1140A      3.146397  
    1141A      3.146506  1142A      3.148923  1143A      3.149084  
    1144A      3.157629  1145A      3.158053  1146A      3.165632  
    1147A      3.166168  1148A      3.191705  1149A      3.211137  
    1150A      3.218745  1151A      3.237445  1152A      3.272990  
    1153A      3.276905  1154A      3.277082  1155A      3.281801  
    1156A      3.281947  1157A      3.284899  1158A      3.305519  
    1159A      3.317708  1160A      3.399641  1161A      3.416322  
    1162A      3.416809  1163A      3.442956  1164A      3.481396  
    1165A      3.483935  1166A      3.522293  1167A      3.549125  
    1168A      3.567148  1169A      3.577062  1170A      3.579029  
    1171A      3.593816  1172A      3.626486  1173A      3.628448  
    1174A      3.643294  1175A      3.662860  1176A      3.668333  
    1177A      3.756028  1178A      3.769213  1179A      3.782636  
    1180A      3.783683  1181A      3.814271  1182A      3.866463  
    1183A      3.870729  1184A      3.870750  1185A      3.913067  
    1186A      3.913179  1187A      3.957991  1188A      3.976900  
    1189A      4.010863  1190A      4.032700  1191A      4.044560  
    1192A      4.080939  1193A      4.203598  1194A      4.207247  
    1195A      4.341427  1196A      4.358601  1197A      4.483925  
    1198A      4.734166  1199A      4.772058  1200A      4.828300  
    1201A      4.844634  1202A      4.933962  1203A      5.048596  
    1204A      5.054826  1205A      5.064154  1206A      5.108814  
    1207A      5.128640  1208A      5.389931  1209A      5.420123  
    1210A      5.730370  1211A      5.753285  1212A      6.065672  
    1213A     18.196928  1214A     18.452176  1215A     18.469264  
    1216A     18.557338  1217A     18.829346  1218A     25.337309  
    1219A     25.373247  

    Final Occupation by Irrep:
              A 
    DOCC [   171 ]
    NA   [   171 ]
    NB   [   171 ]

  @DF-RHF Final Energy: -2055.89170368300347

   => Energetics <=

    Nuclear Repulsion Energy =           6452.5568002797781446
    One-Electron Energy =              -15636.4279985631164891
    Two-Electron Energy =                7127.9794946003339646
    Total Energy =                      -2055.8917036830034704

Computation Completed


Properties will be evaluated at   0.000000,   0.000000,   0.000000 [a0]

Properties computed using the SCF density matrix


 Multipole Moments:

 ------------------------------------------------------------------------------------
     Multipole            Electronic (a.u.)      Nuclear  (a.u.)        Total (a.u.)
 ------------------------------------------------------------------------------------

 L = 1.  Multiply by 2.5417464519 to convert [e a0] to [Debye]
 Dipole X            :          0.0001063           -0.0000085            0.0000978
 Dipole Y            :         -0.0000291            0.0000167           -0.0000125
 Dipole Z            :       -674.0651761          674.0670718            0.0018957
 Magnitude           :                                                    0.0018983

 ------------------------------------------------------------------------------------

*** tstop() called on d-16-5-1 at Mon Jan 22 20:20:29 2024
Module time:
	user time   =    2691.09 seconds =      44.85 minutes
	system time =      68.92 seconds =       1.15 minutes
	total time  =        736 seconds =      12.27 minutes
Total time:
	user time   =    8289.29 seconds =     138.15 minutes
	system time =     191.33 seconds =       3.19 minutes
	total time  =       1389 seconds =      23.15 minutes
  Constructing Basis Sets for SAPT...

   => Loading Basis Set <=

    Name: (JUN-CC-PVDZ AUX)
    Role: RIFIT
    Keyword: DF_BASIS_SAPT
    atoms 1-2, 4-5, 10, 17-70 entry C          line   100 file /home/gridsan/tfroembgen/.conda/envs/psi4test/share/psi4/basis/jun-cc-pvdz-ri.gbs 
    atoms 3, 6                entry N          line   144 file /home/gridsan/tfroembgen/.conda/envs/psi4test/share/psi4/basis/jun-cc-pvdz-ri.gbs 
    atoms 7-9, 11-16, 71-88   entry H          line    30 file /home/gridsan/tfroembgen/.conda/envs/psi4test/share/psi4/basis/jun-cc-pvdz-ri.gbs 

   => Loading Basis Set <=

    Name: (JUN-CC-PVDZ AUX)
    Role: JKFIT
    Keyword: DF_BASIS_ELST
    atoms 1-2, 4-5, 10, 17-70 entry C          line   146 file /home/gridsan/tfroembgen/.conda/envs/psi4test/share/psi4/basis/jun-cc-pvdz-jkfit.gbs 
    atoms 3, 6                entry N          line   202 file /home/gridsan/tfroembgen/.conda/envs/psi4test/share/psi4/basis/jun-cc-pvdz-jkfit.gbs 
    atoms 7-9, 11-16, 71-88   entry H          line    70 file /home/gridsan/tfroembgen/.conda/envs/psi4test/share/psi4/basis/jun-cc-pvdz-jkfit.gbs 


  //>>>>>>>>>>>>>>>>>>>>>>>>>>>>>>>>>>>//
  //               SSAPT0              //
  //<<<<<<<<<<<<<<<<<<<<<<<<<<<<<<<<<<<//


*** tstart() called on d-16-5-1
*** at Mon Jan 22 20:20:30 2024

        SAPT0  
    Ed Hohenstein
     6 June 2009

      Orbital Information
  --------------------------
    NSO        =      1233
    NMO        =      1219
    NRI        =      4343
    NRI (Elst) =      5440
    NOCC A     =        26
    NOCC B     =       171
    FOCC A     =         7
    FOCC B     =        54
    NVIR A     =      1193
    NVIR B     =      1048

    Elst10,r            =    -0.006110550112 [Eh]
    Exch10              =    -0.000000174396 [Eh]
    Exch10 (S^2)        =    -0.000000174396 [Eh]

    Iter     Energy [mEh]          dE [mEh]         Residual      Time [s]
       1      -0.01378168       0.013781678       1.109937363           568
       2      -0.01308452      -0.000697161       0.292399886           941
       3      -0.01442513       0.001340613       0.080241204          1003
       4      -0.01450111       0.000075985       0.037469763          1101
       5      -0.01443689      -0.000064229       0.010116607          1325
       6      -0.01443921       0.000002328       0.003543763          1594
       7      -0.01444384       0.000004623       0.000902195          1897
       8      -0.01444408       0.000000240       0.000292866          2058
       9      -0.01444390      -0.000000179       0.000086668          2240
      10      -0.01444385      -0.000000051       0.000026398          2683
      11      -0.01444385       0.000000005       0.000007389          2937
      12      -0.01444386       0.000000006       0.000002135          3125
      13      -0.01444386      -0.000000000       0.000000834          3147

    CHF Iterations converged


    Iter     Energy [mEh]          dE [mEh]         Residual      Time [s]
       1      -2.21043266       2.210432665      24.538995989           362
       2      -1.50665922      -0.703773442       3.026701312           726
       3      -1.50997563       0.003316403       1.119332910           817
       4      -1.54632155       0.036345924       0.251210291           874
       5      -1.54789384       0.001572285       0.070887263           900
       6      -1.54716039      -0.000733446       0.033929190           927
       7      -1.54691597      -0.000244422       0.016194342           949
       8      -1.54705392       0.000137953       0.011312241           979
       9      -1.54710234       0.000048423       0.006620088          1022
      10      -1.54706909      -0.000033251       0.004100619          1048
      11      -1.54705553      -0.000013559       0.001873892          1073
      12      -1.54706021       0.000004681       0.000879017          1095
      13      -1.54706361       0.000003394       0.000374407          1118
      14      -1.54706288      -0.000000728       0.000209471          1145
      15      -1.54706206      -0.000000815       0.000090794          1167
      16      -1.54706219       0.000000124       0.000043941          1190
      17      -1.54706239       0.000000206       0.000012919          1215
      18      -1.54706238      -0.000000014       0.000004266          1237
      19      -1.54706237      -0.000000013       0.000002220          1260
      20      -1.54706236      -0.000000003       0.000000919          1280

    CHF Iterations converged

    Ind20,r (A<-B)      =    -0.000014443858 [Eh]
    Ind20,r (B<-A)      =    -0.001547062364 [Eh]
    Ind20,r             =    -0.001561506222 [Eh]
    Exch-Ind20,r (A<-B) =     0.000000009287 [Eh]
    Exch-Ind20,r (B<-A) =     0.000000057064 [Eh]
    Exch-Ind20,r        =     0.000000066352 [Eh]
    Disp20              =    -0.000683173000 [Eh]
    Disp20 (SS)         =    -0.000341586500 [Eh]
    Disp20 (OS)         =    -0.000341586500 [Eh]
    Exch-Disp20         =     0.000000033130 [Eh]
    Exch-Disp20 (SS)    =     0.000000024408 [Eh]
    Exch-Disp20 (OS)    =     0.000000008723 [Eh]

    SAPT Results 
  --------------------------------------------------------------------------------------------------------
    Electrostatics                 -6.11055011 [mEh]      -3.83442809 [kcal/mol]     -16.04324711 [kJ/mol]
      Elst10,r                     -6.11055011 [mEh]      -3.83442809 [kcal/mol]     -16.04324711 [kJ/mol]

    Exchange                       -0.00017440 [mEh]      -0.00010944 [kcal/mol]      -0.00045788 [kJ/mol]
      Exch10                       -0.00017440 [mEh]      -0.00010944 [kcal/mol]      -0.00045788 [kJ/mol]
      Exch10(S^2)                  -0.00017440 [mEh]      -0.00010944 [kcal/mol]      -0.00045788 [kJ/mol]

    Induction                      -1.58332097 [mEh]      -0.99354891 [kcal/mol]      -4.15700862 [kJ/mol]
      Ind20,r                      -1.56150622 [mEh]      -0.97985995 [kcal/mol]      -4.09973402 [kJ/mol]
      Exch-Ind20,r                  0.00006635 [mEh]       0.00004164 [kcal/mol]       0.00017421 [kJ/mol]
      delta HF,r (2)               -0.02188109 [mEh]      -0.01373059 [kcal/mol]      -0.05744880 [kJ/mol]

    Dispersion                     -0.68313987 [mEh]      -0.42867674 [kcal/mol]      -1.79358348 [kJ/mol]
      Disp20                       -0.68317300 [mEh]      -0.42869753 [kcal/mol]      -1.79367046 [kJ/mol]
      Exch-Disp20                   0.00003313 [mEh]       0.00002079 [kcal/mol]       0.00008698 [kJ/mol]
      Disp20 (SS)                  -0.34158650 [mEh]      -0.21434876 [kcal/mol]      -0.89683523 [kJ/mol]
      Disp20 (OS)                  -0.34158650 [mEh]      -0.21434876 [kcal/mol]      -0.89683523 [kJ/mol]
      Exch-Disp20 (SS)              0.00002441 [mEh]       0.00001532 [kcal/mol]       0.00006408 [kJ/mol]
      Exch-Disp20 (OS)              0.00000872 [mEh]       0.00000547 [kcal/mol]       0.00002290 [kJ/mol]

  Total HF                         -7.69404547 [mEh]      -4.82808643 [kcal/mol]     -20.20071361 [kJ/mol]
  Total SAPT0                      -8.37718534 [mEh]      -5.25676317 [kcal/mol]     -21.99429709 [kJ/mol]

  Special recipe for scaled SAPT0 (see Manual):
    Electrostatics sSAPT0          -6.11055011 [mEh]      -3.83442809 [kcal/mol]     -16.04324711 [kJ/mol]
    Exchange sSAPT0                -0.00017440 [mEh]      -0.00010944 [kcal/mol]      -0.00045788 [kJ/mol]
    Induction sSAPT0               -1.58332097 [mEh]      -0.99354891 [kcal/mol]      -4.15700862 [kJ/mol]
    Dispersion sSAPT0              -0.68313987 [mEh]      -0.42867674 [kcal/mol]      -1.79358348 [kJ/mol]
  Total sSAPT0                     -8.37718534 [mEh]      -5.25676317 [kcal/mol]     -21.99429709 [kJ/mol]
  --------------------------------------------------------------------------------------------------------

*** tstop() called on d-16-5-1 at Mon Jan 22 22:18:00 2024
Module time:
	user time   =    8824.93 seconds =     147.08 minutes
	system time =     952.97 seconds =      15.88 minutes
	total time  =       7050 seconds =     117.50 minutes
Total time:
	user time   =   17115.50 seconds =     285.26 minutes
	system time =    1144.30 seconds =      19.07 minutes
	total time  =       8440 seconds =     140.67 minutes

    Psi4 stopped on: Monday, 22 January 2024 10:18PM
    Psi4 wall time for execution: 2:20:42.13

*** Psi4 exiting successfully. Buy a developer a beer!
