
    -----------------------------------------------------------------------
          Psi4: An Open-Source Ab Initio Electronic Structure Package
                               Psi4 1.9 release

                         Git: Rev {} zzzzzzz 


    D. G. A. Smith, L. A. Burns, A. C. Simmonett, R. M. Parrish,
    M. C. Schieber, R. Galvelis, P. Kraus, H. Kruse, R. Di Remigio,
    A. Alenaizan, A. M. James, S. Lehtola, J. P. Misiewicz, M. Scheurer,
    R. A. Shaw, J. B. Schriber, Y. Xie, Z. L. Glick, D. A. Sirianni,
    J. S. O'Brien, J. M. Waldrop, A. Kumar, E. G. Hohenstein,
    B. P. Pritchard, B. R. Brooks, H. F. Schaefer III, A. Yu. Sokolov,
    K. Patkowski, A. E. DePrince III, U. Bozkaya, R. A. King,
    F. A. Evangelista, J. M. Turney, T. D. Crawford, C. D. Sherrill,
    J. Chem. Phys. 152(18) 184108 (2020). https://doi.org/10.1063/5.0006002

                            Additional Code Authors
    E. T. Seidl, C. L. Janssen, E. F. Valeev, M. L. Leininger,
    J. F. Gonthier, R. M. Richard, H. R. McAlexander, M. Saitow, X. Wang,
    P. Verma, M. H. Lechner, A. Jiang, S. Behnle, A. G. Heide,
    M. F. Herbst, and D. L. Poole

             Previous Authors, Complete List of Code Contributors,
                       and Citations for Specific Modules
    https://github.com/psi4/psi4/blob/master/codemeta.json
    https://github.com/psi4/psi4/graphs/contributors
    http://psicode.org/psi4manual/master/introduction.html#citing-psifour

    -----------------------------------------------------------------------


    Psi4 started on: Saturday, 03 February 2024 05:25PM

    Process ID: 2428078
    Host:       n2cn1050
    PSIDATADIR: /opt/software/pc2/EB-SW/software/PSI4/1.9-foss-2022a/share/psi4
    Memory:     500.0 MiB
    Threads:    16
    
  ==> Input File <==

--------------------------------------------------------------------------
memory 80 GB # how much memory is available ! Depends on the nodes/cores !

molecule dimer {
# monomer A
+1 1    # Charge and multiplicity
C  0.680067 1.417258 -4.815929
C -0.680504 1.419286 -4.815545
N -1.085635 1.420284 -3.497221
C  0.000108 1.423560 -2.715820
C -2.477365 1.469690 -3.029242
N  1.085222 1.420284 -3.497221
H  1.385146 1.409430 -5.633368
H -1.385302 1.419096 -5.633214
H -0.000009 1.425307 -1.634731
C  2.478117 1.403392 -3.032123
H  2.490592 1.430737 -1.941870
H  2.967028 0.489946 -3.379299
H  3.001428 2.278875 -3.423595
H -2.857359 2.491761 -3.109201
H -3.082679 0.799606 -3.642306
H -2.518128 1.142706 -1.989294
--
# monomer B
0 1     # Charge and multiplicity
C   -3.66844126402057      7.80375217008252      0.00190004133558
C   -4.84759871934653      7.13124183134024     -0.00046653359696
C   -4.89495929917518      5.69633040353158     -0.00103944469517
C   -3.65374067877320      4.98073034095895      0.00662099703436
C   -2.40942512149445      7.11398103667468      0.00209438359570
C   -2.42547734410473      5.68112195090346     -0.00491050527438
C   -1.19474401643570      7.78614419430947      0.00356656413763
C   0.03795902893699      7.09942164575698      0.00139585983271
C   0.03033258741920      5.66948955970466     -0.00408752508301
C   -1.20098450790502      4.96927034791531      0.00488220885047
C   1.27795782581485      7.77285944319479      0.00277170839332
C   2.48535808472416      7.08769688523756      0.00049722048857
C   2.48612868491717      5.65477081024076     -0.00644052849921
C   1.25408291964399      4.95607811366431      0.00518741308898
C   3.75171459140595      7.76391215098033      0.00062407186893
C   4.92356605618520      7.07878077698995     -0.00143240883900
C   4.95560727132542      5.64344746336949     -0.00159282164606
C   3.70680153420475      4.94121020833308      0.00349873852374
H   -3.65852113775815      8.89082741913536      0.00358502958574
H   -1.18921332975660      8.87412108735996      0.00753844057883
H   1.28429423888630      8.86083343548850      0.00693053253426
H   3.75354208679975      8.85103527897216      0.00214659618464
H   5.86995870320703      7.61379483465560     -0.00235777588134
H   -5.78823170750226      7.67630221293400     -0.00202638095293
C   -6.09197395869619      4.99326001364347     -0.00291168518608
C   -6.12866148031747      3.58258016879823     -0.00171050815740
C   -3.66457974004527      3.56418217974434     -0.00463560277484
C   -4.89429820469869      2.86108077590057      0.00453338221034
C   -2.43733499489796      2.84761165708481      0.00719617576166
C   -1.20922785759670      3.54788693497833     -0.00648285103018
C   1.24714157216223      3.53468075142962     -0.00729145743546
C   0.01517603956900      2.83311183930540      0.00439272578912
C   2.46764517244071      2.82128997725533      0.00449278391269
C   3.70254947457969      3.52466015442405     -0.00899517692985
C   6.14498038638375      4.92757236613191     -0.00282626685777
C   6.16658835886151      3.51658447594213     -0.00065971342101
C   4.92460995845939      2.80840792535402      0.00587903281610
H   7.08990550964105      5.46688776622306     -0.00658814770723
H   -7.03104175110130      5.54268795285765     -0.00714490013730
C   -7.33969804112295      2.85841153457957     -0.00333767559888
C   -7.36488195805880      1.47032337158330     -0.00157213747140
C   -4.90350460894690      1.44442681216000     -0.00628840166334
C   -6.13225715261081      0.73993935705394      0.00600164231964
C   -3.67687480051673      0.72669714267312      0.00433931473643
C   -2.44565658606518      1.42964113326212     -0.00597039546461
C   -1.22360068130162      0.71532450163492      0.00545886906656
C   0.00763786931376      1.41738314923765      0.00392452278437
C   1.23121980774686      0.70211669058719     -0.01490206287210
C   2.46082110053113      1.40329203612573      0.00460244601878
C   3.68443025419614      0.68719842821222      0.00377365974158
C   4.91870890153864      1.39173456118907     -0.00862816189375
C   7.36980207796101      2.77948220318441     -0.00242013321349
C   7.38016266612146      1.39121750785509     -0.00087345036788
C   6.13979953912259      0.67411862320065      0.00545489144369
H   -8.27919079934664      3.40711804112415     -0.00763522772059
H   8.31511347147953      3.31811809662368     -0.00663070901292
C   -8.59175593758115      0.72483255304480     -0.00123170985383
C   -8.59902460370342     -0.63263980622873      0.00089141472904
C   -6.13981313911873     -0.67413663715361     -0.00609792660607
C   -7.38018411213749     -1.39126618958160      0.00131813493501
C   -4.91868448025621     -1.39175501803000      0.00624257154343
C   -3.68443829568458     -0.68723731573599     -0.00478966852105
C   -2.46081704024768     -1.40334517882457      0.00575341766833
C   -1.23116201232071     -0.70217386488055     -0.00636696112346
C   -0.00756962538737     -1.41741884941102      0.00108956317991
C   1.22364771588843     -0.71527537726392      0.01109518512883
C   2.44567064933149     -1.42964328900682     -0.00065482763106
C   3.67686670284649     -0.72670743155550     -0.00479541202602
C   6.13224884641929     -0.73997883984993     -0.00632338623858
C   4.90351914550401     -1.44445752054090      0.00751768830159
C   8.59901484869081      0.63260386666793     -0.00101133422380
C   8.59174548810050     -0.72485086719319      0.00072504603735
C   7.36486276438985     -1.47033266560598      0.00049486934466
H   -9.52830597181814      1.27684744919284     -0.00270163681798
H   9.54141097460619      1.17457248844457     -0.00206336648518
C   -7.36983790976868     -2.77954514593389      0.00312634335708
C   -4.92459910905015     -2.80843725734101     -0.00460528907921
C   -6.16662249566744     -3.51665219282533      0.00169655107992
C   -3.70251035970491     -3.52468154912026      0.00571878010666
C   -2.46764698511392     -2.82132596280400     -0.00632585824990
C   -0.01513347410770     -2.83314164539971     -0.00604426974092
C   -1.24712184122656     -3.53473217556300      0.00551968366725
C   1.20924506964357     -3.54791467864352      0.00805871345849
C   2.43733602215464     -2.84764173817541     -0.00608104485234
C   4.89430234377080     -2.86112296828604     -0.00526030478103
C   3.66461525504104     -3.56421984553201      0.00761911515957
C   6.12863901474565     -3.58258405771778      0.00096495711699
C   7.33967266469532     -2.85841330737039      0.00248018319869
H   -9.54144911125902     -1.17456346666430      0.00226083090216
H   9.52826186807155     -1.27691907390448      0.00197485379837
H   -8.31516504384864     -3.31814985321231      0.00729857188773
H   8.27915514249207     -3.40714078989363      0.00681973918158
C   -6.14499418870218     -4.92764727278338      0.00302254913999
C   -3.70678334799751     -4.94126171411716     -0.00679841894792
C   -4.95559005800169     -5.64349397349412      0.00116871569699
C   -2.48612132622665     -5.65478557440947      0.00614125209662
C   -1.25405833548005     -4.95612205000132     -0.00503435388927
C   1.20101257386816     -4.96928038819302     -0.00385322963129
C   -0.03033667441341     -5.66952030313900      0.00398997003238
C   3.65375010132847     -4.98074377541453     -0.00309522988330
C   2.42549269587528     -5.68117463552727      0.00628170066869
C   6.09196561781097     -4.99325796338655      0.00325918379042
C   4.89497644461045     -5.69634842095790      0.00202298796027
H   -7.08989238804069     -5.46699984223871      0.00742531082125
H   7.03105520920009     -5.54265853633254      0.00683896355417
C   -4.92354532219813     -7.07882109967734      0.00061394679214
C   -2.48534208823777     -7.08772807792913     -0.00189594564379
C   -3.75168589177895     -7.76394715763627     -0.00170126671874
C   -0.03794895698805     -7.09946487446944     -0.00168022049625
C   -1.27795610040136     -7.77290438466689     -0.00366491325785
C   2.40944432072629     -7.11402201200282     -0.00081701968533
C   1.19474993715296     -7.78618536556242     -0.00296931056689
C   4.84762105249800     -7.13126211057943      0.00168979497423
C   3.66847160587561     -7.80378799294376     -0.00065863938960
H   -5.86994035041618     -7.61383059804164      0.00215798365757
H   5.78824962538815     -7.67633218931421      0.00281691445618
H   -3.75352693944918     -8.85107156923607     -0.00353718114765
H   -1.28430440589466     -8.86087539249706     -0.00809229711623
H   1.18922157469537     -8.87416062058945     -0.00706194725726
H   3.65854661482387     -8.89086063405326     -0.00231318081200

    units angstrom      # Angstroms are the default
    no_reorient         # Geometry fixed, default
    symmetry c1         # C1 symmetry, default
}

set {
    scf_type DF         # Density fitting, faster than exact integrals
    freeze_core True    # Freeze core electrons
    basis jun-cc-pVDZ   # Jun-cc-pVDZ basis set, recommended for sSAPT0 in https://doi.org/10.1063/1.4867135
}

energy('ssapt0')        # Compute sSAPT0 energy, includes also SAPT0
--------------------------------------------------------------------------

  Memory set to  74.506 GiB by Python driver.

Scratch directory: /tmp/
   => Loading Basis Set <=

    Name: JUN-CC-PVDZ
    Role: ORBITAL
    Keyword: BASIS
    atoms 1-2, 4-5, 10, 17-34, 41-53, 56-70, 73-89, 92-104, 109-119, 122-130 entry C          line   164 file /opt/software/pc2/EB-SW/software/PSI4/1.9-foss-2022a/share/psi4/basis/jun-cc-pvdz.gbs 
    atoms 3, 6                                                               entry N          line   198 file /opt/software/pc2/EB-SW/software/PSI4/1.9-foss-2022a/share/psi4/basis/jun-cc-pvdz.gbs 
    atoms 7-9, 11-16, 35-40, 54-55, 71-72, 90-91, 105-108, 120-121, 131-136  entry H          line    36 file /opt/software/pc2/EB-SW/software/PSI4/1.9-foss-2022a/share/psi4/basis/jun-cc-pvdz.gbs 

   => Loading Basis Set <=

    Name: JUN-CC-PVDZ
    Role: ORBITAL
    Keyword: BASIS
    atoms 1-2, 4-5, 10, 17-34, 41-53, 56-70, 73-89, 92-104, 109-119, 122-130 entry C          line   164 file /opt/software/pc2/EB-SW/software/PSI4/1.9-foss-2022a/share/psi4/basis/jun-cc-pvdz.gbs 
    atoms 3, 6                                                               entry N          line   198 file /opt/software/pc2/EB-SW/software/PSI4/1.9-foss-2022a/share/psi4/basis/jun-cc-pvdz.gbs 
    atoms 7-9, 11-16, 35-40, 54-55, 71-72, 90-91, 105-108, 120-121, 131-136  entry H          line    36 file /opt/software/pc2/EB-SW/software/PSI4/1.9-foss-2022a/share/psi4/basis/jun-cc-pvdz.gbs 


  //>>>>>>>>>>>>>>>>>>>>>>>>>>>>>>>>>>>//
  //              Dimer HF             //
  //<<<<<<<<<<<<<<<<<<<<<<<<<<<<<<<<<<<//

   => Libint2 <=

    Primary   basis highest AM E, G, H:  5, 4, 3
    Auxiliary basis highest AM E, G, H:  6, 5, 4
    Onebody   basis highest AM E, G, H:  6, 5, 4
    Solid Harmonics ordering:            gaussian

*** tstart() called on n2cn1050
*** at Sat Feb  3 17:26:00 2024

   => Loading Basis Set <=

    Name: JUN-CC-PVDZ
    Role: ORBITAL
    Keyword: BASIS
    atoms 1-2, 4-5, 10, 17-34, 41-53, 56-70, 73-89, 92-104, 109-119, 122-130 entry C          line   164 file /opt/software/pc2/EB-SW/software/PSI4/1.9-foss-2022a/share/psi4/basis/jun-cc-pvdz.gbs 
    atoms 3, 6                                                               entry N          line   198 file /opt/software/pc2/EB-SW/software/PSI4/1.9-foss-2022a/share/psi4/basis/jun-cc-pvdz.gbs 
    atoms 7-9, 11-16, 35-40, 54-55, 71-72, 90-91, 105-108, 120-121, 131-136  entry H          line    36 file /opt/software/pc2/EB-SW/software/PSI4/1.9-foss-2022a/share/psi4/basis/jun-cc-pvdz.gbs 


         ---------------------------------------------------------
                                   SCF
               by Justin Turney, Rob Parrish, Andy Simmonett
                          and Daniel G. A. Smith
                              RHF Reference
                       16 Threads,  76293 MiB Core
         ---------------------------------------------------------

  ==> Geometry <==

    Molecular point group: c1
    Full point group: C1

    Geometry (in Angstrom), charge = 1, multiplicity = 1:

       Center              X                  Y                   Z               Mass       
    ------------   -----------------  -----------------  -----------------  -----------------
         C            0.680062820275     1.308604348936    -4.541462585681    12.000000000000
         C           -0.680508179725     1.310632348936    -4.541078585681    12.000000000000
         N           -1.085639179725     1.311630348936    -3.222754585681    14.003074004430
         C            0.000103820275     1.314906348936    -2.441353585681    12.000000000000
         C           -2.477369179725     1.361036348936    -2.754775585681    12.000000000000
         N            1.085217820275     1.311630348936    -3.222754585681    14.003074004430
         H            1.385141820275     1.300776348936    -5.358901585681     1.007825032230
         H           -1.385306179725     1.310442348936    -5.358747585681     1.007825032230
         H           -0.000013179725     1.316653348936    -1.360264585681     1.007825032230
         C            2.478112820275     1.294738348936    -2.757656585681    12.000000000000
         H            2.490587820275     1.322083348936    -1.667403585681     1.007825032230
         H            2.967023820275     0.381292348936    -3.104832585681     1.007825032230
         H            3.001423820275     2.170221348936    -3.149128585681     1.007825032230
         H           -2.857363179725     2.383107348936    -2.834734585681     1.007825032230
         H           -3.082683179725     0.690952348936    -3.367839585681     1.007825032230
         H           -2.518132179725     1.034052348936    -1.714827585681     1.007825032230
         C           -3.668445443746     7.695098519018     0.276366455654    12.000000000000
         C           -4.847602899072     7.022588180276     0.273999880722    12.000000000000
         C           -4.894963478901     5.587676752467     0.273426969624    12.000000000000
         C           -3.653744858499     4.872076689895     0.281087411353    12.000000000000
         C           -2.409429301220     7.005327385610     0.276560797914    12.000000000000
         C           -2.425481523830     5.572468299839     0.269555909044    12.000000000000
         C           -1.194748196161     7.677490543245     0.278032978456    12.000000000000
         C            0.037954849212     6.990767994693     0.275862274151    12.000000000000
         C            0.030328407694     5.560835908640     0.270378889236    12.000000000000
         C           -1.200988687630     4.860616696851     0.279348623169    12.000000000000
         C            1.277953646089     7.664205792130     0.277238122712    12.000000000000
         C            2.485353904999     6.979043234173     0.274963634807    12.000000000000
         C            2.486124505192     5.546117159176     0.268025885820    12.000000000000
         C            1.254078739919     4.847424462600     0.279653827408    12.000000000000
         C            3.751710411681     7.655258499916     0.275090486188    12.000000000000
         C            4.923561876460     6.970127125926     0.273034005480    12.000000000000
         C            4.955603091600     5.534793812305     0.272873592673    12.000000000000
         C            3.706797354479     4.832556557269     0.277965152843    12.000000000000
         H           -3.658525317484     8.782173768071     0.278051443905     1.007825032230
         H           -1.189217509482     8.765467436296     0.282004854898     1.007825032230
         H            1.284290059161     8.752179784424     0.281396946853     1.007825032230
         H            3.753537907074     8.742381627908     0.276613010503     1.007825032230
         H            5.869954523482     7.505141183591     0.272108638437     1.007825032230
         H           -5.788235887228     7.567648561870     0.272440033366     1.007825032230
         C           -6.091978138422     4.884606362579     0.271554729133    12.000000000000
         C           -6.128665660043     3.473926517734     0.272755906161    12.000000000000
         C           -3.664583919771     3.455528528680     0.269830811544    12.000000000000
         C           -4.894302384424     2.752427124836     0.278999796529    12.000000000000
         C           -2.437339174623     2.738958006020     0.281662590080    12.000000000000
         C           -1.209232037322     3.439233283914     0.267983563289    12.000000000000
         C            1.247137392437     3.426027100365     0.267174956883    12.000000000000
         C            0.015171859844     2.724458188241     0.278859140108    12.000000000000
         C            2.467640992715     2.712636326191     0.278959198231    12.000000000000
         C            3.702545294854     3.416006503360     0.265471237389    12.000000000000
         C            6.144976206658     4.818918715067     0.271640147461    12.000000000000
         C            6.166584179136     3.407930824878     0.273806700898    12.000000000000
         C            4.924605778734     2.699754274290     0.280345447135    12.000000000000
         H            7.089901329916     5.358234115159     0.267878266612     1.007825032230
         H           -7.031045930827     5.434034301793     0.267321514181     1.007825032230
         C           -7.339702220848     2.749757883515     0.271128738720    12.000000000000
         C           -7.364886137784     1.361669720519     0.272894276847    12.000000000000
         C           -4.903508788672     1.335773161096     0.268178012655    12.000000000000
         C           -6.132261332336     0.631285705989     0.280468056638    12.000000000000
         C           -3.676878980242     0.618043491609     0.278805729055    12.000000000000
         C           -2.445660765791     1.320987482198     0.268496018854    12.000000000000
         C           -1.223604861027     0.606670850570     0.279925283385    12.000000000000
         C            0.007633689588     1.308729498173     0.278390937103    12.000000000000
         C            1.231215628021     0.593463039523     0.259564351447    12.000000000000
         C            2.460816920806     1.294638385061     0.279068860338    12.000000000000
         C            3.684426074471     0.578544777148     0.278240074060    12.000000000000
         C            4.918704721813     1.283080910125     0.265838252425    12.000000000000
         C            7.369797898236     2.670828552120     0.272046281105    12.000000000000
         C            7.380158486396     1.282563856791     0.273592963951    12.000000000000
         C            6.139795359397     0.565464972136     0.279921305762    12.000000000000
         H           -8.279194979072     3.298464390060     0.266831186598     1.007825032230
         H            8.315109291754     3.209464445559     0.267835705306     1.007825032230
         C           -8.591760117307     0.616178901980     0.273234704465    12.000000000000
         C           -8.599028783429    -0.741293457293     0.275357829048    12.000000000000
         C           -6.139817318844    -0.782790288218     0.268368487713    12.000000000000
         C           -7.380188291863    -1.499919840646     0.275784549254    12.000000000000
         C           -4.918688659982    -1.500408669094     0.280708985862    12.000000000000
         C           -3.684442475410    -0.795890966800     0.269676745798    12.000000000000
         C           -2.460821219973    -1.511998829889     0.280219831987    12.000000000000
         C           -1.231166192046    -0.810827515945     0.268099453195    12.000000000000
         C           -0.007573805113    -1.526072500475     0.275555977499    12.000000000000
         C            1.223643536163    -0.823929028328     0.285561599448    12.000000000000
         C            2.445666469606    -1.538296940071     0.273811586688    12.000000000000
         C            3.676862523121    -0.835361082620     0.269671002293    12.000000000000
         C            6.132244666694    -0.848632490914     0.268143028080    12.000000000000
         C            4.903514965779    -1.553111171605     0.281984102620    12.000000000000
         C            8.599010668965     0.523950215603     0.273455080095    12.000000000000
         C            8.591741308375    -0.833504518258     0.275191460356    12.000000000000
         C            7.364858584664    -1.578986316670     0.274961283663    12.000000000000
         H           -9.528310151544     1.168193798128     0.271764777501     1.007825032230
         H            9.541406794881     1.065918837380     0.272403047834     1.007825032230
         C           -7.369842089494    -2.888198796998     0.277592757676    12.000000000000
         C           -4.924603288776    -2.917090908405     0.269861125240    12.000000000000
         C           -6.166626675393    -3.625305843890     0.276162965399    12.000000000000
         C           -3.702514539430    -3.633335200185     0.280185194425    12.000000000000
         C           -2.467651164839    -2.929979613868     0.268140556069    12.000000000000
         C           -0.015137653833    -2.941795296464     0.268422144578    12.000000000000
         C           -1.247126020952    -3.643385826627     0.279986097986    12.000000000000
         C            1.209240889918    -3.656568329708     0.282525127777    12.000000000000
         C            2.437331842429    -2.956295389240     0.268385369466    12.000000000000
         C            4.894298164045    -2.969776619350     0.269206109538    12.000000000000
         C            3.664611075316    -3.672873496596     0.282085529478    12.000000000000
         C            6.128634835020    -3.691237708782     0.275431371436    12.000000000000
         C            7.339668484970    -2.967066958435     0.276946597517    12.000000000000
         H           -9.541453290984    -1.283217117729     0.276727245221     1.007825032230
         H            9.528257688346    -1.385572724969     0.276441268117     1.007825032230
         H           -8.315169223574    -3.426803504277     0.281764986207     1.007825032230
         H            8.279150962767    -3.515794440958     0.281286153500     1.007825032230
         C           -6.144998368428    -5.036300923848     0.277488963459    12.000000000000
         C           -3.706787527723    -5.049915365182     0.267667995371    12.000000000000
         C           -4.955594237727    -5.752147624559     0.275635130016    12.000000000000
         C           -2.486125505952    -5.763439225474     0.280607666415    12.000000000000
         C           -1.254062515205    -5.064775701066     0.269432060430    12.000000000000
         C            1.201008394143    -5.077934039257     0.270613184687    12.000000000000
         C           -0.030340854139    -5.778173954203     0.278456384351    12.000000000000
         C            3.653745921603    -5.089397426479     0.271371184435    12.000000000000
         C            2.425488516150    -5.789828286592     0.280748114987    12.000000000000
         C            6.091961438086    -5.101911614451     0.277725598109    12.000000000000
         C            4.894972264885    -5.805002072022     0.276489402279    12.000000000000
         H           -7.089896567766    -5.575653493303     0.281891725140     1.007825032230
         H            7.031051029475    -5.651312187397     0.281305377873     1.007825032230
         C           -4.923549501924    -7.187474750742     0.275080361111    12.000000000000
         C           -2.485346267963    -7.196381728994     0.272570468675    12.000000000000
         C           -3.751690071504    -7.872600808701     0.272765147600    12.000000000000
         C           -0.037953136713    -7.208118525534     0.272786193823    12.000000000000
         C           -1.277960280127    -7.881558035731     0.270801501061    12.000000000000
         C            2.409440141001    -7.222675663067     0.273649394633    12.000000000000
         C            1.194745757428    -7.894839016627     0.271497103752    12.000000000000
         C            4.847616872773    -7.239915761644     0.276156209293    12.000000000000
         C            3.668467426150    -7.912441644008     0.273807774929    12.000000000000
         H           -5.869944530142    -7.722484249106     0.276624397976     1.007825032230
         H            5.788245445663    -7.784985840379     0.277283328775     1.007825032230
         H           -3.753531119175    -8.959725220301     0.270929233171     1.007825032230
         H           -1.284308585620    -8.969529043562     0.266374117203     1.007825032230
         H            1.189217394970    -8.982814271654     0.267404467062     1.007825032230
         H            3.658542435098    -8.999514285118     0.272153233507     1.007825032230

  Running in c1 symmetry.

  Rotational constants: A =      0.00067  B =      0.00066  C =      0.00035 [cm^-1]
  Rotational constants: A =     19.96062  B =     19.92506  C =     10.47739 [MHz]
  Nuclear repulsion = 18404.819174479533103

  Charge       = 1
  Multiplicity = 1
  Electrons    = 652
  Nalpha       = 326
  Nbeta        = 326

  ==> Algorithm <==

  SCF Algorithm Type is DF.
  DIIS enabled.
  MOM disabled.
  Fractional occupation disabled.
  Guess Type is SAD.
  Energy threshold   = 1.00e-08
  Density threshold  = 1.00e-08
  Integral threshold = 1.00e-12

  ==> Primary Basis <==

  Basis Set: JUN-CC-PVDZ
    Blend: JUN-CC-PVDZ
    Number of shells: 923
    Number of basis functions: 2019
    Number of Cartesian functions: 2122
    Spherical Harmonics?: true
    Max angular momentum: 2

   => Loading Basis Set <=

    Name: (JUN-CC-PVDZ AUX)
    Role: JKFIT
    Keyword: DF_BASIS_SCF
    atoms 1-2, 4-5, 10, 17-34, 41-53, 56-70, 73-89, 92-104, 109-119, 122-130 entry C          line   146 file /opt/software/pc2/EB-SW/software/PSI4/1.9-foss-2022a/share/psi4/basis/jun-cc-pvdz-jkfit.gbs 
    atoms 3, 6                                                               entry N          line   202 file /opt/software/pc2/EB-SW/software/PSI4/1.9-foss-2022a/share/psi4/basis/jun-cc-pvdz-jkfit.gbs 
    atoms 7-9, 11-16, 35-40, 54-55, 71-72, 90-91, 105-108, 120-121, 131-136  entry H          line    70 file /opt/software/pc2/EB-SW/software/PSI4/1.9-foss-2022a/share/psi4/basis/jun-cc-pvdz-jkfit.gbs 

  ==> Integral Setup <==

  ==> DiskDFJK: Density-Fitted J/K Matrices <==

    J tasked:                  Yes
    K tasked:                  Yes
    wK tasked:                  No
    OpenMP threads:             16
    Integrals threads:          16
    Memory [MiB]:            57220
    Algorithm:                Disk
    Integral Cache:           SAVE
    Schwarz Cutoff:          1E-12
    Fitting Condition:       1E-10

   => Auxiliary Basis Set <=

  Basis Set: (JUN-CC-PVDZ AUX)
    Blend: JUN-CC-PVDZ-JKFIT
    Number of shells: 3078
    Number of basis functions: 8896
    Number of Cartesian functions: 10198
    Spherical Harmonics?: true
    Max angular momentum: 3

  Minimum eigenvalue in the overlap matrix is 5.8361675019E-11.
  Reciprocal condition number of the overlap matrix is 2.2358247214E-12.
    Using canonical orthogonalization.
  Overall, 41 of 2019 possible MOs eliminated.


  ==> Pre-Iterations <==

  SCF Guess: Superposition of Atomic Densities via on-the-fly atomic UHF (no occupation information).

   -------------------------
    Irrep   Nso     Nmo    
   -------------------------
     A       2019    1978 
   -------------------------
    Total    2019    1978
   -------------------------

  ==> Iterations <==

                           Total Energy        Delta E     RMS |[F,P]|

   @DF-RHF iter SAD: -3968.34413242993742   -3.96834e+03   0.00000e+00 
   @DF-RHF iter   1: -3952.06466934018135    1.62795e+01   7.14727e-04 ADIIS/DIIS
   @DF-RHF iter   2: -3953.44254662836011   -1.37788e+00   2.37381e-04 ADIIS/DIIS
   @DF-RHF iter   3: -3953.56084806967010   -1.18301e-01   1.17724e-04 ADIIS/DIIS
   @DF-RHF iter   4: -3953.58886286493589   -2.80148e-02   5.38806e-05 DIIS
   @DF-RHF iter   5: -3953.59608641265459   -7.22355e-03   1.31679e-05 DIIS
   @DF-RHF iter   6: -3953.59668950533978   -6.03093e-04   4.89059e-06 DIIS
   @DF-RHF iter   7: -3953.59690006787514   -2.10563e-04   2.35148e-06 DIIS
   @DF-RHF iter   8: -3953.59696858597908   -6.85181e-05   1.17024e-06 DIIS
   @DF-RHF iter   9: -3953.59698858329193   -1.99973e-05   4.19276e-07 DIIS
   @DF-RHF iter  10: -3953.59699006055143   -1.47726e-06   1.85522e-07 DIIS
   @DF-RHF iter  11: -3953.59699028875048   -2.28199e-07   8.15885e-08 DIIS
   @DF-RHF iter  12: -3953.59699034016467   -5.14142e-08   4.48895e-08 DIIS
   @DF-RHF iter  13: -3953.59699036113943   -2.09748e-08   1.95260e-08 DIIS
   @DF-RHF iter  14: -3953.59699036546954   -4.33010e-09   1.29416e-08 DIIS
   @DF-RHF iter  15: -3953.59699036800475   -2.53522e-09   9.57221e-09 DIIS
  Energy and wave function converged.


  ==> Post-Iterations <==

    Orbital Energies [Eh]
    ---------------------

    Doubly Occupied:                                                      

       1A    -15.769279     2A    -15.769158     3A    -11.448090  
       4A    -11.403394     5A    -11.401848     6A    -11.383647  
       7A    -11.381959     8A    -11.349697     9A    -11.348723  
      10A    -11.348509    11A    -11.346520    12A    -11.346370  
      13A    -11.346222    14A    -11.345710    15A    -11.345696  
      16A    -11.345555    17A    -11.345468    18A    -11.344879  
      19A    -11.344751    20A    -11.342641    21A    -11.341739  
      22A    -11.341451    23A    -11.340859    24A    -11.340653  
      25A    -11.339987    26A    -11.339832    27A    -11.338367  
      28A    -11.338219    29A    -11.338078    30A    -11.338021  
      31A    -11.337980    32A    -11.336573    33A    -11.336524  
      34A    -11.335662    35A    -11.335557    36A    -11.334966  
      37A    -11.334893    38A    -11.334719    39A    -11.334589  
      40A    -11.334471    41A    -11.334223    42A    -11.334191  
      43A    -11.333869    44A    -11.333817    45A    -11.333170  
      46A    -11.333095    47A    -11.333019    48A    -11.332276  
      49A    -11.332181    50A    -11.331951    51A    -11.331806  
      52A    -11.331235    53A    -11.331198    54A    -11.330932  
      55A    -11.330811    56A    -11.330714    57A    -11.330582  
      58A    -11.330577    59A    -11.330504    60A    -11.329465  
      61A    -11.329352    62A    -11.329251    63A    -11.329078  
      64A    -11.328914    65A    -11.328820    66A    -11.327870  
      67A    -11.327779    68A    -11.327436    69A    -11.327388  
      70A    -11.327269    71A    -11.327165    72A    -11.326591  
      73A    -11.326339    74A    -11.326298    75A    -11.325579  
      76A    -11.325281    77A    -11.325226    78A    -11.324491  
      79A    -11.324378    80A    -11.324221    81A    -11.324209  
      82A    -11.323980    83A    -11.323905    84A    -11.321926  
      85A    -11.321817    86A    -11.321177    87A    -11.321036  
      88A    -11.320321    89A    -11.320234    90A    -11.318830  
      91A    -11.318740    92A    -11.318300    93A    -11.318245  
      94A    -11.317900    95A    -11.317797    96A    -11.317750  
      97A    -11.317665    98A    -11.316170    99A    -11.316074  
     100A    -11.314352   101A    -11.314319   102A    -11.312821  
     103A    -11.312794   104A     -1.514712   105A     -1.370673  
     106A     -1.336918   107A     -1.315064   108A     -1.313434  
     109A     -1.293325   110A     -1.292711   111A     -1.292353  
     112A     -1.271067   113A     -1.266747   114A     -1.264178  
     115A     -1.263708   116A     -1.243354   117A     -1.243252  
     118A     -1.230328   119A     -1.229805   120A     -1.228462  
     121A     -1.213623   122A     -1.213602   123A     -1.200269  
     124A     -1.189507   125A     -1.188809   126A     -1.187337  
     127A     -1.181980   128A     -1.179900   129A     -1.177429  
     130A     -1.160245   131A     -1.160136   132A     -1.145584  
     133A     -1.145457   134A     -1.141773   135A     -1.140617  
     136A     -1.139341   137A     -1.126843   138A     -1.117291  
     139A     -1.117183   140A     -1.111370   141A     -1.107169  
     142A     -1.107125   143A     -1.099900   144A     -1.098315  
     145A     -1.097625   146A     -1.078279   147A     -1.076676  
     148A     -1.073893   149A     -1.073738   150A     -1.073007  
     151A     -1.059056   152A     -1.058590   153A     -1.042840  
     154A     -1.042440   155A     -1.025202   156A     -1.024963  
     157A     -0.982776   158A     -0.981875   159A     -0.981069  
     160A     -0.973320   161A     -0.973186   162A     -0.967194  
     163A     -0.967024   164A     -0.964110   165A     -0.964054  
     166A     -0.961523   167A     -0.960177   168A     -0.941145  
     169A     -0.940756   170A     -0.935232   171A     -0.922962  
     172A     -0.921511   173A     -0.920491   174A     -0.917425  
     175A     -0.914378   176A     -0.904722   177A     -0.904531  
     178A     -0.895855   179A     -0.895833   180A     -0.862049  
     181A     -0.858924   182A     -0.856693   183A     -0.855716  
     184A     -0.853375   185A     -0.852278   186A     -0.851104  
     187A     -0.850704   188A     -0.838345   189A     -0.835174  
     190A     -0.822668   191A     -0.802646   192A     -0.798090  
     193A     -0.797621   194A     -0.796450   195A     -0.795354  
     196A     -0.795042   197A     -0.791941   198A     -0.789317  
     199A     -0.786496   200A     -0.786054   201A     -0.771011  
     202A     -0.768937   203A     -0.766574   204A     -0.763674  
     205A     -0.759213   206A     -0.755147   207A     -0.755038  
     208A     -0.751966   209A     -0.751953   210A     -0.750127  
     211A     -0.731721   212A     -0.727922   213A     -0.727010  
     214A     -0.723609   215A     -0.722816   216A     -0.722273  
     217A     -0.720891   218A     -0.720409   219A     -0.717948  
     220A     -0.713654   221A     -0.713470   222A     -0.709580  
     223A     -0.708462   224A     -0.708032   225A     -0.707224  
     226A     -0.707064   227A     -0.699328   228A     -0.691044  
     229A     -0.683501   230A     -0.683308   231A     -0.678498  
     232A     -0.678468   233A     -0.675309   234A     -0.672978  
     235A     -0.671375   236A     -0.670599   237A     -0.669374  
     238A     -0.665654   239A     -0.665107   240A     -0.664737  
     241A     -0.664156   242A     -0.663883   243A     -0.661077  
     244A     -0.660233   245A     -0.660160   246A     -0.659746  
     247A     -0.657751   248A     -0.646100   249A     -0.645331  
     250A     -0.644332   251A     -0.644322   252A     -0.643571  
     253A     -0.641436   254A     -0.640663   255A     -0.635949  
     256A     -0.635557   257A     -0.632078   258A     -0.629386  
     259A     -0.629324   260A     -0.627130   261A     -0.625441  
     262A     -0.624038   263A     -0.619980   264A     -0.614242  
     265A     -0.613487   266A     -0.603904   267A     -0.603276  
     268A     -0.602948   269A     -0.601923   270A     -0.600500  
     271A     -0.596621   272A     -0.596605   273A     -0.587949  
     274A     -0.587824   275A     -0.583816   276A     -0.583673  
     277A     -0.577960   278A     -0.577604   279A     -0.567482  
     280A     -0.566452   281A     -0.566364   282A     -0.565984  
     283A     -0.564868   284A     -0.562321   285A     -0.549681  
     286A     -0.545470   287A     -0.545203   288A     -0.543185  
     289A     -0.541046   290A     -0.537198   291A     -0.537026  
     292A     -0.536686   293A     -0.529558   294A     -0.520157  
     295A     -0.519841   296A     -0.515380   297A     -0.513597  
     298A     -0.511791   299A     -0.501857   300A     -0.501683  
     301A     -0.478921   302A     -0.477602   303A     -0.467105  
     304A     -0.459020   305A     -0.458535   306A     -0.455228  
     307A     -0.453139   308A     -0.452822   309A     -0.424720  
     310A     -0.424416   311A     -0.421532   312A     -0.415328  
     313A     -0.414830   314A     -0.413884   315A     -0.399757  
     316A     -0.399639   317A     -0.379781   318A     -0.376061  
     319A     -0.375459   320A     -0.370063   321A     -0.355026  
     322A     -0.326851   323A     -0.326822   324A     -0.321926  
     325A     -0.274664   326A     -0.274051  

    Virtual:                                                              

     327A     -0.083007   328A     -0.082148   329A     -0.041251  
     330A     -0.039406   331A     -0.027125   332A     -0.025475  
     333A     -0.019401   334A     -0.016371   335A     -0.010265  
     336A     -0.008482   337A     -0.005400   338A     -0.004913  
     339A     -0.004701   340A     -0.003450   341A     -0.003320  
     342A     -0.002422   343A     -0.000730   344A     -0.000238  
     345A      0.002563   346A      0.003392   347A      0.005869  
     348A      0.006548   349A      0.007553   350A      0.008157  
     351A      0.011342   352A      0.012659   353A      0.012854  
     354A      0.014690   355A      0.015006   356A      0.015421  
     357A      0.021572   358A      0.023634   359A      0.023798  
     360A      0.025392   361A      0.030328   362A      0.030583  
     363A      0.034000   364A      0.034299   365A      0.034969  
     366A      0.036737   367A      0.037712   368A      0.038694  
     369A      0.039203   370A      0.039948   371A      0.041305  
     372A      0.042917   373A      0.043099   374A      0.044788  
     375A      0.047792   376A      0.047917   377A      0.048293  
     378A      0.049803   379A      0.050990   380A      0.051401  
     381A      0.051758   382A      0.052858   383A      0.055987  
     384A      0.057975   385A      0.058644   386A      0.060067  
     387A      0.061262   388A      0.065146   389A      0.065928  
     390A      0.066806   391A      0.067898   392A      0.070920  
     393A      0.071359   394A      0.073323   395A      0.073408  
     396A      0.074022   397A      0.075211   398A      0.076687  
     399A      0.078755   400A      0.079766   401A      0.080951  
     402A      0.082108   403A      0.083225   404A      0.083962  
     405A      0.085212   406A      0.085393   407A      0.087035  
     408A      0.088244   409A      0.089312   410A      0.093541  
     411A      0.096822   412A      0.100053   413A      0.100753  
     414A      0.101641   415A      0.102924   416A      0.104382  
     417A      0.105197   418A      0.105540   419A      0.106216  
     420A      0.106289   421A      0.109983   422A      0.110489  
     423A      0.111303   424A      0.111503   425A      0.112440  
     426A      0.112630   427A      0.113257   428A      0.120182  
     429A      0.121409   430A      0.122908   431A      0.125137  
     432A      0.125211   433A      0.125922   434A      0.127313  
     435A      0.131956   436A      0.132332   437A      0.133190  
     438A      0.133436   439A      0.134163   440A      0.135265  
     441A      0.135658   442A      0.138434   443A      0.138901  
     444A      0.140118   445A      0.140690   446A      0.142504  
     447A      0.142991   448A      0.143161   449A      0.144545  
     450A      0.145013   451A      0.146228   452A      0.146576  
     453A      0.149019   454A      0.150212   455A      0.150437  
     456A      0.151342   457A      0.151688   458A      0.152022  
     459A      0.153026   460A      0.153270   461A      0.154014  
     462A      0.155397   463A      0.155573   464A      0.157152  
     465A      0.160015   466A      0.160813   467A      0.162021  
     468A      0.163567   469A      0.164614   470A      0.164909  
     471A      0.165852   472A      0.166806   473A      0.168652  
     474A      0.169080   475A      0.170105   476A      0.170614  
     477A      0.172155   478A      0.172319   479A      0.172935  
     480A      0.172977   481A      0.174260   482A      0.175105  
     483A      0.175839   484A      0.177334   485A      0.178221  
     486A      0.179492   487A      0.181672   488A      0.183276  
     489A      0.183820   490A      0.185032   491A      0.188873  
     492A      0.191070   493A      0.191137   494A      0.192105  
     495A      0.192393   496A      0.192459   497A      0.194914  
     498A      0.196383   499A      0.198056   500A      0.198233  
     501A      0.198532   502A      0.200002   503A      0.200432  
     504A      0.202430   505A      0.203547   506A      0.203646  
     507A      0.204254   508A      0.204468   509A      0.206614  
     510A      0.209357   511A      0.210377   512A      0.210393  
     513A      0.211120   514A      0.211482   515A      0.213889  
     516A      0.214203   517A      0.215834   518A      0.215890  
     519A      0.217849   520A      0.218855   521A      0.219622  
     522A      0.220950   523A      0.221494   524A      0.223999  
     525A      0.224401   526A      0.225871   527A      0.226613  
     528A      0.227637   529A      0.228136   530A      0.228891  
     531A      0.229588   532A      0.231407   533A      0.232854  
     534A      0.233603   535A      0.234900   536A      0.235246  
     537A      0.235907   538A      0.238134   539A      0.239019  
     540A      0.239650   541A      0.241433   542A      0.242360  
     543A      0.242693   544A      0.243013   545A      0.243688  
     546A      0.245004   547A      0.247123   548A      0.247719  
     549A      0.251789   550A      0.252611   551A      0.253175  
     552A      0.254056   553A      0.254257   554A      0.254900  
     555A      0.256675   556A      0.257902   557A      0.258394  
     558A      0.258751   559A      0.259857   560A      0.260029  
     561A      0.260109   562A      0.261415   563A      0.264605  
     564A      0.265028   565A      0.265331   566A      0.266185  
     567A      0.267419   568A      0.267812   569A      0.268845  
     570A      0.269733   571A      0.270079   572A      0.270923  
     573A      0.272090   574A      0.272575   575A      0.272817  
     576A      0.273810   577A      0.274954   578A      0.275599  
     579A      0.277748   580A      0.279033   581A      0.280422  
     582A      0.281163   583A      0.281604   584A      0.283371  
     585A      0.283436   586A      0.284379   587A      0.286003  
     588A      0.286525   589A      0.287391   590A      0.287638  
     591A      0.288168   592A      0.288705   593A      0.290759  
     594A      0.292046   595A      0.294061   596A      0.294336  
     597A      0.294775   598A      0.295520   599A      0.296331  
     600A      0.297088   601A      0.298030   602A      0.299449  
     603A      0.300653   604A      0.302562   605A      0.303285  
     606A      0.304049   607A      0.305404   608A      0.307145  
     609A      0.309096   610A      0.309646   611A      0.311475  
     612A      0.311934   613A      0.313392   614A      0.313672  
     615A      0.314334   616A      0.314626   617A      0.315281  
     618A      0.316467   619A      0.317269   620A      0.317874  
     621A      0.318375   622A      0.318760   623A      0.319123  
     624A      0.319915   625A      0.321047   626A      0.323010  
     627A      0.323635   628A      0.324231   629A      0.325717  
     630A      0.327762   631A      0.327905   632A      0.328557  
     633A      0.329519   634A      0.330691   635A      0.330932  
     636A      0.331577   637A      0.332033   638A      0.333277  
     639A      0.334162   640A      0.334727   641A      0.336143  
     642A      0.337902   643A      0.338531   644A      0.339102  
     645A      0.339983   646A      0.340468   647A      0.340893  
     648A      0.341820   649A      0.342196   650A      0.342424  
     651A      0.343281   652A      0.344816   653A      0.345911  
     654A      0.346600   655A      0.347384   656A      0.347960  
     657A      0.348820   658A      0.349905   659A      0.351316  
     660A      0.352556   661A      0.352999   662A      0.353657  
     663A      0.354744   664A      0.355782   665A      0.356276  
     666A      0.357134   667A      0.358324   668A      0.360209  
     669A      0.360763   670A      0.361292   671A      0.361781  
     672A      0.362792   673A      0.364472   674A      0.365526  
     675A      0.366246   676A      0.366561   677A      0.367151  
     678A      0.367743   679A      0.368677   680A      0.370123  
     681A      0.370896   682A      0.371584   683A      0.373999  
     684A      0.374533   685A      0.375781   686A      0.376678  
     687A      0.378659   688A      0.379464   689A      0.380949  
     690A      0.383090   691A      0.384663   692A      0.384778  
     693A      0.385441   694A      0.387309   695A      0.388946  
     696A      0.389304   697A      0.389777   698A      0.390189  
     699A      0.390776   700A      0.390917   701A      0.392090  
     702A      0.392981   703A      0.393917   704A      0.394225  
     705A      0.396273   706A      0.397351   707A      0.399717  
     708A      0.401139   709A      0.401582   710A      0.403426  
     711A      0.403649   712A      0.403935   713A      0.404405  
     714A      0.404874   715A      0.406000   716A      0.407124  
     717A      0.408494   718A      0.409493   719A      0.410009  
     720A      0.410529   721A      0.411074   722A      0.412155  
     723A      0.414888   724A      0.416751   725A      0.417507  
     726A      0.418193   727A      0.419597   728A      0.420106  
     729A      0.421201   730A      0.423109   731A      0.423481  
     732A      0.424365   733A      0.427313   734A      0.427779  
     735A      0.428936   736A      0.429707   737A      0.430468  
     738A      0.431569   739A      0.432996   740A      0.433938  
     741A      0.434761   742A      0.436261   743A      0.436953  
     744A      0.438292   745A      0.439525   746A      0.440283  
     747A      0.441771   748A      0.442846   749A      0.444027  
     750A      0.444960   751A      0.445829   752A      0.448312  
     753A      0.449238   754A      0.450074   755A      0.451360  
     756A      0.451993   757A      0.453528   758A      0.454758  
     759A      0.455601   760A      0.456408   761A      0.457474  
     762A      0.457905   763A      0.459519   764A      0.460672  
     765A      0.462210   766A      0.462423   767A      0.465067  
     768A      0.466608   769A      0.468782   770A      0.470678  
     771A      0.471104   772A      0.472523   773A      0.472983  
     774A      0.474629   775A      0.475683   776A      0.476537  
     777A      0.477539   778A      0.480856   779A      0.484391  
     780A      0.486467   781A      0.490921   782A      0.492289  
     783A      0.493708   784A      0.494741   785A      0.496244  
     786A      0.496604   787A      0.499788   788A      0.501166  
     789A      0.503052   790A      0.503504   791A      0.505398  
     792A      0.505593   793A      0.507529   794A      0.509539  
     795A      0.509629   796A      0.510943   797A      0.511618  
     798A      0.512602   799A      0.513042   800A      0.516389  
     801A      0.516590   802A      0.518686   803A      0.520190  
     804A      0.521841   805A      0.524281   806A      0.525565  
     807A      0.527040   808A      0.528691   809A      0.530484  
     810A      0.531306   811A      0.532997   812A      0.534925  
     813A      0.535772   814A      0.538169   815A      0.538803  
     816A      0.539183   817A      0.540731   818A      0.543603  
     819A      0.546478   820A      0.547424   821A      0.549549  
     822A      0.551937   823A      0.553597   824A      0.554679  
     825A      0.555678   826A      0.558522   827A      0.561278  
     828A      0.564024   829A      0.566040   830A      0.569970  
     831A      0.571714   832A      0.572689   833A      0.580134  
     834A      0.580940   835A      0.584147   836A      0.586732  
     837A      0.589249   838A      0.590104   839A      0.591179  
     840A      0.592141   841A      0.593403   842A      0.594107  
     843A      0.598434   844A      0.600078   845A      0.601892  
     846A      0.605492   847A      0.607200   848A      0.609567  
     849A      0.611031   850A      0.613196   851A      0.618884  
     852A      0.621004   853A      0.622280   854A      0.622379  
     855A      0.625011   856A      0.628235   857A      0.629291  
     858A      0.630500   859A      0.632183   860A      0.633725  
     861A      0.634836   862A      0.635776   863A      0.642737  
     864A      0.647478   865A      0.655430   866A      0.657926  
     867A      0.664265   868A      0.669780   869A      0.672168  
     870A      0.672373   871A      0.673626   872A      0.674785  
     873A      0.675178   874A      0.677716   875A      0.678249  
     876A      0.679706   877A      0.685143   878A      0.687323  
     879A      0.706792   880A      0.717620   881A      0.718440  
     882A      0.719078   883A      0.720886   884A      0.722121  
     885A      0.725394   886A      0.725702   887A      0.726564  
     888A      0.727609   889A      0.734014   890A      0.736369  
     891A      0.737515   892A      0.741555   893A      0.743768  
     894A      0.748540   895A      0.751748   896A      0.753430  
     897A      0.757041   898A      0.758364   899A      0.758914  
     900A      0.759972   901A      0.761084   902A      0.763439  
     903A      0.767302   904A      0.767452   905A      0.770576  
     906A      0.771122   907A      0.771583   908A      0.774826  
     909A      0.776766   910A      0.778591   911A      0.781086  
     912A      0.782733   913A      0.785237   914A      0.786155  
     915A      0.789473   916A      0.791198   917A      0.791618  
     918A      0.794079   919A      0.796123   920A      0.797845  
     921A      0.799035   922A      0.800779   923A      0.801840  
     924A      0.804282   925A      0.805528   926A      0.807242  
     927A      0.809483   928A      0.810855   929A      0.811935  
     930A      0.813933   931A      0.814763   932A      0.817803  
     933A      0.818830   934A      0.821212   935A      0.822019  
     936A      0.823906   937A      0.824751   938A      0.826327  
     939A      0.827254   940A      0.828014   941A      0.830051  
     942A      0.833961   943A      0.835841   944A      0.836668  
     945A      0.837314   946A      0.838511   947A      0.841556  
     948A      0.842636   949A      0.844092   950A      0.845147  
     951A      0.847442   952A      0.849580   953A      0.851271  
     954A      0.852492   955A      0.853550   956A      0.854605  
     957A      0.857348   958A      0.857794   959A      0.858358  
     960A      0.859814   961A      0.861925   962A      0.862904  
     963A      0.865667   964A      0.867315   965A      0.868940  
     966A      0.869535   967A      0.873554   968A      0.874141  
     969A      0.875112   970A      0.876681   971A      0.877097  
     972A      0.879326   973A      0.880717   974A      0.881738  
     975A      0.882605   976A      0.885996   977A      0.886730  
     978A      0.887138   979A      0.887622   980A      0.888098  
     981A      0.889445   982A      0.891390   983A      0.893648  
     984A      0.894020   985A      0.894687   986A      0.897230  
     987A      0.897600   988A      0.899247   989A      0.900780  
     990A      0.904945   991A      0.907558   992A      0.909305  
     993A      0.911366   994A      0.911861   995A      0.915849  
     996A      0.917133   997A      0.917904   998A      0.920285  
     999A      0.922656  1000A      0.923687  1001A      0.924858  
    1002A      0.926024  1003A      0.927353  1004A      0.927759  
    1005A      0.930684  1006A      0.931634  1007A      0.935163  
    1008A      0.936917  1009A      0.937267  1010A      0.937781  
    1011A      0.938909  1012A      0.940472  1013A      0.941820  
    1014A      0.943924  1015A      0.944354  1016A      0.946476  
    1017A      0.948050  1018A      0.950887  1019A      0.952407  
    1020A      0.953603  1021A      0.954892  1022A      0.956099  
    1023A      0.959485  1024A      0.960013  1025A      0.962112  
    1026A      0.964164  1027A      0.964271  1028A      0.966370  
    1029A      0.967662  1030A      0.969104  1031A      0.969297  
    1032A      0.970693  1033A      0.972944  1034A      0.976790  
    1035A      0.977296  1036A      0.978764  1037A      0.979537  
    1038A      0.981258  1039A      0.981866  1040A      0.982727  
    1041A      0.983985  1042A      0.985500  1043A      0.986398  
    1044A      0.987051  1045A      0.988075  1046A      0.988772  
    1047A      0.990027  1048A      0.992623  1049A      0.993443  
    1050A      0.994827  1051A      0.996300  1052A      0.997143  
    1053A      0.999209  1054A      0.999312  1055A      1.000286  
    1056A      1.001899  1057A      1.002013  1058A      1.002839  
    1059A      1.003327  1060A      1.004433  1061A      1.005042  
    1062A      1.005759  1063A      1.006549  1064A      1.007027  
    1065A      1.009301  1066A      1.009488  1067A      1.010272  
    1068A      1.010844  1069A      1.011229  1070A      1.012246  
    1071A      1.012467  1072A      1.014499  1073A      1.016221  
    1074A      1.016812  1075A      1.018027  1076A      1.018500  
    1077A      1.020742  1078A      1.021102  1079A      1.021321  
    1080A      1.022098  1081A      1.022339  1082A      1.022962  
    1083A      1.024829  1084A      1.025097  1085A      1.026111  
    1086A      1.028581  1087A      1.030184  1088A      1.031007  
    1089A      1.032735  1090A      1.034164  1091A      1.034511  
    1092A      1.036691  1093A      1.038023  1094A      1.038740  
    1095A      1.040936  1096A      1.041810  1097A      1.044263  
    1098A      1.045239  1099A      1.045794  1100A      1.048434  
    1101A      1.049374  1102A      1.050961  1103A      1.052936  
    1104A      1.053459  1105A      1.054191  1106A      1.057640  
    1107A      1.059217  1108A      1.059862  1109A      1.062961  
    1110A      1.064883  1111A      1.067043  1112A      1.068126  
    1113A      1.069594  1114A      1.070053  1115A      1.072856  
    1116A      1.074803  1117A      1.076825  1118A      1.077467  
    1119A      1.079845  1120A      1.080751  1121A      1.082467  
    1122A      1.083748  1123A      1.086320  1124A      1.087883  
    1125A      1.087933  1126A      1.088834  1127A      1.090375  
    1128A      1.092505  1129A      1.094166  1130A      1.094697  
    1131A      1.097142  1132A      1.099039  1133A      1.101526  
    1134A      1.102805  1135A      1.103868  1136A      1.108165  
    1137A      1.109480  1138A      1.112013  1139A      1.114721  
    1140A      1.115529  1141A      1.118655  1142A      1.119881  
    1143A      1.124062  1144A      1.125373  1145A      1.127210  
    1146A      1.128859  1147A      1.130836  1148A      1.133381  
    1149A      1.137346  1150A      1.140522  1151A      1.141440  
    1152A      1.142489  1153A      1.143902  1154A      1.148033  
    1155A      1.149455  1156A      1.151230  1157A      1.153703  
    1158A      1.155368  1159A      1.155683  1160A      1.157273  
    1161A      1.158260  1162A      1.159355  1163A      1.160797  
    1164A      1.163773  1165A      1.165750  1166A      1.166344  
    1167A      1.172238  1168A      1.175558  1169A      1.178686  
    1170A      1.181848  1171A      1.182802  1172A      1.184546  
    1173A      1.188824  1174A      1.189382  1175A      1.190898  
    1176A      1.192476  1177A      1.197586  1178A      1.198524  
    1179A      1.199203  1180A      1.199466  1181A      1.202086  
    1182A      1.205283  1183A      1.206042  1184A      1.208659  
    1185A      1.212428  1186A      1.214874  1187A      1.217337  
    1188A      1.218538  1189A      1.219513  1190A      1.222026  
    1191A      1.224706  1192A      1.226015  1193A      1.226521  
    1194A      1.227795  1195A      1.230146  1196A      1.231638  
    1197A      1.233054  1198A      1.236642  1199A      1.237667  
    1200A      1.238824  1201A      1.241575  1202A      1.243227  
    1203A      1.245744  1204A      1.248171  1205A      1.250402  
    1206A      1.251163  1207A      1.252710  1208A      1.254789  
    1209A      1.255406  1210A      1.256938  1211A      1.257543  
    1212A      1.258195  1213A      1.262132  1214A      1.262554  
    1215A      1.263605  1216A      1.266368  1217A      1.267601  
    1218A      1.270070  1219A      1.270208  1220A      1.273209  
    1221A      1.275853  1222A      1.276532  1223A      1.277463  
    1224A      1.278890  1225A      1.282384  1226A      1.284181  
    1227A      1.285754  1228A      1.288404  1229A      1.288712  
    1230A      1.291952  1231A      1.293590  1232A      1.297632  
    1233A      1.298654  1234A      1.299300  1235A      1.300128  
    1236A      1.304109  1237A      1.306307  1238A      1.306929  
    1239A      1.309387  1240A      1.310971  1241A      1.314744  
    1242A      1.317324  1243A      1.319785  1244A      1.323503  
    1245A      1.327065  1246A      1.328184  1247A      1.329718  
    1248A      1.331339  1249A      1.332980  1250A      1.333741  
    1251A      1.334986  1252A      1.338457  1253A      1.339654  
    1254A      1.341914  1255A      1.345960  1256A      1.346779  
    1257A      1.349604  1258A      1.349808  1259A      1.351571  
    1260A      1.352345  1261A      1.353498  1262A      1.355811  
    1263A      1.358997  1264A      1.362399  1265A      1.363079  
    1266A      1.364433  1267A      1.364916  1268A      1.366714  
    1269A      1.369837  1270A      1.370615  1271A      1.372275  
    1272A      1.373675  1273A      1.375360  1274A      1.379718  
    1275A      1.380390  1276A      1.384096  1277A      1.385642  
    1278A      1.386795  1279A      1.387982  1280A      1.389900  
    1281A      1.395531  1282A      1.395656  1283A      1.397077  
    1284A      1.399132  1285A      1.403562  1286A      1.406247  
    1287A      1.408409  1288A      1.410157  1289A      1.411722  
    1290A      1.414987  1291A      1.418324  1292A      1.420315  
    1293A      1.421681  1294A      1.426231  1295A      1.428393  
    1296A      1.430360  1297A      1.434657  1298A      1.438618  
    1299A      1.439386  1300A      1.443146  1301A      1.445762  
    1302A      1.452577  1303A      1.455366  1304A      1.461855  
    1305A      1.468524  1306A      1.475332  1307A      1.477449  
    1308A      1.481490  1309A      1.482009  1310A      1.484132  
    1311A      1.491949  1312A      1.508787  1313A      1.513309  
    1314A      1.519074  1315A      1.520212  1316A      1.523274  
    1317A      1.525622  1318A      1.529155  1319A      1.534843  
    1320A      1.535027  1321A      1.536794  1322A      1.540476  
    1323A      1.541322  1324A      1.543076  1325A      1.544745  
    1326A      1.545845  1327A      1.546565  1328A      1.548378  
    1329A      1.549130  1330A      1.550440  1331A      1.551716  
    1332A      1.553668  1333A      1.555370  1334A      1.556385  
    1335A      1.557456  1336A      1.557829  1337A      1.559732  
    1338A      1.562282  1339A      1.563153  1340A      1.564984  
    1341A      1.566376  1342A      1.566921  1343A      1.568453  
    1344A      1.570701  1345A      1.571312  1346A      1.573495  
    1347A      1.577465  1348A      1.577880  1349A      1.578819  
    1350A      1.581344  1351A      1.581941  1352A      1.583375  
    1353A      1.584659  1354A      1.584880  1355A      1.586334  
    1356A      1.588001  1357A      1.590243  1358A      1.593394  
    1359A      1.594152  1360A      1.594945  1361A      1.596642  
    1362A      1.598169  1363A      1.599470  1364A      1.601941  
    1365A      1.604869  1366A      1.605635  1367A      1.607533  
    1368A      1.609851  1369A      1.613049  1370A      1.615766  
    1371A      1.619146  1372A      1.621091  1373A      1.622577  
    1374A      1.624306  1375A      1.624891  1376A      1.627101  
    1377A      1.627568  1378A      1.629716  1379A      1.629986  
    1380A      1.636269  1381A      1.639040  1382A      1.640810  
    1383A      1.642618  1384A      1.644144  1385A      1.645184  
    1386A      1.649874  1387A      1.651071  1388A      1.652612  
    1389A      1.654800  1390A      1.657270  1391A      1.659851  
    1392A      1.664465  1393A      1.669197  1394A      1.670863  
    1395A      1.672103  1396A      1.677104  1397A      1.678066  
    1398A      1.679689  1399A      1.681647  1400A      1.684489  
    1401A      1.687001  1402A      1.694093  1403A      1.697237  
    1404A      1.700538  1405A      1.702344  1406A      1.710357  
    1407A      1.719054  1408A      1.722231  1409A      1.722607  
    1410A      1.724276  1411A      1.725612  1412A      1.728356  
    1413A      1.735642  1414A      1.739603  1415A      1.747211  
    1416A      1.749025  1417A      1.752746  1418A      1.754957  
    1419A      1.757289  1420A      1.758664  1421A      1.759821  
    1422A      1.760798  1423A      1.764290  1424A      1.765063  
    1425A      1.765836  1426A      1.767551  1427A      1.770948  
    1428A      1.772922  1429A      1.773901  1430A      1.777736  
    1431A      1.781870  1432A      1.784601  1433A      1.786557  
    1434A      1.789566  1435A      1.790408  1436A      1.792007  
    1437A      1.792751  1438A      1.794072  1439A      1.796369  
    1440A      1.800106  1441A      1.800606  1442A      1.801258  
    1443A      1.804428  1444A      1.806967  1445A      1.807936  
    1446A      1.808865  1447A      1.810430  1448A      1.812202  
    1449A      1.814465  1450A      1.816292  1451A      1.816812  
    1452A      1.817646  1453A      1.818065  1454A      1.819600  
    1455A      1.821237  1456A      1.823871  1457A      1.827940  
    1458A      1.831159  1459A      1.836035  1460A      1.838166  
    1461A      1.840985  1462A      1.841996  1463A      1.844242  
    1464A      1.844797  1465A      1.845944  1466A      1.846409  
    1467A      1.848180  1468A      1.850967  1469A      1.851855  
    1470A      1.854179  1471A      1.858375  1472A      1.859051  
    1473A      1.861864  1474A      1.862830  1475A      1.867290  
    1476A      1.867826  1477A      1.871107  1478A      1.872271  
    1479A      1.873883  1480A      1.875556  1481A      1.876642  
    1482A      1.877323  1483A      1.878345  1484A      1.878619  
    1485A      1.879852  1486A      1.883273  1487A      1.885842  
    1488A      1.886707  1489A      1.888823  1490A      1.889824  
    1491A      1.894644  1492A      1.896379  1493A      1.897887  
    1494A      1.899109  1495A      1.903413  1496A      1.903765  
    1497A      1.905561  1498A      1.906343  1499A      1.909277  
    1500A      1.911112  1501A      1.913810  1502A      1.916587  
    1503A      1.918844  1504A      1.919758  1505A      1.921529  
    1506A      1.925148  1507A      1.926693  1508A      1.927157  
    1509A      1.930850  1510A      1.934704  1511A      1.935472  
    1512A      1.939435  1513A      1.940017  1514A      1.943353  
    1515A      1.944861  1516A      1.946917  1517A      1.947277  
    1518A      1.948286  1519A      1.949441  1520A      1.951132  
    1521A      1.951402  1522A      1.952685  1523A      1.955979  
    1524A      1.956486  1525A      1.958342  1526A      1.959327  
    1527A      1.964050  1528A      1.965129  1529A      1.967489  
    1530A      1.970019  1531A      1.971420  1532A      1.972145  
    1533A      1.973483  1534A      1.974719  1535A      1.975697  
    1536A      1.977642  1537A      1.979891  1538A      1.982944  
    1539A      1.985476  1540A      1.986982  1541A      1.989087  
    1542A      1.990737  1543A      1.991960  1544A      1.994790  
    1545A      1.995342  1546A      1.997306  1547A      2.002037  
    1548A      2.002580  1549A      2.003142  1550A      2.005089  
    1551A      2.008573  1552A      2.010348  1553A      2.011687  
    1554A      2.012000  1555A      2.012498  1556A      2.014534  
    1557A      2.015130  1558A      2.016876  1559A      2.017334  
    1560A      2.017995  1561A      2.020186  1562A      2.022045  
    1563A      2.023288  1564A      2.023743  1565A      2.024330  
    1566A      2.025294  1567A      2.025783  1568A      2.027102  
    1569A      2.029641  1570A      2.030605  1571A      2.031713  
    1572A      2.032708  1573A      2.034555  1574A      2.035530  
    1575A      2.036628  1576A      2.037743  1577A      2.038908  
    1578A      2.042485  1579A      2.043809  1580A      2.044997  
    1581A      2.046068  1582A      2.048459  1583A      2.049090  
    1584A      2.049416  1585A      2.051306  1586A      2.054035  
    1587A      2.055805  1588A      2.057049  1589A      2.058862  
    1590A      2.059915  1591A      2.060643  1592A      2.060848  
    1593A      2.062224  1594A      2.062718  1595A      2.064912  
    1596A      2.065937  1597A      2.068044  1598A      2.070598  
    1599A      2.074447  1600A      2.075730  1601A      2.076831  
    1602A      2.077946  1603A      2.078469  1604A      2.082368  
    1605A      2.083442  1606A      2.087439  1607A      2.088490  
    1608A      2.090017  1609A      2.090564  1610A      2.092667  
    1611A      2.094898  1612A      2.096660  1613A      2.097577  
    1614A      2.098888  1615A      2.100861  1616A      2.102345  
    1617A      2.105433  1618A      2.106749  1619A      2.109528  
    1620A      2.112815  1621A      2.115009  1622A      2.116395  
    1623A      2.117583  1624A      2.119685  1625A      2.121765  
    1626A      2.123780  1627A      2.124666  1628A      2.126449  
    1629A      2.127858  1630A      2.130744  1631A      2.134035  
    1632A      2.134819  1633A      2.136622  1634A      2.138117  
    1635A      2.139796  1636A      2.141700  1637A      2.142405  
    1638A      2.144731  1639A      2.146436  1640A      2.148230  
    1641A      2.152704  1642A      2.153650  1643A      2.155630  
    1644A      2.158041  1645A      2.159798  1646A      2.160952  
    1647A      2.162558  1648A      2.164015  1649A      2.165440  
    1650A      2.167573  1651A      2.167817  1652A      2.169291  
    1653A      2.172474  1654A      2.172844  1655A      2.176130  
    1656A      2.177528  1657A      2.183153  1658A      2.185181  
    1659A      2.188837  1660A      2.191013  1661A      2.195865  
    1662A      2.197440  1663A      2.200483  1664A      2.203515  
    1665A      2.204555  1666A      2.206076  1667A      2.210051  
    1668A      2.213058  1669A      2.214754  1670A      2.218821  
    1671A      2.220050  1672A      2.223039  1673A      2.225646  
    1674A      2.228467  1675A      2.230135  1676A      2.233668  
    1677A      2.235934  1678A      2.239176  1679A      2.243185  
    1680A      2.245477  1681A      2.249797  1682A      2.252825  
    1683A      2.256884  1684A      2.258050  1685A      2.260533  
    1686A      2.262185  1687A      2.262432  1688A      2.263360  
    1689A      2.265063  1690A      2.267004  1691A      2.269111  
    1692A      2.271284  1693A      2.272067  1694A      2.273024  
    1695A      2.273968  1696A      2.275312  1697A      2.276278  
    1698A      2.278503  1699A      2.279983  1700A      2.281002  
    1701A      2.286435  1702A      2.292562  1703A      2.298859  
    1704A      2.306553  1705A      2.311353  1706A      2.314136  
    1707A      2.316745  1708A      2.320172  1709A      2.323218  
    1710A      2.324404  1711A      2.334047  1712A      2.338340  
    1713A      2.343000  1714A      2.349202  1715A      2.352425  
    1716A      2.356399  1717A      2.357388  1718A      2.360963  
    1719A      2.367384  1720A      2.373271  1721A      2.380294  
    1722A      2.381149  1723A      2.385293  1724A      2.394405  
    1725A      2.395485  1726A      2.398168  1727A      2.398815  
    1728A      2.401661  1729A      2.403185  1730A      2.404034  
    1731A      2.408175  1732A      2.410880  1733A      2.424350  
    1734A      2.427541  1735A      2.431815  1736A      2.436438  
    1737A      2.439678  1738A      2.442618  1739A      2.444813  
    1740A      2.450587  1741A      2.457471  1742A      2.466596  
    1743A      2.468010  1744A      2.468369  1745A      2.471747  
    1746A      2.473315  1747A      2.477763  1748A      2.478936  
    1749A      2.482573  1750A      2.485711  1751A      2.486045  
    1752A      2.490189  1753A      2.492844  1754A      2.494520  
    1755A      2.496934  1756A      2.500604  1757A      2.504659  
    1758A      2.506091  1759A      2.513246  1760A      2.517680  
    1761A      2.519799  1762A      2.521344  1763A      2.523719  
    1764A      2.524104  1765A      2.524237  1766A      2.525145  
    1767A      2.528254  1768A      2.532790  1769A      2.535459  
    1770A      2.538725  1771A      2.545757  1772A      2.546635  
    1773A      2.548004  1774A      2.549114  1775A      2.552820  
    1776A      2.555321  1777A      2.568995  1778A      2.576750  
    1779A      2.578207  1780A      2.579401  1781A      2.581109  
    1782A      2.583000  1783A      2.586634  1784A      2.588086  
    1785A      2.589157  1786A      2.591670  1787A      2.593371  
    1788A      2.596994  1789A      2.601018  1790A      2.603002  
    1791A      2.604657  1792A      2.605301  1793A      2.607372  
    1794A      2.613882  1795A      2.615833  1796A      2.617951  
    1797A      2.620601  1798A      2.621133  1799A      2.624833  
    1800A      2.625273  1801A      2.625582  1802A      2.625873  
    1803A      2.628640  1804A      2.631753  1805A      2.633421  
    1806A      2.641646  1807A      2.647710  1808A      2.654924  
    1809A      2.657958  1810A      2.658400  1811A      2.665092  
    1812A      2.666458  1813A      2.671255  1814A      2.689170  
    1815A      2.692570  1816A      2.702124  1817A      2.704604  
    1818A      2.706438  1819A      2.713442  1820A      2.717065  
    1821A      2.723641  1822A      2.726530  1823A      2.727038  
    1824A      2.729862  1825A      2.729957  1826A      2.731601  
    1827A      2.737610  1828A      2.741439  1829A      2.742556  
    1830A      2.745702  1831A      2.746801  1832A      2.753155  
    1833A      2.759614  1834A      2.763607  1835A      2.764682  
    1836A      2.770734  1837A      2.773108  1838A      2.775091  
    1839A      2.778653  1840A      2.785984  1841A      2.787492  
    1842A      2.793171  1843A      2.794473  1844A      2.801225  
    1845A      2.802489  1846A      2.805267  1847A      2.807156  
    1848A      2.813574  1849A      2.817512  1850A      2.820479  
    1851A      2.826905  1852A      2.843354  1853A      2.846144  
    1854A      2.851909  1855A      2.855042  1856A      2.860249  
    1857A      2.864441  1858A      2.866554  1859A      2.868473  
    1860A      2.872449  1861A      2.886299  1862A      2.887623  
    1863A      2.897454  1864A      2.904558  1865A      2.907478  
    1866A      2.910865  1867A      2.924520  1868A      2.932798  
    1869A      2.957704  1870A      2.958644  1871A      2.965913  
    1872A      2.972486  1873A      2.979982  1874A      2.980838  
    1875A      2.986458  1876A      2.987408  1877A      2.988960  
    1878A      3.003253  1879A      3.004203  1880A      3.010168  
    1881A      3.017468  1882A      3.027599  1883A      3.046726  
    1884A      3.047548  1885A      3.050330  1886A      3.056490  
    1887A      3.064353  1888A      3.064627  1889A      3.068016  
    1890A      3.076226  1891A      3.077956  1892A      3.081029  
    1893A      3.085825  1894A      3.088551  1895A      3.091471  
    1896A      3.092354  1897A      3.095621  1898A      3.096701  
    1899A      3.103900  1900A      3.108635  1901A      3.110524  
    1902A      3.114355  1903A      3.128910  1904A      3.131378  
    1905A      3.144752  1906A      3.156221  1907A      3.163080  
    1908A      3.169150  1909A      3.188905  1910A      3.190386  
    1911A      3.195050  1912A      3.196921  1913A      3.198109  
    1914A      3.200213  1915A      3.204202  1916A      3.204764  
    1917A      3.208110  1918A      3.210878  1919A      3.212908  
    1920A      3.230236  1921A      3.234029  1922A      3.251594  
    1923A      3.265117  1924A      3.292890  1925A      3.293194  
    1926A      3.311445  1927A      3.349649  1928A      3.367689  
    1929A      3.385465  1930A      3.390513  1931A      3.392511  
    1932A      3.397258  1933A      3.402556  1934A      3.404696  
    1935A      3.411180  1936A      3.419983  1937A      3.435096  
    1938A      3.446305  1939A      3.447675  1940A      3.466095  
    1941A      3.473483  1942A      3.502754  1943A      3.519413  
    1944A      3.526677  1945A      3.535691  1946A      3.538493  
    1947A      3.600877  1948A      3.617905  1949A      3.629832  
    1950A      3.637427  1951A      3.643007  1952A      3.650279  
    1953A      3.678078  1954A      3.690294  1955A      3.705134  
    1956A      3.711403  1957A      3.723165  1958A      3.769631  
    1959A      3.772387  1960A      3.784936  1961A      3.798006  
    1962A      3.817812  1963A      3.833879  1964A      3.855967  
    1965A      3.865910  1966A      3.878808  1967A      3.879928  
    1968A      3.900960  1969A      3.930983  1970A      3.946041  
    1971A      3.951574  1972A      3.952365  1973A      4.000613  
    1974A      4.064542  1975A      4.099243  1976A      4.321554  
    1977A      4.388645  1978A      4.429807  

    Final Occupation by Irrep:
              A 
    DOCC [   326 ]
    NA   [   326 ]
    NB   [   326 ]

  @DF-RHF Final Energy: -3953.59699036800475

   => Energetics <=

    Nuclear Repulsion Energy =          18404.8191744795331033
    One-Electron Energy =              -42012.5455849182035308
    Two-Electron Energy =               19654.1294200706652191
    Total Energy =                      -3953.5969903680052084

Computation Completed


Properties will be evaluated at   0.000000,   0.000000,   0.000000 [a0]

Properties computed using the SCF density matrix


 Multipole Moments:

 ------------------------------------------------------------------------------------
     Multipole            Electronic (a.u.)      Nuclear  (a.u.)        Total (a.u.)
 ------------------------------------------------------------------------------------

 L = 1.  Multiply by 2.5417464519 to convert [e a0] to [Debye]
 Dipole X            :         -0.0126503            0.0004804           -0.0121699
 Dipole Y            :         -7.4910242            8.7122315            1.2212073
 Dipole Z            :         16.3709723          -19.9773579           -3.6063856
 Magnitude           :                                                    3.8075599

 ------------------------------------------------------------------------------------

*** tstop() called on n2cn1050 at Sat Feb  3 18:23:09 2024
Module time:
	user time   =   29085.37 seconds =     484.76 minutes
	system time =    2139.22 seconds =      35.65 minutes
	total time  =       3429 seconds =      57.15 minutes
Total time:
	user time   =   29085.37 seconds =     484.76 minutes
	system time =    2139.22 seconds =      35.65 minutes
	total time  =       3429 seconds =      57.15 minutes

  //>>>>>>>>>>>>>>>>>>>>>>>>>>>>>>>>>>>//
  //            Monomer A HF           //
  //<<<<<<<<<<<<<<<<<<<<<<<<<<<<<<<<<<<//

   => Libint2 <=

    Primary   basis highest AM E, G, H:  5, 4, 3
    Auxiliary basis highest AM E, G, H:  6, 5, 4
    Onebody   basis highest AM E, G, H:  6, 5, 4
    Solid Harmonics ordering:            gaussian

*** tstart() called on n2cn1050
*** at Sat Feb  3 18:23:09 2024

   => Loading Basis Set <=

    Name: JUN-CC-PVDZ
    Role: ORBITAL
    Keyword: BASIS
    atoms 1-2, 4-5, 10, 17-34, 41-53, 56-70, 73-89, 92-104, 109-119, 122-130 entry C          line   164 file /opt/software/pc2/EB-SW/software/PSI4/1.9-foss-2022a/share/psi4/basis/jun-cc-pvdz.gbs 
    atoms 3, 6                                                               entry N          line   198 file /opt/software/pc2/EB-SW/software/PSI4/1.9-foss-2022a/share/psi4/basis/jun-cc-pvdz.gbs 
    atoms 7-9, 11-16, 35-40, 54-55, 71-72, 90-91, 105-108, 120-121, 131-136  entry H          line    36 file /opt/software/pc2/EB-SW/software/PSI4/1.9-foss-2022a/share/psi4/basis/jun-cc-pvdz.gbs 


         ---------------------------------------------------------
                                   SCF
               by Justin Turney, Rob Parrish, Andy Simmonett
                          and Daniel G. A. Smith
                              RHF Reference
                       16 Threads,  76293 MiB Core
         ---------------------------------------------------------

  ==> Geometry <==

    Molecular point group: c1
    Full point group: C1

    Geometry (in Angstrom), charge = 1, multiplicity = 1:

       Center              X                  Y                   Z               Mass       
    ------------   -----------------  -----------------  -----------------  -----------------
         C            0.680062820275     1.308604348936    -4.541462585681    12.000000000000
         C           -0.680508179725     1.310632348936    -4.541078585681    12.000000000000
         N           -1.085639179725     1.311630348936    -3.222754585681    14.003074004430
[...]
    1600A      2.232702  1601A      2.233742  1602A      2.235134  
    1603A      2.235417  1604A      2.238401  1605A      2.241007  
    1606A      2.243432  1607A      2.245456  1608A      2.247183  
    1609A      2.250599  1610A      2.256976  1611A      2.260378  
    1612A      2.261384  1613A      2.262287  1614A      2.265218  
    1615A      2.269823  1616A      2.271175  1617A      2.273576  
    1618A      2.276646  1619A      2.280850  1620A      2.281638  
    1621A      2.282995  1622A      2.288582  1623A      2.292276  
    1624A      2.292877  1625A      2.295806  1626A      2.297003  
    1627A      2.301289  1628A      2.304983  1629A      2.308091  
    1630A      2.310963  1631A      2.315703  1632A      2.318777  
    1633A      2.319898  1634A      2.323818  1635A      2.325898  
    1636A      2.326703  1637A      2.328563  1638A      2.329086  
    1639A      2.330835  1640A      2.331835  1641A      2.334213  
    1642A      2.336475  1643A      2.339180  1644A      2.339678  
    1645A      2.340670  1646A      2.340953  1647A      2.342578  
    1648A      2.344069  1649A      2.345738  1650A      2.346815  
    1651A      2.348300  1652A      2.351934  1653A      2.358280  
    1654A      2.362453  1655A      2.372021  1656A      2.374315  
    1657A      2.376314  1658A      2.380366  1659A      2.384688  
    1660A      2.391163  1661A      2.392967  1662A      2.399335  
    1663A      2.402520  1664A      2.406932  1665A      2.411633  
    1666A      2.414891  1667A      2.417973  1668A      2.422808  
    1669A      2.426589  1670A      2.428483  1671A      2.429076  
    1672A      2.439834  1673A      2.442602  1674A      2.443232  
    1675A      2.452147  1676A      2.457657  1677A      2.458769  
    1678A      2.464981  1679A      2.467359  1680A      2.468406  
    1681A      2.470894  1682A      2.472072  1683A      2.473043  
    1684A      2.473889  1685A      2.486288  1686A      2.492531  
    1687A      2.496358  1688A      2.498270  1689A      2.501636  
    1690A      2.503380  1691A      2.507961  1692A      2.512878  
    1693A      2.515468  1694A      2.517983  1695A      2.518576  
    1696A      2.526604  1697A      2.531462  1698A      2.538099  
    1699A      2.539961  1700A      2.542822  1701A      2.544150  
    1702A      2.545222  1703A      2.546833  1704A      2.549190  
    1705A      2.550300  1706A      2.553202  1707A      2.556362  
    1708A      2.558647  1709A      2.560053  1710A      2.562097  
    1711A      2.565318  1712A      2.567452  1713A      2.572623  
    1714A      2.572822  1715A      2.579685  1716A      2.581491  
    1717A      2.585664  1718A      2.586367  1719A      2.587266  
    1720A      2.588597  1721A      2.589215  1722A      2.593371  
    1723A      2.594898  1724A      2.595973  1725A      2.603266  
    1726A      2.603966  1727A      2.611308  1728A      2.615374  
    1729A      2.616234  1730A      2.617024  1731A      2.618115  
    1732A      2.618713  1733A      2.624266  1734A      2.629752  
    1735A      2.638640  1736A      2.643975  1737A      2.646618  
    1738A      2.647239  1739A      2.647998  1740A      2.650876  
    1741A      2.655487  1742A      2.656658  1743A      2.659215  
    1744A      2.660455  1745A      2.662189  1746A      2.665499  
    1747A      2.666391  1748A      2.669947  1749A      2.672054  
    1750A      2.673244  1751A      2.674771  1752A      2.678768  
    1753A      2.680448  1754A      2.683318  1755A      2.686642  
    1756A      2.691153  1757A      2.692252  1758A      2.692857  
    1759A      2.693597  1760A      2.695932  1761A      2.696382  
    1762A      2.698030  1763A      2.705688  1764A      2.712810  
    1765A      2.719245  1766A      2.720028  1767A      2.724107  
    1768A      2.730952  1769A      2.732137  1770A      2.733492  
    1771A      2.734992  1772A      2.746009  1773A      2.752056  
    1774A      2.758246  1775A      2.762379  1776A      2.769934  
    1777A      2.772566  1778A      2.778132  1779A      2.784150  
    1780A      2.787444  1781A      2.791618  1782A      2.794249  
    1783A      2.798595  1784A      2.800774  1785A      2.801852  
    1786A      2.803343  1787A      2.805413  1788A      2.810349  
    1789A      2.813917  1790A      2.816750  1791A      2.820007  
    1792A      2.822644  1793A      2.825581  1794A      2.826901  
    1795A      2.834804  1796A      2.836546  1797A      2.840378  
    1798A      2.842484  1799A      2.845680  1800A      2.847828  
    1801A      2.853778  1802A      2.860241  1803A      2.864470  
    1804A      2.868104  1805A      2.871520  1806A      2.874364  
    1807A      2.877975  1808A      2.883136  1809A      2.890789  
    1810A      2.896255  1811A      2.899155  1812A      2.907888  
    1813A      2.916146  1814A      2.920401  1815A      2.927301  
    1816A      2.929358  1817A      2.930352  1818A      2.936866  
    1819A      2.941743  1820A      2.947413  1821A      2.954482  
    1822A      2.960001  1823A      2.970887  1824A      2.974806  
    1825A      2.976895  1826A      2.987730  1827A      3.003266  
    1828A      3.005589  1829A      3.008127  1830A      3.028258  
    1831A      3.033017  1832A      3.034507  1833A      3.045293  
    1834A      3.048947  1835A      3.050200  1836A      3.052320  
    1837A      3.057141  1838A      3.058479  1839A      3.062170  
    1840A      3.066653  1841A      3.071426  1842A      3.075668  
    1843A      3.090277  1844A      3.095244  1845A      3.111109  
    1846A      3.114371  1847A      3.118790  1848A      3.124949  
    1849A      3.125505  1850A      3.129438  1851A      3.134929  
    1852A      3.136719  1853A      3.144273  1854A      3.145913  
    1855A      3.147916  1856A      3.153474  1857A      3.154526  
    1858A      3.161997  1859A      3.164314  1860A      3.167760  
    1861A      3.167772  1862A      3.174644  1863A      3.176115  
    1864A      3.177553  1865A      3.188193  1866A      3.191504  
    1867A      3.199440  1868A      3.205890  1869A      3.207243  
    1870A      3.220959  1871A      3.224871  1872A      3.245330  
    1873A      3.259236  1874A      3.261313  1875A      3.264376  
    1876A      3.265059  1877A      3.266944  1878A      3.269707  
    1879A      3.273045  1880A      3.275495  1881A      3.279155  
    1882A      3.279798  1883A      3.288640  1884A      3.301906  
    1885A      3.302978  1886A      3.321941  1887A      3.328572  
    1888A      3.364760  1889A      3.367002  1890A      3.376654  
    1891A      3.388850  1892A      3.400748  1893A      3.428421  
    1894A      3.441439  1895A      3.451343  1896A      3.461323  
    1897A      3.469288  1898A      3.471201  1899A      3.471487  
    1900A      3.482617  1901A      3.487604  1902A      3.488923  
    1903A      3.497922  1904A      3.515694  1905A      3.521371  
    1906A      3.527183  1907A      3.537970  1908A      3.554236  
    1909A      3.560740  1910A      3.583273  1911A      3.590518  
    1912A      3.603137  1913A      3.610754  1914A      3.615837  
    1915A      3.618871  1916A      3.678308  1917A      3.692730  
    1918A      3.696550  1919A      3.704249  1920A      3.715060  
    1921A      3.724215  1922A      3.759713  1923A      3.761482  
    1924A      3.770942  1925A      3.779666  1926A      3.780043  
    1927A      3.809511  1928A      3.842731  1929A      3.851362  
    1930A      3.856581  1931A      3.863055  1932A      3.875363  
    1933A      3.894119  1934A      3.898208  1935A      3.923982  
    1936A      3.926498  1937A      3.935736  1938A      3.949258  
    1939A      3.950533  1940A      3.975752  1941A      4.001373  
    1942A      4.025277  1943A      4.028120  1944A      4.035283  
    1945A      4.074512  1946A      4.091739  1947A      4.162587  
    1948A      4.203313  1949A      4.268744  1950A      4.353581  
    1951A      4.397975  1952A      4.470768  1953A      4.481988  
    1954A      4.496095  1955A      4.510968  1956A      4.611096  
    1957A      4.870557  1958A      4.878864  1959A      4.985559  
    1960A      4.999069  1961A      5.031725  1962A      5.097718  
    1963A      5.112951  1964A      5.163280  1965A      5.212232  
    1966A      5.296227  1967A      5.453790  1968A      5.481238  
    1969A      5.802167  1970A      5.834963  1971A      6.092662  
    1972A     18.211213  1973A     18.508937  1974A     18.545806  
    1975A     18.631798  1976A     18.875881  1977A     25.366115  
    1978A     25.402809  

    Final Occupation by Irrep:
              A 
    DOCC [   300 ]
    NA   [   300 ]
    NB   [   300 ]

  @DF-RHF Final Energy: -3650.34257151554129

   => Energetics <=

    Nuclear Repulsion Energy =          15611.4211649754306563
    One-Electron Energy =              -36072.2162451050680829
    Two-Electron Energy =               16810.4525086140965868
    Total Energy =                      -3650.3425715155426587

Computation Completed


Properties will be evaluated at   0.000000,   0.000000,   0.000000 [a0]

Properties computed using the SCF density matrix


 Multipole Moments:

 ------------------------------------------------------------------------------------
     Multipole            Electronic (a.u.)      Nuclear  (a.u.)        Total (a.u.)
 ------------------------------------------------------------------------------------

 L = 1.  Multiply by 2.5417464519 to convert [e a0] to [Debye]
 Dipole X            :          0.0002333            0.0002112            0.0004445
 Dipole Y            :        123.2193022         -123.2131634            0.0061388
 Dipole Z            :       -311.2016025          311.2032041            0.0016017
 Magnitude           :                                                    0.0063599

 ------------------------------------------------------------------------------------

*** tstop() called on n2cn1050 at Sat Feb  3 19:16:07 2024
Module time:
	user time   =   19025.85 seconds =     317.10 minutes
	system time =    1450.35 seconds =      24.17 minutes
	total time  =       2286 seconds =      38.10 minutes
Total time:
	user time   =   54286.32 seconds =     904.77 minutes
	system time =    3987.24 seconds =      66.45 minutes
	total time  =       6607 seconds =     110.12 minutes
  Constructing Basis Sets for SAPT...

   => Loading Basis Set <=

    Name: (JUN-CC-PVDZ AUX)
    Role: RIFIT
    Keyword: DF_BASIS_SAPT
    atoms 1-2, 4-5, 10, 17-34, 41-53, 56-70, 73-89, 92-104, 109-119, 122-130 entry C          line   100 file /opt/software/pc2/EB-SW/software/PSI4/1.9-foss-2022a/share/psi4/basis/jun-cc-pvdz-ri.gbs 
    atoms 3, 6                                                               entry N          line   144 file /opt/software/pc2/EB-SW/software/PSI4/1.9-foss-2022a/share/psi4/basis/jun-cc-pvdz-ri.gbs 
    atoms 7-9, 11-16, 35-40, 54-55, 71-72, 90-91, 105-108, 120-121, 131-136  entry H          line    30 file /opt/software/pc2/EB-SW/software/PSI4/1.9-foss-2022a/share/psi4/basis/jun-cc-pvdz-ri.gbs 

   => Loading Basis Set <=

    Name: (JUN-CC-PVDZ AUX)
    Role: JKFIT
    Keyword: DF_BASIS_ELST
    atoms 1-2, 4-5, 10, 17-34, 41-53, 56-70, 73-89, 92-104, 109-119, 122-130 entry C          line   146 file /opt/software/pc2/EB-SW/software/PSI4/1.9-foss-2022a/share/psi4/basis/jun-cc-pvdz-jkfit.gbs 
    atoms 3, 6                                                               entry N          line   202 file /opt/software/pc2/EB-SW/software/PSI4/1.9-foss-2022a/share/psi4/basis/jun-cc-pvdz-jkfit.gbs 
    atoms 7-9, 11-16, 35-40, 54-55, 71-72, 90-91, 105-108, 120-121, 131-136  entry H          line    70 file /opt/software/pc2/EB-SW/software/PSI4/1.9-foss-2022a/share/psi4/basis/jun-cc-pvdz-jkfit.gbs 


  //>>>>>>>>>>>>>>>>>>>>>>>>>>>>>>>>>>>//
  //               SSAPT0              //
  //<<<<<<<<<<<<<<<<<<<<<<<<<<<<<<<<<<<//


*** tstart() called on n2cn1050
*** at Sat Feb  3 19:16:08 2024

        SAPT0  
    Ed Hohenstein
     6 June 2009

      Orbital Information
  --------------------------
    NSO        =      2019
    NMO        =      1978
    NRI        =      7157
    NRI (Elst) =      8896
    NOCC A     =        26
    NOCC B     =       300
    FOCC A     =         7
    FOCC B     =        96
    NVIR A     =      1952
    NVIR B     =      1678

    Elst10,r            =    -0.050584435634 [Eh]
    Exch10              =     0.147423640728 [Eh]
    Exch10 (S^2)        =     0.142103978518 [Eh]

    Iter     Energy [mEh]          dE [mEh]         Residual      Time [s]
       1     -18.63948889      18.639488887      23.520325814           110
       2     -23.26560702       4.626118137       6.889818979           197
       3     -23.68584539       0.420238369       1.426795823           278
       4     -23.65440661      -0.031438778       0.496822886           357
       5     -23.63434908      -0.020057532       0.123125091           444
       6     -23.63914412       0.004795039       0.060873381           537
       7     -23.63912115      -0.000022973       0.026339215           618
       8     -23.63857322      -0.000547927       0.006679713           710
       9     -23.63852464      -0.000048585       0.001932794           788
      10     -23.63854720       0.000022559       0.000517304           867
      11     -23.63855131       0.000004114       0.000129608           957
      12     -23.63855008      -0.000001233       0.000045347          1038
      13     -23.63854959      -0.000000490       0.000012169          1118
      14     -23.63854977       0.000000178       0.000003270          1203
      15     -23.63854976      -0.000000006       0.000001091          1288
      16     -23.63854975      -0.000000013       0.000000370          1370

    CHF Iterations converged


    Iter     Energy [mEh]          dE [mEh]         Residual      Time [s]
       1     -63.47746644      63.477466439     111.989165580           143
       2     -51.48379825     -11.993668192      21.773547858           276
       3     -54.86919598       3.385397736      11.230048148           408
       4     -56.91449284       2.045296860       3.377141364           543
       5     -56.92375073       0.009257883       2.588044289           677
       6     -56.66629605      -0.257454680       1.459086771           815
       7     -56.68298416       0.016688112       1.034536174           945
       8     -56.77007506       0.087090903       0.570574833          1087
       9     -56.77301438       0.002939321       0.380031199          1241
      10     -56.75094046      -0.022073923       0.159820872          1385
      11     -56.75056482      -0.000375638       0.080136626          1536
      12     -56.75373864       0.003173821       0.041541784          1680
      13     -56.75465633       0.000917685       0.020934280          1820
      14     -56.75397229      -0.000684035       0.010881582          1947
      15     -56.75373393      -0.000238359       0.005548163          2071
      16     -56.75380303       0.000069097       0.002819090          2197
      17     -56.75389464       0.000091611       0.001403713          2323
      18     -56.75388163      -0.000013008       0.000753519          2454
      19     -56.75385954      -0.000022097       0.000339078          2580
      20     -56.75385704      -0.000002500       0.000167725          2708
      21     -56.75386134       0.000004308       0.000084718          2836
      22     -56.75386257       0.000001229       0.000042673          2957
      23     -56.75386155      -0.000001018       0.000026857          3075
      24     -56.75386110      -0.000000449       0.000015639          3202
      25     -56.75386134       0.000000231       0.000008398          3326
      26     -56.75386151       0.000000177       0.000003467          3443
      27     -56.75386149      -0.000000024       0.000001465          3558
      28     -56.75386146      -0.000000031       0.000000622          3671

    CHF Iterations converged

    Ind20,r (A<-B)      =    -0.023638549746 [Eh]
    Ind20,r (B<-A)      =    -0.056753861458 [Eh]
    Ind20,r             =    -0.080392411204 [Eh]
    Exch-Ind20,r (A<-B) =     0.020889337058 [Eh]
    Exch-Ind20,r (B<-A) =     0.025243256502 [Eh]
    Exch-Ind20,r        =     0.046132593561 [Eh]
    Disp20              =    -0.066497391612 [Eh]
    Disp20 (SS)         =    -0.033248695806 [Eh]
    Disp20 (OS)         =    -0.033248695806 [Eh]
    Exch-Disp20         =     0.007988220453 [Eh]
    Exch-Disp20 (SS)    =     0.004973990685 [Eh]
    Exch-Disp20 (OS)    =     0.003014229768 [Eh]

    SAPT Results 
  --------------------------------------------------------------------------------------------------------
    Electrostatics                -50.58443563 [mEh]     -31.74221259 [kcal/mol]    -132.80941746 [kJ/mol]
      Elst10,r                    -50.58443563 [mEh]     -31.74221259 [kcal/mol]    -132.80941746 [kJ/mol]

    Exchange                      147.42364073 [mEh]      92.50973122 [kcal/mol]     387.06071541 [kJ/mol]
      Exch10                      147.42364073 [mEh]      92.50973122 [kcal/mol]     387.06071541 [kJ/mol]
      Exch10(S^2)                 142.10397852 [mEh]      89.17159278 [kcal/mol]     373.09394420 [kJ/mol]

    Induction                     -52.13385517 [mEh]     -32.71448802 [kcal/mol]    -136.87741790 [kJ/mol]
      Ind20,r                     -80.39241120 [mEh]     -50.44699965 [kcal/mol]    -211.07024654 [kJ/mol]
      Exch-Ind20,r                 46.13259356 [mEh]      28.94863951 [kcal/mol]     121.12110771 [kJ/mol]
      delta HF,r (2)              -17.87403753 [mEh]     -11.21612788 [kcal/mol]     -46.92827907 [kJ/mol]

    Dispersion                    -58.50917116 [mEh]     -36.71505920 [kcal/mol]    -153.61580771 [kJ/mol]
      Disp20                      -66.49739161 [mEh]     -41.72774322 [kcal/mol]    -174.58887762 [kJ/mol]
      Exch-Disp20                   7.98822045 [mEh]       5.01268401 [kcal/mol]      20.97306991 [kJ/mol]
      Disp20 (SS)                 -33.24869581 [mEh]     -20.86387161 [kcal/mol]     -87.29443881 [kJ/mol]
      Disp20 (OS)                 -33.24869581 [mEh]     -20.86387161 [kcal/mol]     -87.29443881 [kJ/mol]
      Exch-Disp20 (SS)              4.97399069 [mEh]       3.12122628 [kcal/mol]      13.05921075 [kJ/mol]
      Exch-Disp20 (OS)              3.01422977 [mEh]       1.89145774 [kcal/mol]       7.91385916 [kJ/mol]

  Total HF                         44.70534992 [mEh]      28.05303060 [kcal/mol]     117.37388005 [kJ/mol]
  Total SAPT0                     -13.80382124 [mEh]      -8.66202860 [kcal/mol]     -36.24192766 [kJ/mol]

  Special recipe for scaled SAPT0 (see Manual):
    Electrostatics sSAPT0         -50.58443563 [mEh]     -31.74221259 [kcal/mol]    -132.80941746 [kJ/mol]
    Exchange sSAPT0               147.42364073 [mEh]      92.50973122 [kcal/mol]     387.06071541 [kJ/mol]
    Induction sSAPT0              -46.75656657 [mEh]     -29.34018848 [kcal/mol]    -122.75934862 [kJ/mol]
    Dispersion sSAPT0             -57.57805146 [mEh]     -36.13077277 [kcal/mol]    -151.17115327 [kJ/mol]
  Total sSAPT0                     -7.49541293 [mEh]      -4.70344262 [kcal/mol]     -19.67920394 [kJ/mol]
  --------------------------------------------------------------------------------------------------------

*** tstop() called on n2cn1050 at Sat Feb  3 22:56:48 2024
Module time:
	user time   =   81838.03 seconds =    1363.97 minutes
	system time =    3785.37 seconds =      63.09 minutes
	total time  =      13240 seconds =     220.67 minutes
Total time:
	user time   =  136125.78 seconds =    2268.76 minutes
	system time =    7772.61 seconds =     129.54 minutes
	total time  =      19848 seconds =     330.80 minutes

    Psi4 stopped on: Saturday, 03 February 2024 10:56PM
    Psi4 wall time for execution: 5:30:50.41

*** Psi4 exiting successfully. Buy a developer a beer!
