
    -----------------------------------------------------------------------
          Psi4: An Open-Source Ab Initio Electronic Structure Package
                               Psi4 1.9 release

                         Git: Rev {} zzzzzzz 


    D. G. A. Smith, L. A. Burns, A. C. Simmonett, R. M. Parrish,
    M. C. Schieber, R. Galvelis, P. Kraus, H. Kruse, R. Di Remigio,
    A. Alenaizan, A. M. James, S. Lehtola, J. P. Misiewicz, M. Scheurer,
    R. A. Shaw, J. B. Schriber, Y. Xie, Z. L. Glick, D. A. Sirianni,
    J. S. O'Brien, J. M. Waldrop, A. Kumar, E. G. Hohenstein,
    B. P. Pritchard, B. R. Brooks, H. F. Schaefer III, A. Yu. Sokolov,
    K. Patkowski, A. E. DePrince III, U. Bozkaya, R. A. King,
    F. A. Evangelista, J. M. Turney, T. D. Crawford, C. D. Sherrill,
    J. Chem. Phys. 152(18) 184108 (2020). https://doi.org/10.1063/5.0006002

                            Additional Code Authors
    E. T. Seidl, C. L. Janssen, E. F. Valeev, M. L. Leininger,
    J. F. Gonthier, R. M. Richard, H. R. McAlexander, M. Saitow, X. Wang,
    P. Verma, M. H. Lechner, A. Jiang, S. Behnle, A. G. Heide,
    M. F. Herbst, and D. L. Poole

             Previous Authors, Complete List of Code Contributors,
                       and Citations for Specific Modules
    https://github.com/psi4/psi4/blob/master/codemeta.json
    https://github.com/psi4/psi4/graphs/contributors
    http://psicode.org/psi4manual/master/introduction.html#citing-psifour

    -----------------------------------------------------------------------


    Psi4 started on: Monday, 22 January 2024 10:30PM

    Process ID: 1111715
    Host:       d-3-8-3
    PSIDATADIR: /home/gridsan/tfroembgen/.conda/envs/psi4test/share/psi4
    Memory:     500.0 MiB
    Threads:    12
    
  ==> Input File <==

--------------------------------------------------------------------------
memory 32 GB # how much memory is available ! Depends on the nodes/cores !

molecule dimer {
# monomer A
+1 1    # Charge and multiplicity
C  0.680067 1.417258 -10.215929
C -0.680504 1.419286 -10.215545
N -1.085635 1.420284  -8.897221
C  0.000108 1.423560  -8.115820
C -2.477365 1.469690  -8.429242
N  1.085222 1.420284  -8.897221
H  1.385146 1.409430 -11.033368
H -1.385302 1.419096 -11.033214
H -0.000009 1.425307  -7.034731
C  2.478117 1.403392  -8.432123
H  2.490592 1.430737  -7.341870
H  2.967028 0.489946  -8.779299
H  3.001428 2.278875  -8.823595
H -2.857359 2.491761  -8.509201
H -3.082679 0.799606  -9.042306
H -2.518128 1.142706  -7.389294
--
# monomer B
0 1     # Charge and multiplicity
C   1.22531237526482      0.70753866091955      0.00613762728373
C   1.22532433589282     -0.70753852257020     -0.00619318228664
C   -0.00000567409046      1.41496628609039     -0.00672680580738
C   2.45644923379077      1.41832825917820      0.00902448468363
C   0.00001130712078     -1.41497612663474      0.00347275151708
C   -1.22530046906674      0.70754574598412      0.00838914760619
C   2.45643823516184     -1.41832293188077     -0.00843833914343
C   -0.00000085313587      2.83680140328112     -0.00913035594137
C   3.68182717731192      0.70931832800114     -0.00808954934571
C   2.45512052870677      2.83422403348893     -0.00819210630633
C   3.68182158506039     -0.70933346742900      0.00798293467272
C   -1.22531311884624     -0.70752714354401     -0.00512042085974
C   1.22670006104402      3.54346985599427      0.00816696660346
C   0.00000526469929     -2.83678176723568      0.00832091913869
C   -2.45643555300670      1.41831729028492      0.00842454345199
C   2.45512389762097     -2.83422965658853      0.00783102630520
C   -1.22671388474763      3.54346943575023      0.00827029982280
C   4.91451777504333      1.42717324448953     -0.00160886631602
C   3.69315067131765      3.54279566454522     -0.00155906667985
C   -2.45643712022637     -1.41831290883911     -0.00846337726810
C   1.22670532178455     -3.54347386990643     -0.00780316414624
C   -2.45512491866593      2.83421703463423     -0.00818572995999
C   4.91452486062398     -1.42718653794377      0.00136387641845
C   1.22142509354026      4.97013443726031      0.00150231067809
C   4.89300870916237      2.82518837202648     -0.00039219795739
C   -1.22669652864725     -3.54347062507680     -0.00753595973677
C   -3.68181849668397      0.70932533873199     -0.00807686886569
C   3.69314758099218     -3.54280096939050      0.00148176697923
C   -1.22143177215231      4.97012866986289      0.00168580605083
C   6.13477145276790      0.68054831910577     -0.00083909176631
C   3.65678936045204      4.97295361556775     -0.00065042889723
C   -2.45512642789169     -2.83421472106065      0.00758666850712
C   -3.68181869921921     -0.70932533146830      0.00810055625144
C   4.89301309775526     -2.82519973363176      0.00021895393805
C   -0.00000059327114      5.65044773803267      0.00045449734393
C   6.13477559217374     -0.68055448207492      0.00042622874941
C   2.47813196269732      5.65357712333155      0.00063835075260
C   1.22142288457925     -4.97012668293268     -0.00129718634452
C   -3.69316190412301      3.54279732619245     -0.00139355922051
C   -1.22142804110313     -4.97011793159564     -0.00140994817719
C   -4.91452132810043      1.42717581899491     -0.00153192130862
C   3.65678749952045     -4.97295485423912      0.00080007163680
C   -2.47813805026426      5.65357479452875      0.00092287576113
C   -3.69314125872231     -3.54278984697859      0.00136564082345
C   -4.91451200321153     -1.42718062802730      0.00139857359209
C   -0.00000552908399     -5.65043791501335      0.00005899322272
C   -4.89302000425900      2.82518897091939     -0.00040227981744
C   2.47812647313991     -5.65357317188818     -0.00029052915548
C   -3.65679823041642      4.97295655404175     -0.00047374852278
C   -4.89299899901461     -2.82519139505969      0.00006491824035
C   -2.47812801824129     -5.65356579800621     -0.00056571680280
C   -6.13477002348955      0.68054913825639     -0.00086464346868
C   -3.65678835334731     -4.97294365097028      0.00058578382008
C   -6.13476456307132     -0.68055354348201      0.00040575295444
H   5.83528897565761      3.36927626695423      0.00396712770529
H   7.07385965258860      1.22821762089947     -0.00037744837300
H   4.60066374401555      5.51238117445323     -0.00014522814529
H   5.83528386714679     -3.36930568472863     -0.00423551337640
H   -0.00001167146422      6.73853104613662     -0.00389474766392
H   7.07386165167227     -1.22822657074368     -0.00008250934481
H   2.47331421164041      6.74068466339473      0.00017162982210
H   4.60066897122302     -5.51237575717576      0.00039007446835
H   -2.47331820069565      6.74068209160650      0.00047297644710
H   -0.00000978838621     -6.73852780445195      0.00458867820736
H   -5.83530143450167      3.36927132229595      0.00410314985360
H   2.47330840367253     -6.74068500242887      0.00027980126949
H   -4.60067436136587      5.51237839860371      0.00002010017831
H   -5.83527902699321     -3.36928859177951     -0.00451481925734
H   -2.47329986759855     -6.74067870613986     -0.00016951527498
H   -7.07385728692578      1.22822084484047     -0.00046143985387
H   -4.60067330624313     -5.51236229778631      0.00021776644566
H   -7.07385645456741     -1.22822025997701     -0.00017736581114

    units angstrom      # Angstroms are the default
    no_reorient         # Geometry fixed, default
    symmetry c1         # C1 symmetry, default
}

set {
    scf_type DF         # Density fitting, faster than exact integrals
    freeze_core True    # Freeze core electrons
    basis jun-cc-pVDZ   # Jun-cc-pVDZ basis set, recommended for sSAPT0 in https://doi.org/10.1063/1.4867135
}

energy('ssapt0')        # Compute sSAPT0 energy, includes also SAPT0
--------------------------------------------------------------------------

  Memory set to  29.802 GiB by Python driver.

Scratch directory: /state/partition1/slurm_tmp/24798318.4294967291.0/
   => Loading Basis Set <=

    Name: JUN-CC-PVDZ
    Role: ORBITAL
    Keyword: BASIS
    atoms 1-2, 4-5, 10, 17-70 entry C          line   164 file /home/gridsan/tfroembgen/.conda/envs/psi4test/share/psi4/basis/jun-cc-pvdz.gbs 
    atoms 3, 6                entry N          line   198 file /home/gridsan/tfroembgen/.conda/envs/psi4test/share/psi4/basis/jun-cc-pvdz.gbs 
    atoms 7-9, 11-16, 71-88   entry H          line    36 file /home/gridsan/tfroembgen/.conda/envs/psi4test/share/psi4/basis/jun-cc-pvdz.gbs 

   => Loading Basis Set <=

    Name: JUN-CC-PVDZ
    Role: ORBITAL
    Keyword: BASIS
    atoms 1-2, 4-5, 10, 17-70 entry C          line   164 file /home/gridsan/tfroembgen/.conda/envs/psi4test/share/psi4/basis/jun-cc-pvdz.gbs 
    atoms 3, 6                entry N          line   198 file /home/gridsan/tfroembgen/.conda/envs/psi4test/share/psi4/basis/jun-cc-pvdz.gbs 
    atoms 7-9, 11-16, 71-88   entry H          line    36 file /home/gridsan/tfroembgen/.conda/envs/psi4test/share/psi4/basis/jun-cc-pvdz.gbs 


  //>>>>>>>>>>>>>>>>>>>>>>>>>>>>>>>>>>>//
  //              Dimer HF             //
  //<<<<<<<<<<<<<<<<<<<<<<<<<<<<<<<<<<<//

   => Libint2 <=

    Primary   basis highest AM E, G, H:  7, 7, 4
    Auxiliary basis highest AM E, G, H:  7, 7, 5
    Onebody   basis highest AM E, G, H:  7, 7, 5
    Solid Harmonics ordering:            gaussian

*** tstart() called on d-3-8-3
*** at Mon Jan 22 22:30:40 2024

   => Loading Basis Set <=

    Name: JUN-CC-PVDZ
    Role: ORBITAL
    Keyword: BASIS
    atoms 1-2, 4-5, 10, 17-70 entry C          line   164 file /home/gridsan/tfroembgen/.conda/envs/psi4test/share/psi4/basis/jun-cc-pvdz.gbs 
    atoms 3, 6                entry N          line   198 file /home/gridsan/tfroembgen/.conda/envs/psi4test/share/psi4/basis/jun-cc-pvdz.gbs 
    atoms 7-9, 11-16, 71-88   entry H          line    36 file /home/gridsan/tfroembgen/.conda/envs/psi4test/share/psi4/basis/jun-cc-pvdz.gbs 


         ---------------------------------------------------------
                                   SCF
               by Justin Turney, Rob Parrish, Andy Simmonett
                          and Daniel G. A. Smith
                              RHF Reference
                       12 Threads,  30517 MiB Core
         ---------------------------------------------------------

  ==> Geometry <==

    Molecular point group: c1
    Full point group: C1

    Geometry (in Angstrom), charge = 1, multiplicity = 1:

       Center              X                  Y                   Z               Mass       
    ------------   -----------------  -----------------  -----------------  -----------------
         C            0.680066520158     1.235968212970    -9.071186492270    12.000000000000
         C           -0.680504479842     1.237996212970    -9.070802492270    12.000000000000
         N           -1.085635479842     1.238994212970    -7.752478492270    14.003074004430
         C            0.000107520158     1.242270212970    -6.971077492270    12.000000000000
         C           -2.477365479842     1.288400212970    -7.284499492270    12.000000000000
         N            1.085221520158     1.238994212970    -7.752478492270    14.003074004430
         H            1.385145520158     1.228140212970    -9.888625492270     1.007825032230
         H           -1.385302479842     1.237806212970    -9.888471492270     1.007825032230
         H           -0.000009479842     1.244017212970    -5.889988492270     1.007825032230
         C            2.478116520158     1.222102212970    -7.287380492270    12.000000000000
         H            2.490591520158     1.249447212970    -6.197127492270     1.007825032230
         H            2.967027520158     0.308656212970    -7.634556492270     1.007825032230
         H            3.001427520158     2.097585212970    -7.678852492270     1.007825032230
         H           -2.857359479842     2.310471212970    -7.364458492270     1.007825032230
         H           -3.082679479842     0.618316212970    -7.897563492270     1.007825032230
         H           -2.518128479842     0.961416212970    -6.244551492270     1.007825032230
         C            1.225311895423     0.526248873889     1.150880135014    12.000000000000
         C            1.225323856051    -0.888828309601     1.138549325444    12.000000000000
         C           -0.000006153932     1.233676499060     1.138015701923    12.000000000000
         C            2.456448753949     1.237038472148     1.153766992414    12.000000000000
         C            0.000010827279    -1.596265913665     1.148215259248    12.000000000000
         C           -1.225300948908     0.526255958954     1.153131655337    12.000000000000
         C            2.456437755320    -1.599612718911     1.136304168587    12.000000000000
         C           -0.000001332978     2.655511616251     1.135612151789    12.000000000000
         C            3.681826697470     0.528028540971     1.136652958385    12.000000000000
         C            2.455120048865     2.652934246459     1.136550401424    12.000000000000
         C            3.681821105219    -0.890623254459     1.152725442403    12.000000000000
         C           -1.225313598688    -0.888816930574     1.139622086871    12.000000000000
         C            1.226699581202     3.362180068964     1.152909474334    12.000000000000
         C            0.000004784858    -3.018071554266     1.153063426869    12.000000000000
         C           -2.456436032848     1.237027503255     1.153167051182    12.000000000000
         C            2.455123417779    -3.015519443619     1.152573534036    12.000000000000
         C           -1.226714364589     3.362179648720     1.153012807553    12.000000000000
         C            4.914517295202     1.245883457459     1.143133641414    12.000000000000
         C            3.693150191476     3.361505877515     1.143183441051    12.000000000000
         C           -2.456437600068    -1.599602695869     1.136279130462    12.000000000000
         C            1.226704841943    -3.724763656937     1.136939343584    12.000000000000
         C           -2.455125398508     2.652927247604     1.136556777770    12.000000000000
         C            4.914524380782    -1.608476324974     1.146106384149    12.000000000000
         C            1.221424613699     4.788844650230     1.146244818409    12.000000000000
         C            4.893008229321     2.643898584996     1.144350309773    12.000000000000
         C           -1.226697008489    -3.724760412107     1.137206547994    12.000000000000
         C           -3.681818976526     0.528035551702     1.136665638865    12.000000000000
         C            3.693147101150    -3.724090756421     1.146224274710    12.000000000000
         C           -1.221432251994     4.788838882833     1.146428313781    12.000000000000
         C            6.134770972926     0.499258532075     1.143903415964    12.000000000000
         C            3.656788880610     4.791663828537     1.144092078833    12.000000000000
         C           -2.455126907733    -3.015504508091     1.152329176238    12.000000000000
         C           -3.681819179061    -0.890615118499     1.152843063982    12.000000000000
         C            4.893012617914    -3.006489520662     1.144961461668    12.000000000000
         C           -0.000001073113     5.469157951002     1.145197005074    12.000000000000
         C            6.134775112332    -0.861844269105     1.145168736480    12.000000000000
         C            2.478131482856     5.472287336301     1.145380858483    12.000000000000
         C            1.221422404738    -5.151416469963     1.143445321386    12.000000000000
         C           -3.693162383965     3.361507539162     1.143348948510    12.000000000000
         C           -1.221428520945    -5.151407718626     1.143332559553    12.000000000000
         C           -4.914521807942     1.245886031965     1.143210586422    12.000000000000
         C            3.656787019679    -5.154244641269     1.145542579367    12.000000000000
         C           -2.478138530106     5.472285007498     1.145665383492    12.000000000000
         C           -3.693141738564    -3.724079634009     1.146108148554    12.000000000000
         C           -4.914512483053    -1.608470415058     1.146141081323    12.000000000000
         C           -0.000006008926    -5.831727702044     1.144801500953    12.000000000000
         C           -4.893020484101     2.643899183889     1.144340227913    12.000000000000
         C            2.478125993298    -5.834862958919     1.144451978575    12.000000000000
         C           -3.656798710258     4.791666767011     1.144268759208    12.000000000000
         C           -4.892999478856    -3.006481182090     1.144807425971    12.000000000000
         C           -2.478128498083    -5.834855585037     1.144176790928    12.000000000000
         C           -6.134770503331     0.499259351226     1.143877864262    12.000000000000
         C           -3.656788833189    -5.154233438001     1.145328291551    12.000000000000
         C           -6.134765042913    -0.861843330512     1.145148260685    12.000000000000
         H            5.835288495816     3.187986479924     1.148709635436     1.007825032230
         H            7.073859172747     1.046927833869     1.144365059357     1.007825032230
         H            4.600663264174     5.331091387423     1.144597279585     1.007825032230
         H            5.835283387305    -3.550595471759     1.140506994354     1.007825032230
         H           -0.000012151306     6.557241259106     1.140847760067     1.007825032230
         H            7.073861171831    -1.409516357774     1.144659998386     1.007825032230
         H            2.473313731799     6.559394876364     1.144914137553     1.007825032230
         H            4.600668491381    -5.693665544206     1.145132582199     1.007825032230
         H           -2.473318680537     6.559392304576     1.145215484178     1.007825032230
         H           -0.000010268228    -6.919817591482     1.149331185938     1.007825032230
         H           -5.835301914343     3.187981535266     1.148845657584     1.007825032230
         H            2.473307923831    -6.921974789459     1.145022309000     1.007825032230
         H           -4.600674841208     5.331088611573     1.144762607909     1.007825032230
         H           -5.835279506835    -3.550578378810     1.140227688473     1.007825032230
         H           -2.473300347440    -6.921968493170     1.144572992455     1.007825032230
         H           -7.073857766768     1.046931057810     1.144281067877     1.007825032230
         H           -4.600673786085    -5.693652084817     1.144960274176     1.007825032230
         H           -7.073856934409    -1.409510047007     1.144565141919     1.007825032230

  Running in c1 symmetry.

  Rotational constants: A =      0.00120  B =      0.00115  C =      0.00103 [cm^-1]
  Rotational constants: A =     36.00899  B =     34.35304  C =     30.88041 [MHz]
  Nuclear repulsion = 7693.756346494765239

  Charge       = 1
  Multiplicity = 1
  Electrons    = 394
  Nalpha       = 197
  Nbeta        = 197

  ==> Algorithm <==

  SCF Algorithm Type is DF.
  DIIS enabled.
  MOM disabled.
  Fractional occupation disabled.
  Guess Type is SAD.
  Energy threshold   = 1.00e-08
  Density threshold  = 1.00e-08
  Integral threshold = 1.00e-12

  ==> Primary Basis <==

  Basis Set: JUN-CC-PVDZ
    Blend: JUN-CC-PVDZ
    Number of shells: 569
    Number of basis functions: 1233
    Number of Cartesian functions: 1294
    Spherical Harmonics?: true
    Max angular momentum: 2

   => Loading Basis Set <=

    Name: (JUN-CC-PVDZ AUX)
    Role: JKFIT
    Keyword: DF_BASIS_SCF
    atoms 1-2, 4-5, 10, 17-70 entry C          line   146 file /home/gridsan/tfroembgen/.conda/envs/psi4test/share/psi4/basis/jun-cc-pvdz-jkfit.gbs 
    atoms 3, 6                entry N          line   202 file /home/gridsan/tfroembgen/.conda/envs/psi4test/share/psi4/basis/jun-cc-pvdz-jkfit.gbs 
    atoms 7-9, 11-16, 71-88   entry H          line    70 file /home/gridsan/tfroembgen/.conda/envs/psi4test/share/psi4/basis/jun-cc-pvdz-jkfit.gbs 

  ==> Integral Setup <==

  ==> DiskDFJK: Density-Fitted J/K Matrices <==

    J tasked:                  Yes
    K tasked:                  Yes
    wK tasked:                  No
    OpenMP threads:             12
    Integrals threads:          12
    Memory [MiB]:            22888
    Algorithm:                Core
    Integral Cache:           SAVE
    Schwarz Cutoff:          1E-12
    Fitting Condition:       1E-10

   => Auxiliary Basis Set <=

  Basis Set: (JUN-CC-PVDZ AUX)
    Blend: JUN-CC-PVDZ-JKFIT
    Number of shells: 1890
    Number of basis functions: 5440
    Number of Cartesian functions: 6226
    Spherical Harmonics?: true
    Max angular momentum: 3

  Minimum eigenvalue in the overlap matrix is 8.3998091299E-10.
  Reciprocal condition number of the overlap matrix is 3.7579026069E-11.
    Using canonical orthogonalization.
  Overall, 14 of 1233 possible MOs eliminated.


  ==> Pre-Iterations <==

  SCF Guess: Superposition of Atomic Densities via on-the-fly atomic UHF (no occupation information).

   -------------------------
    Irrep   Nso     Nmo    
   -------------------------
     A       1233    1219 
   -------------------------
    Total    1233    1219
   -------------------------

  ==> Iterations <==

                           Total Energy        Delta E     RMS |[F,P]|

   @DF-RHF iter SAD: -2365.39383236870344   -2.36539e+03   0.00000e+00 
   @DF-RHF iter   1: -2358.18393904053983    7.20989e+00   9.49210e-04 DIIS/ADIIS
   @DF-RHF iter   2: -2359.08600410055215   -9.02065e-01   3.25491e-04 DIIS/ADIIS
   @DF-RHF iter   3: -2359.17919353305751   -9.31894e-02   1.19902e-04 DIIS/ADIIS
   @DF-RHF iter   4: -2359.19265525081892   -1.34617e-02   4.58575e-05 DIIS
   @DF-RHF iter   5: -2359.19470337166968   -2.04812e-03   1.06475e-05 DIIS
   @DF-RHF iter   6: -2359.19488818351329   -1.84812e-04   5.28478e-06 DIIS
   @DF-RHF iter   7: -2359.19496056361004   -7.23801e-05   2.26797e-06 DIIS
   @DF-RHF iter   8: -2359.19498148918592   -2.09256e-05   1.12672e-06 DIIS
   @DF-RHF iter   9: -2359.19498667936432   -5.19018e-06   2.58810e-07 DIIS
   @DF-RHF iter  10: -2359.19498692148045   -2.42116e-07   8.56858e-08 DIIS
   @DF-RHF iter  11: -2359.19498693897367   -1.74932e-08   3.20704e-08 DIIS
   @DF-RHF iter  12: -2359.19498694258345   -3.60978e-09   1.26452e-08 DIIS
   @DF-RHF iter  13: -2359.19498694297226   -3.88809e-10   6.02960e-09 DIIS
  Energy and wave function converged.


  ==> Post-Iterations <==

    Orbital Energies [Eh]
    ---------------------

    Doubly Occupied:                                                      

       1A    -15.827674     2A    -15.827149     3A    -11.522423  
       4A    -11.453557     5A    -11.452003     6A    -11.442549  
       7A    -11.442449     8A    -11.312836     9A    -11.312279  
      10A    -11.312159    11A    -11.311605    12A    -11.311316  
      13A    -11.311149    14A    -11.310816    15A    -11.310734  
      16A    -11.310465    17A    -11.310197    18A    -11.310118  
      19A    -11.309826    20A    -11.309823    21A    -11.309781  
      22A    -11.309759    23A    -11.309486    24A    -11.309484  
      25A    -11.309276    26A    -11.309148    27A    -11.309047  
      28A    -11.308697    29A    -11.308692    30A    -11.308319  
      31A    -11.308282    32A    -11.308256    33A    -11.308219  
      34A    -11.308183    35A    -11.308162    36A    -11.307802  
      37A    -11.307732    38A    -11.307311    39A    -11.307307  
      40A    -11.307164    41A    -11.307157    42A    -11.306437  
      43A    -11.306333    44A    -11.302885    45A    -11.302870  
      46A    -11.302728    47A    -11.302211    48A    -11.302207  
      49A    -11.301671    50A    -11.301667    51A    -11.301432  
      52A    -11.301430    53A    -11.301011    54A    -11.301007  
      55A    -11.300314    56A    -11.300217    57A    -11.300212  
      58A    -11.300165    59A    -11.300150    60A    -11.298729  
      61A    -11.298725    62A     -1.571387    63A     -1.426922  
      64A     -1.295852    65A     -1.271051    66A     -1.270983  
      67A     -1.240375    68A     -1.240370    69A     -1.232236  
      70A     -1.231964    71A     -1.207984    72A     -1.199727  
      73A     -1.186608    74A     -1.186557    75A     -1.182330  
      76A     -1.163560    77A     -1.163549    78A     -1.133353  
      79A     -1.133349    80A     -1.129527    81A     -1.116235  
      82A     -1.116220    83A     -1.111879    84A     -1.089896  
      85A     -1.075497    86A     -1.072962    87A     -1.072946  
      88A     -1.068032    89A     -1.062907    90A     -1.037791  
      91A     -1.037782    92A     -1.015848    93A     -1.012228  
      94A     -1.012201    95A     -0.990003    96A     -0.944719  
      97A     -0.944673    98A     -0.939115    99A     -0.937336  
     100A     -0.937255   101A     -0.932199   102A     -0.932165  
     103A     -0.912204   104A     -0.910112   105A     -0.887202  
     106A     -0.868669   107A     -0.867552   108A     -0.862845  
     109A     -0.862839   110A     -0.844768   111A     -0.844754  
     112A     -0.843637   113A     -0.809623   114A     -0.805995  
     115A     -0.797587   116A     -0.795672   117A     -0.784216  
     118A     -0.784167   119A     -0.783409   120A     -0.782287  
     121A     -0.782231   122A     -0.779298   123A     -0.775308  
     124A     -0.767008   125A     -0.749312   126A     -0.749267  
     127A     -0.744097   128A     -0.744056   129A     -0.722521  
     130A     -0.718652   131A     -0.711271   132A     -0.710207  
     133A     -0.703642   134A     -0.701965   135A     -0.700225  
     136A     -0.700222   137A     -0.689587   138A     -0.689575  
     139A     -0.680285   140A     -0.678071   141A     -0.678054  
     142A     -0.658419   143A     -0.655005   144A     -0.652403  
     145A     -0.649893   146A     -0.649853   147A     -0.644335  
     148A     -0.642131   149A     -0.642105   150A     -0.634877  
     151A     -0.627704   152A     -0.627619   153A     -0.617228  
     154A     -0.617210   155A     -0.616608   156A     -0.616540  
     157A     -0.609346   158A     -0.604782   159A     -0.604727  
     160A     -0.589535   161A     -0.589083   162A     -0.589080  
     163A     -0.588597   164A     -0.588555   165A     -0.580002  
     166A     -0.579527   167A     -0.573190   168A     -0.573151  
     169A     -0.550412   170A     -0.545993   171A     -0.543292  
     172A     -0.538584   173A     -0.535711   174A     -0.532139  
     175A     -0.532097   176A     -0.521540   177A     -0.521484  
     178A     -0.517389   179A     -0.501986   180A     -0.501873  
     181A     -0.489352   182A     -0.489340   183A     -0.455788  
     184A     -0.455779   185A     -0.454428   186A     -0.425546  
     187A     -0.425541   188A     -0.399714   189A     -0.389280  
     190A     -0.388169   191A     -0.388160   192A     -0.361552  
     193A     -0.347900   194A     -0.335460   195A     -0.335450  
     196A     -0.275448   197A     -0.275438  

    Virtual:                                                              

     198A     -0.061763   199A     -0.055499   200A     -0.048312  
     201A     -0.042641   202A     -0.036597   203A     -0.036501  
     204A     -0.025616   205A     -0.023132   206A     -0.021864  
     207A     -0.019333   208A      0.000719   209A      0.002734  
     210A      0.003654   211A      0.005129   212A      0.005580  
     213A      0.006289   214A      0.008845   215A      0.010388  
     216A      0.010892   217A      0.013442   218A      0.013688  
     219A      0.013778   220A      0.016392   221A      0.020540  
     222A      0.023499   223A      0.026562   224A      0.031661  
     225A      0.031844   226A      0.033301   227A      0.035521  
     228A      0.035633   229A      0.036894   230A      0.038261  
     231A      0.039990   232A      0.041588   233A      0.044797  
     234A      0.047181   235A      0.047201   236A      0.048060  
     237A      0.048196   238A      0.049197   239A      0.056329  
     240A      0.056986   241A      0.057490   242A      0.062678  
     243A      0.066932   244A      0.067696   245A      0.067726  
     246A      0.069595   247A      0.071467   248A      0.074383  
     249A      0.075114   250A      0.075483   251A      0.079121  
     252A      0.081588   253A      0.085324   254A      0.085971  
     255A      0.087662   256A      0.087745   257A      0.089074  
     258A      0.090315   259A      0.090375   260A      0.092065  
     261A      0.093020   262A      0.093918   263A      0.096025  
     264A      0.105413   265A      0.105830   266A      0.108393  
     267A      0.108941   268A      0.109194   269A      0.113004  
     270A      0.113855   271A      0.115298   272A      0.117688  
     273A      0.118085   274A      0.123634   275A      0.124770  
     276A      0.126043   277A      0.131786   278A      0.133171  
     279A      0.134640   280A      0.134970   281A      0.135310  
     282A      0.138317   283A      0.138529   284A      0.138976  
     285A      0.139266   286A      0.140914   287A      0.143367  
     288A      0.143693   289A      0.144670   290A      0.144953  
     291A      0.146314   292A      0.148953   293A      0.151431  
     294A      0.156896   295A      0.158309   296A      0.158571  
     297A      0.160230   298A      0.165167   299A      0.165200  
     300A      0.165259   301A      0.166127   302A      0.166560  
     303A      0.166953   304A      0.167850   305A      0.169687  
     306A      0.169996   307A      0.170972   308A      0.171640  
     309A      0.176956   310A      0.178213   311A      0.180660  
     312A      0.181270   313A      0.181735   314A      0.183310  
     315A      0.184668   316A      0.184748   317A      0.184847  
     318A      0.187027   319A      0.187189   320A      0.190351  
     321A      0.190731   322A      0.192246   323A      0.194519  
     324A      0.196385   325A      0.199700   326A      0.199807  
     327A      0.200762   328A      0.204046   329A      0.204311  
     330A      0.205022   331A      0.206950   332A      0.208386  
     333A      0.208673   334A      0.210323   335A      0.211010  
     336A      0.213868   337A      0.219445   338A      0.219567  
     339A      0.220218   340A      0.220601   341A      0.220715  
     342A      0.221130   343A      0.221239   344A      0.224521  
     345A      0.225683   346A      0.226379   347A      0.226513  
     348A      0.233651   349A      0.236063   350A      0.237487  
     351A      0.240124   352A      0.240430   353A      0.241299  
     354A      0.248609   355A      0.249622   356A      0.251039  
     357A      0.252355   358A      0.254331   359A      0.255029  
     360A      0.255238   361A      0.258999   362A      0.260398  
     363A      0.260866   364A      0.261550   365A      0.262349  
     366A      0.263694   367A      0.263812   368A      0.266654  
     369A      0.266742   370A      0.268197   371A      0.269726  
     372A      0.272472   373A      0.273563   374A      0.273575  
     375A      0.273901   376A      0.274450   377A      0.275042  
     378A      0.275822   379A      0.276913   380A      0.279073  
     381A      0.280439   382A      0.281627   383A      0.282705  
     384A      0.289874   385A      0.292021   386A      0.293018  
     387A      0.295650   388A      0.297730   389A      0.297809  
     390A      0.298765   391A      0.299013   392A      0.299916  
     393A      0.302426   394A      0.303195   395A      0.304697  
     396A      0.307929   397A      0.308174   398A      0.312447  
     399A      0.313545   400A      0.318340   401A      0.320988  
     402A      0.323434   403A      0.323728   404A      0.324645  
     405A      0.324703   406A      0.327753   407A      0.328311  
     408A      0.331448   409A      0.335601   410A      0.335934  
     411A      0.337733   412A      0.341800   413A      0.342329  
     414A      0.342479   415A      0.342686   416A      0.343631  
     417A      0.346393   418A      0.347422   419A      0.347823  
     420A      0.348414   421A      0.349786   422A      0.349948  
     423A      0.353272   424A      0.353391   425A      0.356320  
     426A      0.356419   427A      0.356575   428A      0.357066  
     429A      0.358949   430A      0.358994   431A      0.361309  
     432A      0.361597   433A      0.362869   434A      0.371301  
     435A      0.371412   436A      0.371967   437A      0.374232  
     438A      0.374268   439A      0.378478   440A      0.383782  
     441A      0.386982   442A      0.387235   443A      0.389858  
     444A      0.394221   445A      0.394346   446A      0.395201  
     447A      0.396016   448A      0.396486   449A      0.398644  
     450A      0.401208   451A      0.401461   452A      0.402570  
     453A      0.409071   454A      0.409325   455A      0.409672  
     456A      0.410934   457A      0.410972   458A      0.411373  
     459A      0.413420   460A      0.414915   461A      0.415964  
     462A      0.418667   463A      0.421982   464A      0.422175  
     465A      0.428539   466A      0.432845   467A      0.432984  
     468A      0.433687   469A      0.433785   470A      0.438923  
     471A      0.443484   472A      0.443820   473A      0.443995  
     474A      0.445472   475A      0.446477   476A      0.448532  
     477A      0.449321   478A      0.452600   479A      0.452773  
     480A      0.456235   481A      0.457143   482A      0.463220  
     483A      0.463301   484A      0.464304   485A      0.464854  
     486A      0.469374   487A      0.469843   488A      0.475329  
     489A      0.476469   490A      0.476685   491A      0.477250  
     492A      0.488894   493A      0.489838   494A      0.491309  
     495A      0.494480   496A      0.498038   497A      0.498247  
     498A      0.498574   499A      0.502988   500A      0.503594  
     501A      0.503767   502A      0.505023   503A      0.505540  
     504A      0.506846   505A      0.511361   506A      0.511597  
     507A      0.511968   508A      0.512198   509A      0.519672  
     510A      0.519911   511A      0.536554   512A      0.536832  
     513A      0.546510   514A      0.547284   515A      0.547923  
     516A      0.555408   517A      0.564137   518A      0.564341  
     519A      0.567527   520A      0.571657   521A      0.571844  
     522A      0.576757   523A      0.576861   524A      0.594673  
     525A      0.599418   526A      0.599608   527A      0.604552  
     528A      0.610220   529A      0.617432   530A      0.617443  
     531A      0.619814   532A      0.627175   533A      0.627620  
     534A      0.628604   535A      0.631735   536A      0.651359  
     537A      0.656003   538A      0.666065   539A      0.666187  
     540A      0.667096   541A      0.677980   542A      0.682695  
     543A      0.689136   544A      0.690796   545A      0.692856  
     546A      0.693149   547A      0.693271   548A      0.693852  
     549A      0.697422   550A      0.703363   551A      0.707294  
     552A      0.707475   553A      0.712305   554A      0.715503  
     555A      0.716271   556A      0.724295   557A      0.741019  
     558A      0.741621   559A      0.745918   560A      0.746785  
     561A      0.747707   562A      0.752958   563A      0.756038  
     564A      0.756619   565A      0.757633   566A      0.759147  
     567A      0.764236   568A      0.764526   569A      0.773234  
     570A      0.774888   571A      0.777904   572A      0.777960  
     573A      0.778927   574A      0.782294   575A      0.783527  
     576A      0.785953   577A      0.787754   578A      0.792202  
     579A      0.801846   580A      0.804855   581A      0.805235  
     582A      0.809150   583A      0.815023   584A      0.815131  
     585A      0.820760   586A      0.821741   587A      0.822260  
     588A      0.823426   589A      0.824025   590A      0.824192  
     591A      0.828067   592A      0.828270   593A      0.829894  
     594A      0.837221   595A      0.838984   596A      0.839147  
     597A      0.845765   598A      0.848023   599A      0.848273  
     600A      0.851627   601A      0.856143   602A      0.858167  
     603A      0.858453   604A      0.859461   605A      0.861381  
     606A      0.861845   607A      0.864060   608A      0.865450  
     609A      0.868317   610A      0.872122   611A      0.872369  
     612A      0.878386   613A      0.881495   614A      0.882005  
     615A      0.882184   616A      0.885899   617A      0.886181  
     618A      0.889597   619A      0.892211   620A      0.892372  
     621A      0.895610   622A      0.895733   623A      0.904793  
     624A      0.907178   625A      0.907306   626A      0.907869  
     627A      0.920469   628A      0.920547   629A      0.921690  
     630A      0.922027   631A      0.923470   632A      0.923645  
     633A      0.927100   634A      0.928747   635A      0.930661  
     636A      0.937911   637A      0.937979   638A      0.943836  
     639A      0.947704   640A      0.948485   641A      0.949370  
     642A      0.955395   643A      0.955842   644A      0.965274  
     645A      0.965612   646A      0.966004   647A      0.968874  
     648A      0.968906   649A      0.971647   650A      0.978925  
     651A      0.981382   652A      0.981491   653A      0.984689  
     654A      0.985003   655A      0.987153   656A      0.987385  
     657A      0.989923   658A      0.990018   659A      0.991043  
     660A      0.994602   661A      0.994712   662A      0.995587  
     663A      0.996422   664A      0.996970   665A      0.999168  
     666A      1.003477   667A      1.003575   668A      1.009616  
     669A      1.010554   670A      1.011022   671A      1.011104  
     672A      1.013651   673A      1.018545   674A      1.018733  
     675A      1.021968   676A      1.022385   677A      1.022449  
     678A      1.025139   679A      1.026318   680A      1.030321  
     681A      1.030650   682A      1.033689   683A      1.033847  
     684A      1.035512   685A      1.036677   686A      1.038113  
     687A      1.043233   688A      1.054146   689A      1.054193  
     690A      1.054508   691A      1.056819   692A      1.065859  
     693A      1.066256   694A      1.066301   695A      1.066442  
     696A      1.070298   697A      1.071558   698A      1.071757  
     699A      1.075897   700A      1.076076   701A      1.082216  
     702A      1.084696   703A      1.084827   704A      1.090702  
     705A      1.090764   706A      1.091285   707A      1.093504  
     708A      1.094368   709A      1.102819   710A      1.104262  
     711A      1.109797   712A      1.117044   713A      1.119499  
     714A      1.124048   715A      1.127231   716A      1.127421  
     717A      1.132176   718A      1.132632   719A      1.132854  
     720A      1.134034   721A      1.144718   722A      1.145179  
     723A      1.146819   724A      1.149095   725A      1.149390  
     726A      1.156066   727A      1.160325   728A      1.167927  
     729A      1.167957   730A      1.168940   731A      1.170740  
     732A      1.173004   733A      1.173055   734A      1.186443  
     735A      1.189278   736A      1.189612   737A      1.206241  
     738A      1.207882   739A      1.212064   740A      1.212145  
     741A      1.212943   742A      1.213164   743A      1.215004  
     744A      1.215245   745A      1.219100   746A      1.224890  
     747A      1.227205   748A      1.244305   749A      1.244839  
     750A      1.246371   751A      1.246949   752A      1.247200  
     753A      1.248562   754A      1.257719   755A      1.257866  
     756A      1.259457   757A      1.259894   758A      1.267432  
     759A      1.268748   760A      1.269170   761A      1.270906  
     762A      1.271876   763A      1.277645   764A      1.279618  
     765A      1.279715   766A      1.282516   767A      1.289118  
     768A      1.289736   769A      1.290860   770A      1.293995  
     771A      1.294147   772A      1.304008   773A      1.304018  
     774A      1.307386   775A      1.307660   776A      1.308666  
     777A      1.308955   778A      1.314684   779A      1.314864  
     780A      1.324077   781A      1.330732   782A      1.341045  
     783A      1.347687   784A      1.351753   785A      1.353326  
     786A      1.353654   787A      1.357158   788A      1.357226  
     789A      1.362349   790A      1.362433   791A      1.369296  
     792A      1.371965   793A      1.374676   794A      1.374855  
     795A      1.378509   796A      1.378769   797A      1.380021  
     798A      1.386517   799A      1.386595   800A      1.389183  
     801A      1.389819   802A      1.389961   803A      1.397915  
     804A      1.397979   805A      1.400249   806A      1.412276  
     807A      1.412311   808A      1.421587   809A      1.421877  
     810A      1.428635   811A      1.466351   812A      1.466512  
     813A      1.470158   814A      1.470495   815A      1.470820  
     816A      1.479854   817A      1.484383   818A      1.501606  
     819A      1.509749   820A      1.522482   821A      1.523601  
     822A      1.546659   823A      1.548723   824A      1.549219  
     825A      1.557318   826A      1.557332   827A      1.558353  
     828A      1.561094   829A      1.561258   830A      1.564539  
     831A      1.569369   832A      1.570941   833A      1.571184  
     834A      1.578521   835A      1.578892   836A      1.589462  
     837A      1.589493   838A      1.592545   839A      1.592594  
     840A      1.592790   841A      1.592933   842A      1.599419  
     843A      1.610531   844A      1.610549   845A      1.611104  
     846A      1.616978   847A      1.624925   848A      1.624970  
     849A      1.625455   850A      1.626163   851A      1.626652  
     852A      1.626734   853A      1.631866   854A      1.635958  
     855A      1.636018   856A      1.645763   857A      1.646873  
     858A      1.649222   859A      1.649264   860A      1.649895  
     861A      1.653519   862A      1.653590   863A      1.665627  
     864A      1.665759   865A      1.667315   866A      1.675936  
     867A      1.686701   868A      1.691213   869A      1.694701  
     870A      1.700562   871A      1.710144   872A      1.710655  
     873A      1.711579   874A      1.712521   875A      1.726436  
     876A      1.726464   877A      1.737754   878A      1.741212  
     879A      1.741236   880A      1.752049   881A      1.754924  
     882A      1.762392   883A      1.765717   884A      1.766521  
     885A      1.766680   886A      1.768673   887A      1.773702  
     888A      1.773836   889A      1.780281   890A      1.780365  
     891A      1.785551   892A      1.787102   893A      1.791584  
     894A      1.791835   895A      1.809854   896A      1.810321  
     897A      1.810902   898A      1.811036   899A      1.812257  
     900A      1.814308   901A      1.815452   902A      1.818442  
     903A      1.821784   904A      1.822854   905A      1.829401  
     906A      1.829457   907A      1.845708   908A      1.845801  
     909A      1.849648   910A      1.850074   911A      1.853537  
     912A      1.853784   913A      1.857845   914A      1.858034  
     915A      1.862231   916A      1.864009   917A      1.864236  
     918A      1.867162   919A      1.867282   920A      1.868620  
     921A      1.871490   922A      1.871600   923A      1.873718  
     924A      1.889822   925A      1.891227   926A      1.891695  
     927A      1.891853   928A      1.897292   929A      1.897623  
     930A      1.899960   931A      1.902422   932A      1.903137  
     933A      1.903584   934A      1.903834   935A      1.904070  
     936A      1.907547   937A      1.920380   938A      1.931754  
     939A      1.931846   940A      1.939346   941A      1.946882  
     942A      1.948433   943A      1.948487   944A      1.950190  
     945A      1.954159   946A      1.958526   947A      1.962273  
     948A      1.962415   949A      1.971970   950A      1.976331  
     951A      1.977087   952A      1.979684   953A      1.979737  
     954A      1.980181   955A      1.980934   956A      1.981074  
     957A      1.997684   958A      2.001589   959A      2.001926  
     960A      2.006829   961A      2.007575   962A      2.008425  
     963A      2.009736   964A      2.010005   965A      2.017541  
     966A      2.019314   967A      2.020475   968A      2.020845  
     969A      2.024576   970A      2.025027   971A      2.029476  
     972A      2.033322   973A      2.033439   974A      2.042675  
     975A      2.043545   976A      2.045973   977A      2.046088  
     978A      2.046868   979A      2.050259   980A      2.050346  
     981A      2.055832   982A      2.057656   983A      2.057799  
     984A      2.058298   985A      2.058420   986A      2.059096  
     987A      2.064047   988A      2.069012   989A      2.069121  
     990A      2.069651   991A      2.069779   992A      2.072037  
     993A      2.075986   994A      2.076224   995A      2.082988  
     996A      2.084278   997A      2.085941   998A      2.086074  
     999A      2.091026  1000A      2.093182  1001A      2.093251  
    1002A      2.105339  1003A      2.108643  1004A      2.108677  
    1005A      2.112241  1006A      2.112292  1007A      2.120183  
    1008A      2.128057  1009A      2.128127  1010A      2.140854  
    1011A      2.141310  1012A      2.141337  1013A      2.141814  
    1014A      2.144384  1015A      2.144441  1016A      2.144719  
    1017A      2.146774  1018A      2.147251  1019A      2.162718  
    1020A      2.169307  1021A      2.169406  1022A      2.169433  
    1023A      2.176544  1024A      2.177599  1025A      2.177786  
    1026A      2.178406  1027A      2.193722  1028A      2.194082  
    1029A      2.194690  1030A      2.194867  1031A      2.197851  
    1032A      2.205003  1033A      2.210656  1034A      2.210728  
    1035A      2.220037  1036A      2.220063  1037A      2.222287  
    1038A      2.222319  1039A      2.228933  1040A      2.232007  
    1041A      2.250383  1042A      2.252431  1043A      2.256748  
    1044A      2.259692  1045A      2.261551  1046A      2.268941  
    1047A      2.271473  1048A      2.279715  1049A      2.279814  
    1050A      2.280227  1051A      2.282891  1052A      2.299387  
    1053A      2.299902  1054A      2.300562  1055A      2.302127  
    1056A      2.302156  1057A      2.315491  1058A      2.315612  
    1059A      2.323194  1060A      2.326489  1061A      2.329379  
    1062A      2.338084  1063A      2.366017  1064A      2.373499  
    1065A      2.374163  1066A      2.374165  1067A      2.386564  
    1068A      2.390442  1069A      2.390488  1070A      2.419411  
    1071A      2.422529  1072A      2.422867  1073A      2.435157  
    1074A      2.435251  1075A      2.446107  1076A      2.452013  
    1077A      2.463033  1078A      2.469392  1079A      2.479402  
    1080A      2.479493  1081A      2.493487  1082A      2.495433  
    1083A      2.495502  1084A      2.501700  1085A      2.503775  
    1086A      2.504876  1087A      2.504898  1088A      2.509551  
    1089A      2.509593  1090A      2.522536  1091A      2.522572  
    1092A      2.525268  1093A      2.525790  1094A      2.536131  
    1095A      2.536324  1096A      2.536895  1097A      2.539574  
    1098A      2.542185  1099A      2.556032  1100A      2.573666  
    1101A      2.573727  1102A      2.574416  1103A      2.575423  
    1104A      2.580710  1105A      2.581188  1106A      2.591348  
    1107A      2.591399  1108A      2.601222  1109A      2.601580  
    1110A      2.606982  1111A      2.607291  1112A      2.631198  
    1113A      2.632348  1114A      2.633979  1115A      2.637181  
    1116A      2.638280  1117A      2.650713  1118A      2.651123  
    1119A      2.662245  1120A      2.662305  1121A      2.663239  
    1122A      2.668024  1123A      2.668111  1124A      2.672141  
    1125A      2.672358  1126A      2.675393  1127A      2.680073  
    1128A      2.686319  1129A      2.689924  1130A      2.702202  
    1131A      2.702536  1132A      2.707956  1133A      2.725933  
    1134A      2.739388  1135A      2.743668  1136A      2.743825  
    1137A      2.749938  1138A      2.764676  1139A      2.776203  
    1140A      2.777147  1141A      2.790798  1142A      2.800822  
    1143A      2.801014  1144A      2.804727  1145A      2.807052  
    1146A      2.808556  1147A      2.808675  1148A      2.816822  
    1149A      2.866983  1150A      2.867250  1151A      2.873618  
    1152A      2.883750  1153A      2.883802  1154A      2.899499  
    1155A      2.899521  1156A      2.912919  1157A      2.919752  
    1158A      2.955742  1159A      2.955987  1160A      2.962535  
    1161A      2.978258  1162A      2.979656  1163A      3.013135  
    1164A      3.013205  1165A      3.019974  1166A      3.019988  
    1167A      3.048193  1168A      3.059464  1169A      3.060224  
    1170A      3.066911  1171A      3.077705  1172A      3.079366  
    1173A      3.079586  1174A      3.087505  1175A      3.095313  
    1176A      3.096278  1177A      3.096939  1178A      3.099063  
    1179A      3.099073  1180A      3.107565  1181A      3.108037  
    1182A      3.115644  1183A      3.116142  1184A      3.142052  
    1185A      3.161605  1186A      3.167575  1187A      3.187091  
    1188A      3.220979  1189A      3.226272  1190A      3.226414  
    1191A      3.231435  1192A      3.231691  1193A      3.365301  
    1194A      3.365868  1195A      3.390083  1196A      3.430148  
    1197A      3.432776  1198A      3.441641  1199A      3.497715  
    1200A      3.525640  1201A      3.527539  1202A      3.529994  
    1203A      3.542569  1204A      3.575957  1205A      3.577946  
    1206A      3.612288  1207A      3.616789  1208A      3.718515  
    1209A      3.731613  1210A      3.732539  1211A      3.820679  
    1212A      3.820691  1213A      3.862747  1214A      3.862883  
    1215A      3.926019  1216A      3.959889  1217A      3.980722  
    1218A      3.992577  1219A      4.028672  

    Final Occupation by Irrep:
              A 
    DOCC [   197 ]
    NA   [   197 ]
    NB   [   197 ]

  @DF-RHF Final Energy: -2359.19498694297226

   => Energetics <=

    Nuclear Repulsion Energy =           7693.7563464947652392
    One-Electron Energy =              -18495.2484210627953871
    Two-Electron Energy =                8442.2970876250583387
    Total Energy =                      -2359.1949869429718092

Computation Completed


Properties will be evaluated at   0.000000,   0.000000,   0.000000 [a0]

Properties computed using the SCF density matrix


 Multipole Moments:

 ------------------------------------------------------------------------------------
     Multipole            Electronic (a.u.)      Nuclear  (a.u.)        Total (a.u.)
 ------------------------------------------------------------------------------------

 L = 1.  Multiply by 2.5417464519 to convert [e a0] to [Debye]
 Dipole X            :         -0.0011489            0.0006313           -0.0005176
 Dipole Y            :         -5.4366225            7.4856329            2.0490104
 Dipole Z            :         31.2647788          -45.0272585          -13.7624797
 Magnitude           :                                                   13.9141759

 ------------------------------------------------------------------------------------

*** tstop() called on d-3-8-3 at Mon Jan 22 22:37:36 2024
Module time:
	user time   =    3820.82 seconds =      63.68 minutes
	system time =      79.67 seconds =       1.33 minutes
	total time  =        416 seconds =       6.93 minutes
Total time:
	user time   =    3820.82 seconds =      63.68 minutes
	system time =      79.67 seconds =       1.33 minutes
	total time  =        416 seconds =       6.93 minutes

  //>>>>>>>>>>>>>>>>>>>>>>>>>>>>>>>>>>>//
  //            Monomer A HF           //
  //<<<<<<<<<<<<<<<<<<<<<<<<<<<<<<<<<<<//

   => Libint2 <=

    Primary   basis highest AM E, G, H:  7, 7, 4
    Auxiliary basis highest AM E, G, H:  7, 7, 5
    Onebody   basis highest AM E, G, H:  7, 7, 5
    Solid Harmonics ordering:            gaussian

*** tstart() called on d-3-8-3
*** at Mon Jan 22 22:37:36 2024

   => Loading Basis Set <=

    Name: JUN-CC-PVDZ
    Role: ORBITAL
    Keyword: BASIS
    atoms 1-2, 4-5, 10, 17-70 entry C          line   164 file /home/gridsan/tfroembgen/.conda/envs/psi4test/share/psi4/basis/jun-cc-pvdz.gbs 
    atoms 3, 6                entry N          line   198 file /home/gridsan/tfroembgen/.conda/envs/psi4test/share/psi4/basis/jun-cc-pvdz.gbs 
    atoms 7-9, 11-16, 71-88   entry H          line    36 file /home/gridsan/tfroembgen/.conda/envs/psi4test/share/psi4/basis/jun-cc-pvdz.gbs 


         ---------------------------------------------------------
                                   SCF
               by Justin Turney, Rob Parrish, Andy Simmonett
                          and Daniel G. A. Smith
                              RHF Reference
                       12 Threads,  30517 MiB Core
         ---------------------------------------------------------

  ==> Geometry <==

    Molecular point group: c1
    Full point group: C1

    Geometry (in Angstrom), charge = 1, multiplicity = 1:

       Center              X                  Y                   Z               Mass       
    ------------   -----------------  -----------------  -----------------  -----------------
         C            0.680066520158     1.235968212970    -9.071186492270    12.000000000000
         C           -0.680504479842     1.237996212970    -9.070802492270    12.000000000000
         N           -1.085635479842     1.238994212970    -7.752478492270    14.003074004430
         C            0.000107520158     1.242270212970    -6.971077492270    12.000000000000
         C           -2.477365479842     1.288400212970    -7.284499492270    12.000000000000
         N            1.085221520158     1.238994212970    -7.752478492270    14.003074004430
         H            1.385145520158     1.228140212970    -9.888625492270     1.007825032230
         H           -1.385302479842     1.237806212970    -9.888471492270     1.007825032230
         H           -0.000009479842     1.244017212970    -5.889988492270     1.007825032230
         C            2.478116520158     1.222102212970    -7.287380492270    12.000000000000
         H            2.490591520158     1.249447212970    -6.197127492270     1.007825032230
         H            2.967027520158     0.308656212970    -7.634556492270     1.007825032230
         H            3.001427520158     2.097585212970    -7.678852492270     1.007825032230
         H           -2.857359479842     2.310471212970    -7.364458492270     1.007825032230
         H           -3.082679479842     0.618316212970    -7.897563492270     1.007825032230
         H           -2.518128479842     0.961416212970    -6.244551492270     1.007825032230
      Gh(C)           1.225311895423     0.526248873889     1.150880135014    12.000000000000
      Gh(C)           1.225323856051    -0.888828309601     1.138549325444    12.000000000000
      Gh(C)          -0.000006153932     1.233676499060     1.138015701923    12.000000000000
      Gh(C)           2.456448753949     1.237038472148     1.153766992414    12.000000000000
      Gh(C)           0.000010827279    -1.596265913665     1.148215259248    12.000000000000
      Gh(C)          -1.225300948908     0.526255958954     1.153131655337    12.000000000000
      Gh(C)           2.456437755320    -1.599612718911     1.136304168587    12.000000000000
      Gh(C)          -0.000001332978     2.655511616251     1.135612151789    12.000000000000
      Gh(C)           3.681826697470     0.528028540971     1.136652958385    12.000000000000
      Gh(C)           2.455120048865     2.652934246459     1.136550401424    12.000000000000
      Gh(C)           3.681821105219    -0.890623254459     1.152725442403    12.000000000000
      Gh(C)          -1.225313598688    -0.888816930574     1.139622086871    12.000000000000
      Gh(C)           1.226699581202     3.362180068964     1.152909474334    12.000000000000
      Gh(C)           0.000004784858    -3.018071554266     1.153063426869    12.000000000000
      Gh(C)          -2.456436032848     1.237027503255     1.153167051182    12.000000000000
      Gh(C)           2.455123417779    -3.015519443619     1.152573534036    12.000000000000
      Gh(C)          -1.226714364589     3.362179648720     1.153012807553    12.000000000000
      Gh(C)           4.914517295202     1.245883457459     1.143133641414    12.000000000000
      Gh(C)           3.693150191476     3.361505877515     1.143183441051    12.000000000000
      Gh(C)          -2.456437600068    -1.599602695869     1.136279130462    12.000000000000
      Gh(C)           1.226704841943    -3.724763656937     1.136939343584    12.000000000000
      Gh(C)          -2.455125398508     2.652927247604     1.136556777770    12.000000000000
      Gh(C)           4.914524380782    -1.608476324974     1.146106384149    12.000000000000
      Gh(C)           1.221424613699     4.788844650230     1.146244818409    12.000000000000
      Gh(C)           4.893008229321     2.643898584996     1.144350309773    12.000000000000
      Gh(C)          -1.226697008489    -3.724760412107     1.137206547994    12.000000000000
      Gh(C)          -3.681818976526     0.528035551702     1.136665638865    12.000000000000
      Gh(C)           3.693147101150    -3.724090756421     1.146224274710    12.000000000000
      Gh(C)          -1.221432251994     4.788838882833     1.146428313781    12.000000000000
      Gh(C)           6.134770972926     0.499258532075     1.143903415964    12.000000000000
      Gh(C)           3.656788880610     4.791663828537     1.144092078833    12.000000000000
      Gh(C)          -2.455126907733    -3.015504508091     1.152329176238    12.000000000000
      Gh(C)          -3.681819179061    -0.890615118499     1.152843063982    12.000000000000
      Gh(C)           4.893012617914    -3.006489520662     1.144961461668    12.000000000000
      Gh(C)          -0.000001073113     5.469157951002     1.145197005074    12.000000000000
      Gh(C)           6.134775112332    -0.861844269105     1.145168736480    12.000000000000
      Gh(C)           2.478131482856     5.472287336301     1.145380858483    12.000000000000
      Gh(C)           1.221422404738    -5.151416469963     1.143445321386    12.000000000000
      Gh(C)          -3.693162383965     3.361507539162     1.143348948510    12.000000000000
      Gh(C)          -1.221428520945    -5.151407718626     1.143332559553    12.000000000000
      Gh(C)          -4.914521807942     1.245886031965     1.143210586422    12.000000000000
      Gh(C)           3.656787019679    -5.154244641269     1.145542579367    12.000000000000
      Gh(C)          -2.478138530106     5.472285007498     1.145665383492    12.000000000000
      Gh(C)          -3.693141738564    -3.724079634009     1.146108148554    12.000000000000
      Gh(C)          -4.914512483053    -1.608470415058     1.146141081323    12.000000000000
      Gh(C)          -0.000006008926    -5.831727702044     1.144801500953    12.000000000000
      Gh(C)          -4.893020484101     2.643899183889     1.144340227913    12.000000000000
      Gh(C)           2.478125993298    -5.834862958919     1.144451978575    12.000000000000
      Gh(C)          -3.656798710258     4.791666767011     1.144268759208    12.000000000000
      Gh(C)          -4.892999478856    -3.006481182090     1.144807425971    12.000000000000
      Gh(C)          -2.478128498083    -5.834855585037     1.144176790928    12.000000000000
      Gh(C)          -6.134770503331     0.499259351226     1.143877864262    12.000000000000
      Gh(C)          -3.656788833189    -5.154233438001     1.145328291551    12.000000000000
      Gh(C)          -6.134765042913    -0.861843330512     1.145148260685    12.000000000000
      Gh(H)           5.835288495816     3.187986479924     1.148709635436     1.007825032230
      Gh(H)           7.073859172747     1.046927833869     1.144365059357     1.007825032230
      Gh(H)           4.600663264174     5.331091387423     1.144597279585     1.007825032230
      Gh(H)           5.835283387305    -3.550595471759     1.140506994354     1.007825032230
      Gh(H)          -0.000012151306     6.557241259106     1.140847760067     1.007825032230
      Gh(H)           7.073861171831    -1.409516357774     1.144659998386     1.007825032230
      Gh(H)           2.473313731799     6.559394876364     1.144914137553     1.007825032230
      Gh(H)           4.600668491381    -5.693665544206     1.145132582199     1.007825032230
      Gh(H)          -2.473318680537     6.559392304576     1.145215484178     1.007825032230
      Gh(H)          -0.000010268228    -6.919817591482     1.149331185938     1.007825032230
      Gh(H)          -5.835301914343     3.187981535266     1.148845657584     1.007825032230
      Gh(H)           2.473307923831    -6.921974789459     1.145022309000     1.007825032230
      Gh(H)          -4.600674841208     5.331088611573     1.144762607909     1.007825032230
      Gh(H)          -5.835279506835    -3.550578378810     1.140227688473     1.007825032230
      Gh(H)          -2.473300347440    -6.921968493170     1.144572992455     1.007825032230
      Gh(H)          -7.073857766768     1.046931057810     1.144281067877     1.007825032230
      Gh(H)          -4.600673786085    -5.693652084817     1.144960274176     1.007825032230
      Gh(H)          -7.073856934409    -1.409510047007     1.144565141919     1.007825032230

  Running in c1 symmetry.

  Rotational constants: A =      0.00120  B =      0.00115  C =      0.00103 [cm^-1]
  Rotational constants: A =     36.00899  B =     34.35304  C =     30.88041 [MHz]
  Nuclear repulsion =  306.774908447733026

  Charge       = 1
  Multiplicity = 1
  Electrons    = 52
  Nalpha       = 26
  Nbeta        = 26

  ==> Algorithm <==

  SCF Algorithm Type is DF.
  DIIS enabled.
  MOM disabled.
  Fractional occupation disabled.
  Guess Type is SAD.
  Energy threshold   = 1.00e-08
  Density threshold  = 1.00e-08
  Integral threshold = 1.00e-12

  ==> Primary Basis <==

  Basis Set: JUN-CC-PVDZ
    Blend: JUN-CC-PVDZ
    Number of shells: 569
    Number of basis functions: 1233
    Number of Cartesian functions: 1294
    Spherical Harmonics?: true
    Max angular momentum: 2

   => Loading Basis Set <=

    Name: (JUN-CC-PVDZ AUX)
    Role: JKFIT
    Keyword: DF_BASIS_SCF
    atoms 1-2, 4-5, 10, 17-70 entry C          line   146 file /home/gridsan/tfroembgen/.conda/envs/psi4test/share/psi4/basis/jun-cc-pvdz-jkfit.gbs 
    atoms 3, 6                entry N          line   202 file /home/gridsan/tfroembgen/.conda/envs/psi4test/share/psi4/basis/jun-cc-pvdz-jkfit.gbs 
    atoms 7-9, 11-16, 71-88   entry H          line    70 file /home/gridsan/tfroembgen/.conda/envs/psi4test/share/psi4/basis/jun-cc-pvdz-jkfit.gbs 

  ==> Integral Setup <==

  ==> DiskDFJK: Density-Fitted J/K Matrices <==

    J tasked:                  Yes
    K tasked:                  Yes
    wK tasked:                  No
    OpenMP threads:             12
    Integrals threads:          12
    Memory [MiB]:            22888
    Algorithm:                Core
    Integral Cache:           LOAD
    Schwarz Cutoff:          1E-12
    Fitting Condition:       1E-10

   => Auxiliary Basis Set <=

  Basis Set: (JUN-CC-PVDZ AUX)
    Blend: JUN-CC-PVDZ-JKFIT
    Number of shells: 1890
    Number of basis functions: 5440
    Number of Cartesian functions: 6226
    Spherical Harmonics?: true
    Max angular momentum: 3

  Minimum eigenvalue in the overlap matrix is 8.3998091299E-10.
  Reciprocal condition number of the overlap matrix is 3.7579026069E-11.
    Using canonical orthogonalization.
  Overall, 14 of 1233 possible MOs eliminated.


  ==> Pre-Iterations <==

  SCF Guess: Superposition of Atomic Densities via on-the-fly atomic UHF (no occupation information).

   -------------------------
    Irrep   Nso     Nmo    
   -------------------------
     A       1233    1219 
   -------------------------
    Total    1233    1219
   -------------------------

  ==> Iterations <==

                           Total Energy        Delta E     RMS |[F,P]|

   @DF-RHF iter SAD:  -303.36533887695651   -3.03365e+02   0.00000e+00 
   @DF-RHF iter   1:  -303.16939161104631    1.95947e-01   3.44006e-04 DIIS/ADIIS
   @DF-RHF iter   2:  -303.28371631580751   -1.14325e-01   1.15849e-04 DIIS/ADIIS
   @DF-RHF iter   3:  -303.29515884598419   -1.14425e-02   4.53091e-05 DIIS
   @DF-RHF iter   4:  -303.29705913280725   -1.90029e-03   9.88632e-06 DIIS
   @DF-RHF iter   5:  -303.29716447449664   -1.05342e-04   2.40978e-06 DIIS
   @DF-RHF iter   6:  -303.29717371424636   -9.23975e-06   6.54118e-07 DIIS
   @DF-RHF iter   7:  -303.29717478601248   -1.07177e-06   3.31932e-07 DIIS
   @DF-RHF iter   8:  -303.29717503801868   -2.52006e-07   1.33522e-07 DIIS
   @DF-RHF iter   9:  -303.29717508635872   -4.83400e-08   3.37096e-08 DIIS
   @DF-RHF iter  10:  -303.29717508918293   -2.82421e-09   1.26798e-08 DIIS
   @DF-RHF iter  11:  -303.29717508943128   -2.48349e-10   2.99301e-09 DIIS
  Energy and wave function converged.


  ==> Post-Iterations <==

    Orbital Energies [Eh]
    ---------------------

    Doubly Occupied:                                                      

       1A    -15.834670     2A    -15.834138     3A    -11.529559  
       4A    -11.459861     5A    -11.458306     6A    -11.449669  
       7A    -11.449555     8A     -1.578241     9A     -1.433830  
      10A     -1.238672    11A     -1.189313    12A     -1.118869  
      13A     -1.022541    14A     -0.996972    15A     -0.917050  
      16A     -0.850525    17A     -0.816263    18A     -0.813210  
      19A     -0.790136    20A     -0.786229    21A     -0.781779  
      22A     -0.729707    23A     -0.725785    24A     -0.717097  
      25A     -0.596307    26A     -0.523863  

    Virtual:                                                              

      27A     -0.069542    28A     -0.067842    29A     -0.055868  
      30A     -0.050465    31A     -0.033867    32A     -0.032855  
      33A     -0.031121    34A     -0.030031    35A     -0.026053  
      36A     -0.023212    37A     -0.019926    38A     -0.011993  
      39A     -0.011761    40A     -0.007406    41A     -0.005041  
      42A     -0.003303    43A      0.000928    44A      0.002004  
      45A      0.004900    46A      0.005183    47A      0.005497  
      48A      0.009868    49A      0.010884    50A      0.013007  
      51A      0.018125    52A      0.023337    53A      0.023488  
      54A      0.024429    55A      0.029332    56A      0.030115  
      57A      0.032530    58A      0.033121    59A      0.036171  
      60A      0.039784    61A      0.040656    62A      0.043755  
      63A      0.043772    64A      0.044267    65A      0.051521  
      66A      0.053560    67A      0.057194    68A      0.059302  
      69A      0.059581    70A      0.062231    71A      0.062365  
      72A      0.066561    73A      0.067986    74A      0.068750  
      75A      0.071559    76A      0.071907    77A      0.072492  
      78A      0.073292    79A      0.075282    80A      0.077496  
      81A      0.078700    82A      0.079462    83A      0.081350  
      84A      0.086761    85A      0.086881    86A      0.087731  
      87A      0.089613    88A      0.090119    89A      0.092064  
      90A      0.094236    91A      0.094876    92A      0.095180  
      93A      0.096671    94A      0.099497    95A      0.099518  
      96A      0.102491    97A      0.103782    98A      0.106044  
      99A      0.106144   100A      0.107746   101A      0.109546  
     102A      0.112101   103A      0.116112   104A      0.117276  
     105A      0.121680   106A      0.121740   107A      0.124457  
     108A      0.124586   109A      0.126572   110A      0.126850  
     111A      0.129622   112A      0.130231   113A      0.130590  
     114A      0.130806   115A      0.131455   116A      0.132874  
     117A      0.132919   118A      0.135517   119A      0.137733  
     120A      0.139254   121A      0.141118   122A      0.142772  
     123A      0.147251   124A      0.147535   125A      0.148528  
     126A      0.148575   127A      0.148678   128A      0.152714  
     129A      0.153553   130A      0.155719   131A      0.155969  
     132A      0.158696   133A      0.159208   134A      0.159331  
     135A      0.160032   136A      0.160379   137A      0.166923  
     138A      0.172753   139A      0.172825   140A      0.174676  
     141A      0.174761   142A      0.176863   143A      0.177158  
     144A      0.177381   145A      0.177467   146A      0.180183  
     147A      0.183393   148A      0.184918   149A      0.186267  
     150A      0.188228   151A      0.189414   152A      0.190678  
     153A      0.191154   154A      0.191339   155A      0.192267  
     156A      0.192512   157A      0.193099   158A      0.193721  
     159A      0.195346   160A      0.199736   161A      0.200472  
     162A      0.202122   163A      0.203645   164A      0.204131  
     165A      0.204528   166A      0.205331   167A      0.220168  
     168A      0.220217   169A      0.222162   170A      0.222991  
     171A      0.226417   172A      0.226637   173A      0.227041  
     174A      0.227097   175A      0.229005   176A      0.229166  
     177A      0.233046   178A      0.233119   179A      0.234648  
     180A      0.235672   181A      0.237076   182A      0.237189  
     183A      0.237594   184A      0.238366   185A      0.238772  
     186A      0.239689   187A      0.246972   188A      0.248901  
     189A      0.249412   190A      0.249537   191A      0.252255  
     192A      0.255181   193A      0.259914   194A      0.261559  
     195A      0.261783   196A      0.266321   197A      0.266619  
     198A      0.268290   199A      0.269686   200A      0.273282  
     201A      0.276406   202A      0.276435   203A      0.279764  
     204A      0.279989   205A      0.281105   206A      0.282217  
     207A      0.282741   208A      0.295571   209A      0.295705  
     210A      0.296180   211A      0.296635   212A      0.297385  
     213A      0.298772   214A      0.301063   215A      0.304217  
     216A      0.304344   217A      0.306352   218A      0.306461  
     219A      0.311205   220A      0.313769   221A      0.314272  
     222A      0.315017   223A      0.316114   224A      0.317550  
     225A      0.317983   226A      0.319779   227A      0.321651  
     228A      0.324774   229A      0.324887   230A      0.326448  
     231A      0.328565   232A      0.330086   233A      0.330580  
     234A      0.336682   235A      0.338271   236A      0.340914  
     237A      0.344399   238A      0.350479   239A      0.351282  
     240A      0.353656   241A      0.354348   242A      0.354449  
     243A      0.359795   244A      0.361151   245A      0.369670  
     246A      0.369777   247A      0.372251   248A      0.373503  
     249A      0.374122   250A      0.378065   251A      0.378470  
     252A      0.380761   253A      0.380837   254A      0.380972  
     255A      0.381515   256A      0.383154   257A      0.383712  
     258A      0.385748   259A      0.386785   260A      0.394318  
     261A      0.395682   262A      0.395881   263A      0.397909  
     264A      0.398925   265A      0.403510   266A      0.403726  
     267A      0.405260   268A      0.405315   269A      0.406848  
     270A      0.407701   271A      0.410752   272A      0.412845  
     273A      0.416838   274A      0.417801   275A      0.418090  
     276A      0.421950   277A      0.423114   278A      0.424433  
     279A      0.426845   280A      0.426905   281A      0.430352  
     282A      0.433563   283A      0.434447   284A      0.435958  
     285A      0.436823   286A      0.437118   287A      0.437533  
     288A      0.438727   289A      0.442218   290A      0.444028  
     291A      0.444059   292A      0.449332   293A      0.450897  
     294A      0.455666   295A      0.456924   296A      0.457776  
     297A      0.459347   298A      0.466775   299A      0.466931  
     300A      0.472222   301A      0.473937   302A      0.475122  
     303A      0.476316   304A      0.477461   305A      0.479554  
     306A      0.480017   307A      0.480720   308A      0.483624  
     309A      0.491508   310A      0.491825   311A      0.492633  
     312A      0.493909   313A      0.495333   314A      0.495335  
     315A      0.497051   316A      0.504942   317A      0.508619  
     318A      0.513676   319A      0.513821   320A      0.516893  
     321A      0.522784   322A      0.522931   323A      0.524260  
     324A      0.525077   325A      0.525965   326A      0.528341  
     327A      0.529492   328A      0.529748   329A      0.534504  
     330A      0.547260   331A      0.547367   332A      0.548238  
     333A      0.548509   334A      0.549958   335A      0.550109  
     336A      0.559309   337A      0.559389   338A      0.560679  
     339A      0.564511   340A      0.565664   341A      0.568360  
     342A      0.568981   343A      0.569160   344A      0.569874  
     345A      0.581099   346A      0.581148   347A      0.582177  
     348A      0.588426   349A      0.588727   350A      0.594827  
     351A      0.594896   352A      0.594960   353A      0.597437  
     354A      0.605780   355A      0.606621   356A      0.610689  
     357A      0.611844   358A      0.621091   359A      0.624638  
     360A      0.625204   361A      0.626432   362A      0.626714  
     363A      0.629383   364A      0.629409   365A      0.632044  
     366A      0.638697   367A      0.639186   368A      0.640361  
     369A      0.640625   370A      0.645559   371A      0.646665  
     372A      0.648418   373A      0.651066   374A      0.652559  
     375A      0.653275   376A      0.655872   377A      0.656077  
     378A      0.656240   379A      0.657177   380A      0.657395  
     381A      0.661754   382A      0.671500   383A      0.671827  
     384A      0.673112   385A      0.673261   386A      0.675548  
     387A      0.683780   388A      0.689712   389A      0.691473  
     390A      0.696583   391A      0.697204   392A      0.698803  
     393A      0.709401   394A      0.709437   395A      0.709747  
     396A      0.710934   397A      0.714139   398A      0.714248  
     399A      0.715449   400A      0.715645   401A      0.717232  
     402A      0.717326   403A      0.718359   404A      0.722703  
     405A      0.723263   406A      0.724009   407A      0.726218  
     408A      0.726768   409A      0.728766   410A      0.736185  
     411A      0.737040   412A      0.737202   413A      0.739622  
     414A      0.743720   415A      0.744897   416A      0.744981  
     417A      0.746076   418A      0.749093   419A      0.753040  
     420A      0.754373   421A      0.754906   422A      0.756172  
     423A      0.764646   424A      0.777035   425A      0.784106  
     426A      0.793204   427A      0.793310   428A      0.798173  
     429A      0.798209   430A      0.809592   431A      0.809769  
     432A      0.814728   433A      0.817189   434A      0.818919  
     435A      0.829841   436A      0.829854   437A      0.835009  
     438A      0.835137   439A      0.838231   440A      0.840228  
     441A      0.847562   442A      0.847586   443A      0.849196  
     444A      0.854510   445A      0.866111   446A      0.873873  
     447A      0.873925   448A      0.883421   449A      0.896969  
     450A      0.900769   451A      0.908587   452A      0.908659  
     453A      0.917424   454A      0.917431   455A      0.926352  
     456A      0.939036   457A      0.942673   458A      0.947954  
     459A      0.948096   460A      0.949388   461A      0.952394  
     462A      0.958325   463A      0.965356   464A      0.974091  
     465A      0.976887   466A      0.976908   467A      0.992552  
     468A      0.992629   469A      1.007829   470A      1.014069  
     471A      1.014154   472A      1.017382   473A      1.017426  
     474A      1.022400   475A      1.030506   476A      1.046141  
     477A      1.051282   478A      1.051421   479A      1.054370  
     480A      1.065039   481A      1.095555   482A      1.102696  
     483A      1.103711   484A      1.103804   485A      1.110054  
     486A      1.110175   487A      1.123963   488A      1.124973  
     489A      1.125188   490A      1.131537   491A      1.131577  
     492A      1.138328   493A      1.145495   494A      1.145539  
     495A      1.149512   496A      1.151615   497A      1.161525  
     498A      1.168844   499A      1.168869   500A      1.176688  
     501A      1.178577   502A      1.236865   503A      1.244767  
     504A      1.244788   505A      1.250777   506A      1.254948  
     507A      1.255022   508A      1.260863   509A      1.270540  
     510A      1.270689   511A      1.271759   512A      1.276198  
     513A      1.278262   514A      1.312727   515A      1.317299  
     516A      1.319453   517A      1.319488   518A      1.345182  
     519A      1.369336   520A      1.391730   521A      1.392151  
     522A      1.409918   523A      1.410655   524A      1.412717  
     525A      1.415661   526A      1.416005   527A      1.418749  
     528A      1.421503   529A      1.431473   530A      1.432013  
     531A      1.462970   532A      1.477551   533A      1.492623  
     534A      1.502743   535A      1.503541   536A      1.503831  
     537A      1.505918   538A      1.507156   539A      1.516113  
     540A      1.517297   541A      1.561972   542A      1.570520  
     543A      1.583840   544A      1.587048   545A      1.595907  
     546A      1.599259   547A      1.603744   548A      1.608523  
     549A      1.609822   550A      1.610284   551A      1.618189  
     552A      1.631340   553A      1.632330   554A      1.634223  
     555A      1.640428   556A      1.648020   557A      1.659754  
     558A      1.668592   559A      1.679637   560A      1.685339  
     561A      1.693442   562A      1.694615   563A      1.695637  
     564A      1.697470   565A      1.698056   566A      1.700927  
     567A      1.706164   568A      1.709808   569A      1.710044  
     570A      1.713378   571A      1.720326   572A      1.730519  
     573A      1.735144   574A      1.739687   575A      1.740229  
     576A      1.741432   577A      1.744608   578A      1.746319  
     579A      1.746713   580A      1.749949   581A      1.754986  
     582A      1.756134   583A      1.759466   584A      1.772603  
     585A      1.773165   586A      1.777681   587A      1.777989  
     588A      1.779108   589A      1.780327   590A      1.781887  
     591A      1.782399   592A      1.789190   593A      1.789694  
     594A      1.789764   595A      1.790542   596A      1.792886  
     597A      1.804650   598A      1.805608   599A      1.808879  
     600A      1.809498   601A      1.809865   602A      1.816470  
     603A      1.823797   604A      1.825089   605A      1.825722  
     606A      1.829212   607A      1.833791   608A      1.835533  
     609A      1.836741   610A      1.840927   611A      1.841902  
     612A      1.842952   613A      1.852859   614A      1.854755  
[...]
     793A      1.643899   794A      1.649627   795A      1.660868  
     796A      1.660966   797A      1.662783   798A      1.667402  
     799A      1.674940   800A      1.676250   801A      1.676340  
     802A      1.676742   803A      1.676747   804A      1.677011  
     805A      1.684617   806A      1.686603   807A      1.686662  
     808A      1.696036   809A      1.697323   810A      1.699323  
     811A      1.699364   812A      1.700718   813A      1.704742  
     814A      1.704810   815A      1.715731   816A      1.715734  
     817A      1.741674   818A      1.751383   819A      1.754447  
     820A      1.760256   821A      1.760282   822A      1.761060  
     823A      1.761732   824A      1.776705   825A      1.776750  
     826A      1.784592   827A      1.791471   828A      1.791504  
     829A      1.796083   830A      1.799114   831A      1.802145  
     832A      1.816529   833A      1.816554   834A      1.816649  
     835A      1.818028   836A      1.824641   837A      1.824748  
     838A      1.830633   839A      1.830826   840A      1.832540  
     841A      1.836699   842A      1.842397   843A      1.842673  
     844A      1.854347   845A      1.860733   846A      1.860756  
     847A      1.860851   848A      1.861012   849A      1.864049  
     850A      1.868605   851A      1.872178   852A      1.880143  
     853A      1.880213   854A      1.888284   855A      1.895600  
     856A      1.896142   857A      1.896239   858A      1.899398  
     859A      1.902942   860A      1.903069   861A      1.908551  
     862A      1.908704   863A      1.912867   864A      1.913978  
     865A      1.914264   866A      1.917637   867A      1.917784  
     868A      1.919235   869A      1.921967   870A      1.922058  
     871A      1.940482   872A      1.941000   873A      1.941667  
     874A      1.941844   875A      1.942014   876A      1.946426  
     877A      1.946468   878A      1.953917   879A      1.954045  
     880A      1.954274   881A      1.954380   882A      1.957985  
     883A      1.969915   884A      1.982766   885A      1.982840  
     886A      1.989205   887A      1.992712   888A      1.997095  
     889A      1.998548   890A      1.998564   891A      2.003786  
     892A      2.008005   893A      2.012256   894A      2.012417  
     895A      2.014608   896A      2.026665   897A      2.027821  
     898A      2.029973   899A      2.030050   900A      2.030426  
     901A      2.031006   902A      2.031221   903A      2.031344  
     904A      2.036439   905A      2.046317   906A      2.048027  
     907A      2.051811   908A      2.052087   909A      2.055492  
     910A      2.057336   911A      2.058131   912A      2.059062  
     913A      2.060228   914A      2.068214   915A      2.070005  
     916A      2.071116   917A      2.071447   918A      2.075365  
     919A      2.075665   920A      2.079876   921A      2.081641  
     922A      2.084193   923A      2.084252   924A      2.085157  
     925A      2.092731   926A      2.094088   927A      2.095410  
     928A      2.096843   929A      2.100481   930A      2.100523  
     931A      2.105306   932A      2.107835   933A      2.108240  
     934A      2.108602   935A      2.109100   936A      2.109616  
     937A      2.110180   938A      2.114069   939A      2.119107  
     940A      2.119224   941A      2.120102   942A      2.120265  
     943A      2.122258   944A      2.125862   945A      2.126064  
     946A      2.130592   947A      2.133405   948A      2.134557  
     949A      2.135725   950A      2.135809   951A      2.140954  
     952A      2.143158   953A      2.143251   954A      2.155379  
     955A      2.157600   956A      2.159609   957A      2.159780  
     958A      2.162685   959A      2.162763   960A      2.171226  
     961A      2.178211   962A      2.178301   963A      2.184229  
     964A      2.190336   965A      2.190659   966A      2.190924  
     967A      2.192485   968A      2.193809   969A      2.195787  
     970A      2.195870   971A      2.198283   972A      2.210990  
     973A      2.219650   974A      2.220238   975A      2.220338  
     976A      2.227663   977A      2.228111   978A      2.228454  
     979A      2.228866   980A      2.232104   981A      2.243214  
     982A      2.243548   983A      2.243804   984A      2.244161  
     985A      2.247051   986A      2.260040   987A      2.260126  
     988A      2.265948   989A      2.270110   990A      2.270119  
     991A      2.271985   992A      2.272052   993A      2.273585  
     994A      2.281043   995A      2.294770   996A      2.300213  
     997A      2.306658   998A      2.310244   999A      2.311220  
    1000A      2.312120  1001A      2.319806  1002A      2.322229  
    1003A      2.330907  1004A      2.330964  1005A      2.331061  
    1006A      2.333808  1007A      2.336039  1008A      2.337075  
    1009A      2.350670  1010A      2.351330  1011A      2.352330  
    1012A      2.352412  1013A      2.366241  1014A      2.366359  
    1015A      2.374600  1016A      2.379190  1017A      2.382831  
    1018A      2.415808  1019A      2.423989  1020A      2.424355  
    1021A      2.424383  1022A      2.436438  1023A      2.440153  
    1024A      2.441077  1025A      2.441180  1026A      2.445343  
    1027A      2.453433  1028A      2.467071  1029A      2.469910  
    1030A      2.472561  1031A      2.472739  1032A      2.474225  
    1033A      2.485308  1034A      2.485353  1035A      2.502283  
    1036A      2.503886  1037A      2.519082  1038A      2.529661  
    1039A      2.529833  1040A      2.543216  1041A      2.545229  
    1042A      2.545278  1043A      2.554174  1044A      2.554205  
    1045A      2.554778  1046A      2.559804  1047A      2.559810  
    1048A      2.572948  1049A      2.572971  1050A      2.574248  
    1051A      2.574703  1052A      2.575199  1053A      2.586206  
    1054A      2.586337  1055A      2.587208  1056A      2.589697  
    1057A      2.591378  1058A      2.605922  1059A      2.623355  
    1060A      2.623413  1061A      2.624850  1062A      2.630571  
    1063A      2.631463  1064A      2.631918  1065A      2.641066  
    1066A      2.641157  1067A      2.642435  1068A      2.648393  
    1069A      2.650762  1070A      2.651173  1071A      2.656584  
    1072A      2.656840  1073A      2.671667  1074A      2.681828  
    1075A      2.683008  1076A      2.683955  1077A      2.686775  
    1078A      2.701866  1079A      2.702282  1080A      2.712987  
    1081A      2.712994  1082A      2.718623  1083A      2.718648  
    1084A      2.722453  1085A      2.722662  1086A      2.734576  
    1087A      2.737080  1088A      2.745760  1089A      2.752103  
    1090A      2.752413  1091A      2.765294  1092A      2.776920  
    1093A      2.794358  1094A      2.794460  1095A      2.801852  
    1096A      2.815159  1097A      2.827074  1098A      2.827476  
    1099A      2.833442  1100A      2.851067  1101A      2.851414  
    1102A      2.855997  1103A      2.858290  1104A      2.859202  
    1105A      2.859446  1106A      2.866839  1107A      2.871964  
    1108A      2.887641  1109A      2.906567  1110A      2.916689  
    1111A      2.916943  1112A      2.921359  1113A      2.923478  
    1114A      2.933480  1115A      2.933547  1116A      2.943855  
    1117A      2.949546  1118A      2.949575  1119A      2.962674  
    1120A      2.968521  1121A      2.991428  1122A      3.003761  
    1123A      3.006298  1124A      3.006663  1125A      3.011848  
    1126A      3.029271  1127A      3.035412  1128A      3.064072  
    1129A      3.064106  1130A      3.070432  1131A      3.070477  
    1132A      3.109301  1133A      3.110120  1134A      3.127265  
    1135A      3.129431  1136A      3.129648  1137A      3.137434  
    1138A      3.138944  1139A      3.146005  1140A      3.146142  
    1141A      3.146219  1142A      3.148862  1143A      3.148865  
    1144A      3.157523  1145A      3.157938  1146A      3.165551  
    1147A      3.166025  1148A      3.191600  1149A      3.211129  
    1150A      3.218238  1151A      3.237228  1152A      3.271815  
    1153A      3.276890  1154A      3.277081  1155A      3.281755  
    1156A      3.281879  1157A      3.283667  1158A      3.302702  
    1159A      3.315422  1160A      3.392876  1161A      3.416155  
    1162A      3.416743  1163A      3.442752  1164A      3.481238  
    1165A      3.483869  1166A      3.521033  1167A      3.548985  
    1168A      3.564707  1169A      3.576969  1170A      3.578946  
    1171A      3.593797  1172A      3.626438  1173A      3.628428  
    1174A      3.642224  1175A      3.662713  1176A      3.667149  
    1177A      3.755014  1178A      3.769203  1179A      3.782607  
    1180A      3.783589  1181A      3.813183  1182A      3.865351  
    1183A      3.870670  1184A      3.870706  1185A      3.913025  
    1186A      3.913141  1187A      3.955840  1188A      3.976885  
    1189A      4.010839  1190A      4.032621  1191A      4.044490  
    1192A      4.080608  1193A      4.202153  1194A      4.205435  
    1195A      4.337231  1196A      4.357219  1197A      4.480719  
    1198A      4.731900  1199A      4.769984  1200A      4.826373  
    1201A      4.843240  1202A      4.932744  1203A      5.046664  
    1204A      5.053567  1205A      5.062910  1206A      5.107564  
    1207A      5.124505  1208A      5.388394  1209A      5.418412  
    1210A      5.729208  1211A      5.749868  1212A      6.064568  
    1213A     18.196085  1214A     18.450360  1215A     18.467686  
    1216A     18.555706  1217A     18.828260  1218A     25.336228  
    1219A     25.372178  

    Final Occupation by Irrep:
              A 
    DOCC [   171 ]
    NA   [   171 ]
    NB   [   171 ]

  @DF-RHF Final Energy: -2055.89161357539115

   => Energetics <=

    Nuclear Repulsion Energy =           6452.5568002797781446
    One-Electron Energy =              -15636.4245179360423208
    Two-Electron Energy =                7127.9761040808725738
    Total Energy =                      -2055.8916135753906929

Computation Completed


Properties will be evaluated at   0.000000,   0.000000,   0.000000 [a0]

Properties computed using the SCF density matrix


 Multipole Moments:

 ------------------------------------------------------------------------------------
     Multipole            Electronic (a.u.)      Nuclear  (a.u.)        Total (a.u.)
 ------------------------------------------------------------------------------------

 L = 1.  Multiply by 2.5417464519 to convert [e a0] to [Debye]
 Dipole X            :          0.0001055           -0.0000085            0.0000970
 Dipole Y            :        117.1649414         -117.1648546            0.0000868
 Dipole Z            :       -739.8294686          739.8299968            0.0005281
 Magnitude           :                                                    0.0005439

 ------------------------------------------------------------------------------------

*** tstop() called on d-3-8-3 at Mon Jan 22 22:50:27 2024
Module time:
	user time   =    2312.02 seconds =      38.53 minutes
	system time =      70.91 seconds =       1.18 minutes
	total time  =        407 seconds =       6.78 minutes
Total time:
	user time   =    7548.35 seconds =     125.81 minutes
	system time =     185.88 seconds =       3.10 minutes
	total time  =       1187 seconds =      19.78 minutes
  Constructing Basis Sets for SAPT...

   => Loading Basis Set <=

    Name: (JUN-CC-PVDZ AUX)
    Role: RIFIT
    Keyword: DF_BASIS_SAPT
    atoms 1-2, 4-5, 10, 17-70 entry C          line   100 file /home/gridsan/tfroembgen/.conda/envs/psi4test/share/psi4/basis/jun-cc-pvdz-ri.gbs 
    atoms 3, 6                entry N          line   144 file /home/gridsan/tfroembgen/.conda/envs/psi4test/share/psi4/basis/jun-cc-pvdz-ri.gbs 
    atoms 7-9, 11-16, 71-88   entry H          line    30 file /home/gridsan/tfroembgen/.conda/envs/psi4test/share/psi4/basis/jun-cc-pvdz-ri.gbs 

   => Loading Basis Set <=

    Name: (JUN-CC-PVDZ AUX)
    Role: JKFIT
    Keyword: DF_BASIS_ELST
    atoms 1-2, 4-5, 10, 17-70 entry C          line   146 file /home/gridsan/tfroembgen/.conda/envs/psi4test/share/psi4/basis/jun-cc-pvdz-jkfit.gbs 
    atoms 3, 6                entry N          line   202 file /home/gridsan/tfroembgen/.conda/envs/psi4test/share/psi4/basis/jun-cc-pvdz-jkfit.gbs 
    atoms 7-9, 11-16, 71-88   entry H          line    70 file /home/gridsan/tfroembgen/.conda/envs/psi4test/share/psi4/basis/jun-cc-pvdz-jkfit.gbs 


  //>>>>>>>>>>>>>>>>>>>>>>>>>>>>>>>>>>>//
  //               SSAPT0              //
  //<<<<<<<<<<<<<<<<<<<<<<<<<<<<<<<<<<<//


*** tstart() called on d-3-8-3
*** at Mon Jan 22 22:50:28 2024

        SAPT0  
    Ed Hohenstein
     6 June 2009

      Orbital Information
  --------------------------
    NSO        =      1233
    NMO        =      1219
    NRI        =      4343
    NRI (Elst) =      5440
    NOCC A     =        26
    NOCC B     =       171
    FOCC A     =         7
    FOCC B     =        54
    NVIR A     =      1193
    NVIR B     =      1048

    Elst10,r            =    -0.005046377184 [Eh]
    Exch10              =    -0.000000056435 [Eh]
    Exch10 (S^2)        =    -0.000000056435 [Eh]

    Iter     Energy [mEh]          dE [mEh]         Residual      Time [s]
       1      -0.00926698       0.009266984       0.907774348           681
       2      -0.00880754      -0.000459440       0.241074038          1082
       3      -0.00970912       0.000901570       0.068469433          1425
       4      -0.00976637       0.000057254       0.031709151          1671
       5      -0.00972419      -0.000042181       0.009914235          1831
       6      -0.00972314      -0.000001051       0.002969974          2076
       7      -0.00972578       0.000002642       0.000991615          2276
       8      -0.00972642       0.000000638       0.000242846          2465
       9      -0.00972632      -0.000000095       0.000086475          2501
      10      -0.00972626      -0.000000063       0.000022632          2700
      11      -0.00972626       0.000000004       0.000006360          2984
      12      -0.00972627       0.000000003       0.000002162          3469
      13      -0.00972627       0.000000000       0.000000716          4060

    CHF Iterations converged


    Iter     Energy [mEh]          dE [mEh]         Residual      Time [s]
       1      -1.59221193       1.592211931      20.481196817           283
       2      -1.09771123      -0.494500705       2.499862422           538
       3      -1.10290033       0.005189108       0.986628400           603
       4      -1.13017812       0.027277784       0.241937018           679
       5      -1.13150523       0.001327110       0.082751972           717
       6      -1.13067160      -0.000833626       0.045765690           740
       7      -1.13045303      -0.000218577       0.022567516           772
       8      -1.13063279       0.000179769       0.013946112           796
       9      -1.13068843       0.000055633       0.008797094           815
      10      -1.13065077      -0.000037653       0.005946785           843
      11      -1.13062963      -0.000021141       0.002619443           871
      12      -1.13063629       0.000006661       0.001086090           906
      13      -1.13064002       0.000003725       0.000409522           951
      14      -1.13063966      -0.000000360       0.000186868           976
      15      -1.13063895      -0.000000708       0.000094270          1011
      16      -1.13063884      -0.000000111       0.000044328          1072
      17      -1.13063904       0.000000203       0.000019356          1093
      18      -1.13063906       0.000000012       0.000009578          1112
      19      -1.13063903      -0.000000028       0.000005032          1134
      20      -1.13063902      -0.000000007       0.000001786          1240
      21      -1.13063903       0.000000004       0.000000833          1292

    CHF Iterations converged

    Ind20,r (A<-B)      =    -0.000009726267 [Eh]
    Ind20,r (B<-A)      =    -0.001130639026 [Eh]
    Ind20,r             =    -0.001140365292 [Eh]
    Exch-Ind20,r (A<-B) =     0.000000003615 [Eh]
    Exch-Ind20,r (B<-A) =     0.000000015021 [Eh]
    Exch-Ind20,r        =     0.000000018636 [Eh]
    Disp20              =    -0.000410265649 [Eh]
    Disp20 (SS)         =    -0.000205132824 [Eh]
    Disp20 (OS)         =    -0.000205132824 [Eh]
    Exch-Disp20         =     0.000000008714 [Eh]
    Exch-Disp20 (SS)    =     0.000000006339 [Eh]
    Exch-Disp20 (OS)    =     0.000000002376 [Eh]

    SAPT Results 
  --------------------------------------------------------------------------------------------------------
    Electrostatics                 -5.04637718 [mEh]      -3.16664949 [kcal/mol]     -13.24926147 [kJ/mol]
      Elst10,r                     -5.04637718 [mEh]      -3.16664949 [kcal/mol]     -13.24926147 [kJ/mol]

    Exchange                       -0.00005644 [mEh]      -0.00003541 [kcal/mol]      -0.00014817 [kJ/mol]
      Exch10                       -0.00005644 [mEh]      -0.00003541 [kcal/mol]      -0.00014817 [kJ/mol]
      Exch10(S^2)                  -0.00005644 [mEh]      -0.00003541 [kcal/mol]      -0.00014817 [kJ/mol]

    Induction                      -1.15184453 [mEh]      -0.72279336 [kcal/mol]      -3.02416740 [kJ/mol]
      Ind20,r                      -1.14036529 [mEh]      -0.71559002 [kcal/mol]      -2.99402866 [kJ/mol]
      Exch-Ind20,r                  0.00001864 [mEh]       0.00001169 [kcal/mol]       0.00004893 [kJ/mol]
      delta HF,r (2)               -0.01149787 [mEh]      -0.00721503 [kcal/mol]      -0.03018767 [kJ/mol]

    Dispersion                     -0.41025693 [mEh]      -0.25744011 [kcal/mol]      -1.07712943 [kJ/mol]
      Disp20                       -0.41026565 [mEh]      -0.25744558 [kcal/mol]      -1.07715231 [kJ/mol]
      Exch-Disp20                   0.00000871 [mEh]       0.00000547 [kcal/mol]       0.00002288 [kJ/mol]
      Disp20 (SS)                  -0.20513282 [mEh]      -0.12872279 [kcal/mol]      -0.53857616 [kJ/mol]
      Disp20 (OS)                  -0.20513282 [mEh]      -0.12872279 [kcal/mol]      -0.53857616 [kJ/mol]
      Exch-Disp20 (SS)              0.00000634 [mEh]       0.00000398 [kcal/mol]       0.00001664 [kJ/mol]
      Exch-Disp20 (OS)              0.00000238 [mEh]       0.00000149 [kcal/mol]       0.00000624 [kJ/mol]

  Total HF                         -6.19827815 [mEh]      -3.88947826 [kcal/mol]     -16.27357704 [kJ/mol]
  Total SAPT0                      -6.60853508 [mEh]      -4.14691837 [kcal/mol]     -17.35070647 [kJ/mol]

  Special recipe for scaled SAPT0 (see Manual):
    Electrostatics sSAPT0          -5.04637718 [mEh]      -3.16664949 [kcal/mol]     -13.24926147 [kJ/mol]
    Exchange sSAPT0                -0.00005644 [mEh]      -0.00003541 [kcal/mol]      -0.00014817 [kJ/mol]
    Induction sSAPT0               -1.15184453 [mEh]      -0.72279336 [kcal/mol]      -3.02416740 [kJ/mol]
    Dispersion sSAPT0              -0.41025693 [mEh]      -0.25744011 [kcal/mol]      -1.07712943 [kJ/mol]
  Total sSAPT0                     -6.60853508 [mEh]      -4.14691837 [kcal/mol]     -17.35070647 [kJ/mol]
  --------------------------------------------------------------------------------------------------------

*** tstop() called on d-3-8-3 at Tue Jan 23 01:11:11 2024
Module time:
	user time   =    7808.29 seconds =     130.14 minutes
	system time =    1090.22 seconds =      18.17 minutes
	total time  =       8443 seconds =     140.72 minutes
Total time:
	user time   =   15357.51 seconds =     255.96 minutes
	system time =    1276.12 seconds =      21.27 minutes
	total time  =       9631 seconds =     160.52 minutes

    Psi4 stopped on: Tuesday, 23 January 2024 01:11AM
    Psi4 wall time for execution: 2:40:32.95

*** Psi4 exiting successfully. Buy a developer a beer!
