
    -----------------------------------------------------------------------
          Psi4: An Open-Source Ab Initio Electronic Structure Package
                               Psi4 1.9 release

                         Git: Rev {} zzzzzzz 


    D. G. A. Smith, L. A. Burns, A. C. Simmonett, R. M. Parrish,
    M. C. Schieber, R. Galvelis, P. Kraus, H. Kruse, R. Di Remigio,
    A. Alenaizan, A. M. James, S. Lehtola, J. P. Misiewicz, M. Scheurer,
    R. A. Shaw, J. B. Schriber, Y. Xie, Z. L. Glick, D. A. Sirianni,
    J. S. O'Brien, J. M. Waldrop, A. Kumar, E. G. Hohenstein,
    B. P. Pritchard, B. R. Brooks, H. F. Schaefer III, A. Yu. Sokolov,
    K. Patkowski, A. E. DePrince III, U. Bozkaya, R. A. King,
    F. A. Evangelista, J. M. Turney, T. D. Crawford, C. D. Sherrill,
    J. Chem. Phys. 152(18) 184108 (2020). https://doi.org/10.1063/5.0006002

                            Additional Code Authors
    E. T. Seidl, C. L. Janssen, E. F. Valeev, M. L. Leininger,
    J. F. Gonthier, R. M. Richard, H. R. McAlexander, M. Saitow, X. Wang,
    P. Verma, M. H. Lechner, A. Jiang, S. Behnle, A. G. Heide,
    M. F. Herbst, and D. L. Poole

             Previous Authors, Complete List of Code Contributors,
                       and Citations for Specific Modules
    https://github.com/psi4/psi4/blob/master/codemeta.json
    https://github.com/psi4/psi4/graphs/contributors
    http://psicode.org/psi4manual/master/introduction.html#citing-psifour

    -----------------------------------------------------------------------


    Psi4 started on: Friday, 26 January 2024 11:20PM

    Process ID: 518242
    Host:       n2cn0412
    PSIDATADIR: /opt/software/pc2/EB-SW/software/PSI4/1.9-foss-2022a/share/psi4
    Memory:     500.0 MiB
    Threads:    16
    
  ==> Input File <==

--------------------------------------------------------------------------
memory 64 GB # how much memory is available ! Depends on the nodes/cores !

molecule dimer {
# monomer A
+1 1    # Charge and multiplicity
C  0.680067 -1.215929 2.208042
C -0.680504 -1.215545 2.206014
N -1.085635  0.102779 2.205016
C  0.000108  0.884180 2.201740
C -2.477365  0.570758 2.155610
N  1.085222  0.102779 2.205016
H  1.385146 -2.033368 2.215870
H -1.385302 -2.033214 2.206204
H -0.000009  1.965269 2.199993
C  2.478117  0.567877 2.221908
H  2.490592  1.658130 2.194563
H  2.967028  0.220701 3.135354
H  3.001428  0.176405 1.346425
H -2.857359  0.490799 1.133539
H -3.082679 -0.042306 2.825694
H -2.518128  1.610706 2.482594
--
# monomer B
0 1     # Charge and multiplicity
C   -3.66844126402057      7.80375217008252      0.00190004133558
C   -4.84759871934653      7.13124183134024     -0.00046653359696
C   -4.89495929917518      5.69633040353158     -0.00103944469517
C   -3.65374067877320      4.98073034095895      0.00662099703436
C   -2.40942512149445      7.11398103667468      0.00209438359570
C   -2.42547734410473      5.68112195090346     -0.00491050527438
C   -1.19474401643570      7.78614419430947      0.00356656413763
C   0.03795902893699      7.09942164575698      0.00139585983271
C   0.03033258741920      5.66948955970466     -0.00408752508301
C   -1.20098450790502      4.96927034791531      0.00488220885047
C   1.27795782581485      7.77285944319479      0.00277170839332
C   2.48535808472416      7.08769688523756      0.00049722048857
C   2.48612868491717      5.65477081024076     -0.00644052849921
C   1.25408291964399      4.95607811366431      0.00518741308898
C   3.75171459140595      7.76391215098033      0.00062407186893
C   4.92356605618520      7.07878077698995     -0.00143240883900
C   4.95560727132542      5.64344746336949     -0.00159282164606
C   3.70680153420475      4.94121020833308      0.00349873852374
H   -3.65852113775815      8.89082741913536      0.00358502958574
H   -1.18921332975660      8.87412108735996      0.00753844057883
H   1.28429423888630      8.86083343548850      0.00693053253426
H   3.75354208679975      8.85103527897216      0.00214659618464
H   5.86995870320703      7.61379483465560     -0.00235777588134
H   -5.78823170750226      7.67630221293400     -0.00202638095293
C   -6.09197395869619      4.99326001364347     -0.00291168518608
C   -6.12866148031747      3.58258016879823     -0.00171050815740
C   -3.66457974004527      3.56418217974434     -0.00463560277484
C   -4.89429820469869      2.86108077590057      0.00453338221034
C   -2.43733499489796      2.84761165708481      0.00719617576166
C   -1.20922785759670      3.54788693497833     -0.00648285103018
C   1.24714157216223      3.53468075142962     -0.00729145743546
C   0.01517603956900      2.83311183930540      0.00439272578912
C   2.46764517244071      2.82128997725533      0.00449278391269
C   3.70254947457969      3.52466015442405     -0.00899517692985
C   6.14498038638375      4.92757236613191     -0.00282626685777
C   6.16658835886151      3.51658447594213     -0.00065971342101
C   4.92460995845939      2.80840792535402      0.00587903281610
H   7.08990550964105      5.46688776622306     -0.00658814770723
H   -7.03104175110130      5.54268795285765     -0.00714490013730
C   -7.33969804112295      2.85841153457957     -0.00333767559888
C   -7.36488195805880      1.47032337158330     -0.00157213747140
C   -4.90350460894690      1.44442681216000     -0.00628840166334
C   -6.13225715261081      0.73993935705394      0.00600164231964
C   -3.67687480051673      0.72669714267312      0.00433931473643
C   -2.44565658606518      1.42964113326212     -0.00597039546461
C   -1.22360068130162      0.71532450163492      0.00545886906656
C   0.00763786931376      1.41738314923765      0.00392452278437
C   1.23121980774686      0.70211669058719     -0.01490206287210
C   2.46082110053113      1.40329203612573      0.00460244601878
C   3.68443025419614      0.68719842821222      0.00377365974158
C   4.91870890153864      1.39173456118907     -0.00862816189375
C   7.36980207796101      2.77948220318441     -0.00242013321349
C   7.38016266612146      1.39121750785509     -0.00087345036788
C   6.13979953912259      0.67411862320065      0.00545489144369
H   -8.27919079934664      3.40711804112415     -0.00763522772059
H   8.31511347147953      3.31811809662368     -0.00663070901292
C   -8.59175593758115      0.72483255304480     -0.00123170985383
C   -8.59902460370342     -0.63263980622873      0.00089141472904
C   -6.13981313911873     -0.67413663715361     -0.00609792660607
C   -7.38018411213749     -1.39126618958160      0.00131813493501
C   -4.91868448025621     -1.39175501803000      0.00624257154343
C   -3.68443829568458     -0.68723731573599     -0.00478966852105
C   -2.46081704024768     -1.40334517882457      0.00575341766833
C   -1.23116201232071     -0.70217386488055     -0.00636696112346
C   -0.00756962538737     -1.41741884941102      0.00108956317991
C   1.22364771588843     -0.71527537726392      0.01109518512883
C   2.44567064933149     -1.42964328900682     -0.00065482763106
C   3.67686670284649     -0.72670743155550     -0.00479541202602
C   6.13224884641929     -0.73997883984993     -0.00632338623858
C   4.90351914550401     -1.44445752054090      0.00751768830159
C   8.59901484869081      0.63260386666793     -0.00101133422380
C   8.59174548810050     -0.72485086719319      0.00072504603735
C   7.36486276438985     -1.47033266560598      0.00049486934466
H   -9.52830597181814      1.27684744919284     -0.00270163681798
H   9.54141097460619      1.17457248844457     -0.00206336648518
C   -7.36983790976868     -2.77954514593389      0.00312634335708
C   -4.92459910905015     -2.80843725734101     -0.00460528907921
C   -6.16662249566744     -3.51665219282533      0.00169655107992
C   -3.70251035970491     -3.52468154912026      0.00571878010666
C   -2.46764698511392     -2.82132596280400     -0.00632585824990
C   -0.01513347410770     -2.83314164539971     -0.00604426974092
C   -1.24712184122656     -3.53473217556300      0.00551968366725
C   1.20924506964357     -3.54791467864352      0.00805871345849
C   2.43733602215464     -2.84764173817541     -0.00608104485234
C   4.89430234377080     -2.86112296828604     -0.00526030478103
C   3.66461525504104     -3.56421984553201      0.00761911515957
C   6.12863901474565     -3.58258405771778      0.00096495711699
C   7.33967266469532     -2.85841330737039      0.00248018319869
H   -9.54144911125902     -1.17456346666430      0.00226083090216
H   9.52826186807155     -1.27691907390448      0.00197485379837
H   -8.31516504384864     -3.31814985321231      0.00729857188773
H   8.27915514249207     -3.40714078989363      0.00681973918158
C   -6.14499418870218     -4.92764727278338      0.00302254913999
C   -3.70678334799751     -4.94126171411716     -0.00679841894792
C   -4.95559005800169     -5.64349397349412      0.00116871569699
C   -2.48612132622665     -5.65478557440947      0.00614125209662
C   -1.25405833548005     -4.95612205000132     -0.00503435388927
C   1.20101257386816     -4.96928038819302     -0.00385322963129
C   -0.03033667441341     -5.66952030313900      0.00398997003238
C   3.65375010132847     -4.98074377541453     -0.00309522988330
C   2.42549269587528     -5.68117463552727      0.00628170066869
C   6.09196561781097     -4.99325796338655      0.00325918379042
C   4.89497644461045     -5.69634842095790      0.00202298796027
H   -7.08989238804069     -5.46699984223871      0.00742531082125
H   7.03105520920009     -5.54265853633254      0.00683896355417
C   -4.92354532219813     -7.07882109967734      0.00061394679214
C   -2.48534208823777     -7.08772807792913     -0.00189594564379
C   -3.75168589177895     -7.76394715763627     -0.00170126671874
C   -0.03794895698805     -7.09946487446944     -0.00168022049625
C   -1.27795610040136     -7.77290438466689     -0.00366491325785
C   2.40944432072629     -7.11402201200282     -0.00081701968533
C   1.19474993715296     -7.78618536556242     -0.00296931056689
C   4.84762105249800     -7.13126211057943      0.00168979497423
C   3.66847160587561     -7.80378799294376     -0.00065863938960
H   -5.86994035041618     -7.61383059804164      0.00215798365757
H   5.78824962538815     -7.67633218931421      0.00281691445618
H   -3.75352693944918     -8.85107156923607     -0.00353718114765
H   -1.28430440589466     -8.86087539249706     -0.00809229711623
H   1.18922157469537     -8.87416062058945     -0.00706194725726
H   3.65854661482387     -8.89086063405326     -0.00231318081200

    units angstrom      # Angstroms are the default
    no_reorient         # Geometry fixed, default
    symmetry c1         # C1 symmetry, default
}

set {
    scf_type DF         # Density fitting, faster than exact integrals
    freeze_core True    # Freeze core electrons
    basis jun-cc-pVDZ   # Jun-cc-pVDZ basis set, recommended for sSAPT0 in https://doi.org/10.1063/1.4867135
}

energy('ssapt0')        # Compute sSAPT0 energy, includes also SAPT0
--------------------------------------------------------------------------

  Memory set to  59.605 GiB by Python driver.

Scratch directory: /tmp/
   => Loading Basis Set <=

    Name: JUN-CC-PVDZ
    Role: ORBITAL
    Keyword: BASIS
    atoms 1-2, 4-5, 10, 17-34, 41-53, 56-70, 73-89, 92-104, 109-119, 122-130 entry C          line   164 file /opt/software/pc2/EB-SW/software/PSI4/1.9-foss-2022a/share/psi4/basis/jun-cc-pvdz.gbs 
    atoms 3, 6                                                               entry N          line   198 file /opt/software/pc2/EB-SW/software/PSI4/1.9-foss-2022a/share/psi4/basis/jun-cc-pvdz.gbs 
    atoms 7-9, 11-16, 35-40, 54-55, 71-72, 90-91, 105-108, 120-121, 131-136  entry H          line    36 file /opt/software/pc2/EB-SW/software/PSI4/1.9-foss-2022a/share/psi4/basis/jun-cc-pvdz.gbs 

   => Loading Basis Set <=

    Name: JUN-CC-PVDZ
    Role: ORBITAL
    Keyword: BASIS
    atoms 1-2, 4-5, 10, 17-34, 41-53, 56-70, 73-89, 92-104, 109-119, 122-130 entry C          line   164 file /opt/software/pc2/EB-SW/software/PSI4/1.9-foss-2022a/share/psi4/basis/jun-cc-pvdz.gbs 
    atoms 3, 6                                                               entry N          line   198 file /opt/software/pc2/EB-SW/software/PSI4/1.9-foss-2022a/share/psi4/basis/jun-cc-pvdz.gbs 
    atoms 7-9, 11-16, 35-40, 54-55, 71-72, 90-91, 105-108, 120-121, 131-136  entry H          line    36 file /opt/software/pc2/EB-SW/software/PSI4/1.9-foss-2022a/share/psi4/basis/jun-cc-pvdz.gbs 


  //>>>>>>>>>>>>>>>>>>>>>>>>>>>>>>>>>>>//
  //              Dimer HF             //
  //<<<<<<<<<<<<<<<<<<<<<<<<<<<<<<<<<<<//

   => Libint2 <=

    Primary   basis highest AM E, G, H:  5, 4, 3
    Auxiliary basis highest AM E, G, H:  6, 5, 4
    Onebody   basis highest AM E, G, H:  6, 5, 4
    Solid Harmonics ordering:            gaussian

*** tstart() called on n2cn0412
*** at Fri Jan 26 23:20:41 2024

   => Loading Basis Set <=

    Name: JUN-CC-PVDZ
    Role: ORBITAL
    Keyword: BASIS
    atoms 1-2, 4-5, 10, 17-34, 41-53, 56-70, 73-89, 92-104, 109-119, 122-130 entry C          line   164 file /opt/software/pc2/EB-SW/software/PSI4/1.9-foss-2022a/share/psi4/basis/jun-cc-pvdz.gbs 
    atoms 3, 6                                                               entry N          line   198 file /opt/software/pc2/EB-SW/software/PSI4/1.9-foss-2022a/share/psi4/basis/jun-cc-pvdz.gbs 
    atoms 7-9, 11-16, 35-40, 54-55, 71-72, 90-91, 105-108, 120-121, 131-136  entry H          line    36 file /opt/software/pc2/EB-SW/software/PSI4/1.9-foss-2022a/share/psi4/basis/jun-cc-pvdz.gbs 


         ---------------------------------------------------------
                                   SCF
               by Justin Turney, Rob Parrish, Andy Simmonett
                          and Daniel G. A. Smith
                              RHF Reference
                       16 Threads,  61035 MiB Core
         ---------------------------------------------------------

  ==> Geometry <==

    Molecular point group: c1
    Full point group: C1

    Geometry (in Angstrom), charge = 1, multiplicity = 1:

       Center              X                  Y                   Z               Mass       
    ------------   -----------------  -----------------  -----------------  -----------------
         C            0.680062820275    -1.215917226251     2.040305882660    12.000000000000
         C           -0.680508179725    -1.215533226251     2.038277882660    12.000000000000
         N           -1.085639179725     0.102790773749     2.037279882660    14.003074004430
         C            0.000103820275     0.884191773749     2.034003882660    12.000000000000
         C           -2.477369179725     0.570769773749     1.987873882660    12.000000000000
         N            1.085217820275     0.102790773749     2.037279882660    14.003074004430
         H            1.385141820275    -2.033356226251     2.048133882660     1.007825032230
         H           -1.385306179725    -2.033202226251     2.038467882660     1.007825032230
         H           -0.000013179725     1.965280773749     2.032256882660     1.007825032230
         C            2.478112820275     0.567888773749     2.054171882660    12.000000000000
         H            2.490587820275     1.658141773750     2.026826882660     1.007825032230
         H            2.967023820275     0.220712773749     2.967617882660     1.007825032230
         H            3.001423820275     0.176416773749     1.178688882660     1.007825032230
         H           -2.857363179725     0.490810773749     0.965802882660     1.007825032230
         H           -3.082683179725    -0.042294226251     2.657957882660     1.007825032230
         H           -2.518132179725     1.610717773749     2.314857882660     1.007825032230
         C           -3.668445443746     7.803763943832    -0.165836076005    12.000000000000
         C           -4.847602899072     7.131253605090    -0.168202650937    12.000000000000
         C           -4.894963478901     5.696342177281    -0.168775562036    12.000000000000
         C           -3.653744858499     4.980742114708    -0.161115120306    12.000000000000
         C           -2.409429301220     7.113992810424    -0.165641733745    12.000000000000
         C           -2.425481523830     5.681133724653    -0.172646622615    12.000000000000
         C           -1.194748196161     7.786155968059    -0.164169553203    12.000000000000
         C            0.037954849212     7.099433419506    -0.166340257508    12.000000000000
         C            0.030328407694     5.669501333454    -0.171823642423    12.000000000000
         C           -1.200988687630     4.969282121665    -0.162853908490    12.000000000000
         C            1.277953646089     7.772871216944    -0.164964408947    12.000000000000
         C            2.485353904999     7.087708658987    -0.167238896852    12.000000000000
         C            2.486124505192     5.654782583990    -0.174176645840    12.000000000000
         C            1.254078739919     4.956089887414    -0.162548704251    12.000000000000
         C            3.751710411681     7.763923924730    -0.167112045471    12.000000000000
         C            4.923561876460     7.078792550739    -0.169168526179    12.000000000000
         C            4.955603091600     5.643459237119    -0.169328938986    12.000000000000
         C            3.706797354479     4.941221982083    -0.164237378817    12.000000000000
         H           -3.658525317484     8.890839192885    -0.164151087755     1.007825032230
         H           -1.189217509482     8.874132861109    -0.160197676762     1.007825032230
         H            1.284290059161     8.860845209238    -0.160805584806     1.007825032230
         H            3.753537907074     8.851047052722    -0.165589521156     1.007825032230
         H            5.869954523482     7.613806608405    -0.170093893222     1.007825032230
         H           -5.788235887228     7.676313986684    -0.169762498293     1.007825032230
         C           -6.091978138422     4.993271787393    -0.170647802526    12.000000000000
         C           -6.128665660043     3.582591942548    -0.169446625498    12.000000000000
         C           -3.664583919771     3.564193953494    -0.172371720115    12.000000000000
         C           -4.894302384424     2.861092549650    -0.163202735130    12.000000000000
         C           -2.437339174623     2.847623430834    -0.160539941579    12.000000000000
         C           -1.209232037322     3.547898708728    -0.174218968371    12.000000000000
         C            1.247137392437     3.534692525179    -0.175027574776    12.000000000000
         C            0.015171859844     2.833123613055    -0.163343391551    12.000000000000
         C            2.467640992715     2.821301751005    -0.163243333428    12.000000000000
         C            3.702545294854     3.524671928174    -0.176731294270    12.000000000000
         C            6.144976206658     4.927584139881    -0.170562384198    12.000000000000
         C            6.166584179136     3.516596249692    -0.168395830761    12.000000000000
         C            4.924605778734     2.808419699104    -0.161857084524    12.000000000000
         H            7.089901329916     5.466899539973    -0.174324265048     1.007825032230
         H           -7.031045930827     5.542699726607    -0.174881017478     1.007825032230
         C           -7.339702220848     2.858423308329    -0.171073792939    12.000000000000
         C           -7.364886137784     1.470335145333    -0.169308254812    12.000000000000
         C           -4.903508788672     1.444438585909    -0.174024519004    12.000000000000
         C           -6.132261332336     0.739951130803    -0.161734475021    12.000000000000
         C           -3.676878980242     0.726708916423    -0.163396802604    12.000000000000
         C           -2.445660765791     1.429652907012    -0.173706512805    12.000000000000
         C           -1.223604861027     0.715336275384    -0.162277248274    12.000000000000
         C            0.007633689588     1.417394922987    -0.163811594556    12.000000000000
         C            1.231215628021     0.702128464337    -0.182638180212    12.000000000000
         C            2.460816920806     1.403303809875    -0.163133671322    12.000000000000
         C            3.684426074471     0.687210201962    -0.163962457599    12.000000000000
         C            4.918704721813     1.391746334939    -0.176364279234    12.000000000000
         C            7.369797898236     2.779493976934    -0.170156250554    12.000000000000
         C            7.380158486396     1.391229281605    -0.168609567708    12.000000000000
         C            6.139795359397     0.674130396950    -0.162281225897    12.000000000000
         H           -8.279194979072     3.407129814874    -0.175371345061     1.007825032230
         H            8.315109291754     3.318129870373    -0.174366826353     1.007825032230
         C           -8.591760117307     0.724844326794    -0.168967827194    12.000000000000
         C           -8.599028783429    -0.632628032479    -0.166844702611    12.000000000000
         C           -6.139817318844    -0.674124863404    -0.173834043946    12.000000000000
         C           -7.380188291863    -1.391254415832    -0.166417982405    12.000000000000
         C           -4.918688659982    -1.391743244281    -0.161493545797    12.000000000000
         C           -3.684442475410    -0.687225541986    -0.172525785861    12.000000000000
         C           -2.460821219973    -1.403333405075    -0.161982699672    12.000000000000
         C           -1.231166192046    -0.702162091131    -0.174103078464    12.000000000000
         C           -0.007573805113    -1.417407075662    -0.166646554160    12.000000000000
         C            1.223643536163    -0.715263603514    -0.156640932212    12.000000000000
         C            2.445666469606    -1.429631515257    -0.168390944971    12.000000000000
         C            3.676862523121    -0.726695657806    -0.172531529366    12.000000000000
         C            6.132244666694    -0.739967066100    -0.174059503579    12.000000000000
         C            4.903514965779    -1.444445746791    -0.160218429039    12.000000000000
         C            8.599010668965     0.632615640417    -0.168747451564    12.000000000000
         C            8.591741308375    -0.724839093444    -0.167011071303    12.000000000000
         C            7.364858584664    -1.470320891856    -0.167241247996    12.000000000000
         H           -9.528310151544     1.276859222942    -0.170437754158     1.007825032230
         H            9.541406794881     1.174584262194    -0.169799483826     1.007825032230
         C           -7.369842089494    -2.779533372184    -0.164609773983    12.000000000000
         C           -4.924603288776    -2.808425483592    -0.172341406420    12.000000000000
         C           -6.166626675393    -3.516640419076    -0.166039566260    12.000000000000
         C           -3.702514539430    -3.524669775371    -0.162017337234    12.000000000000
         C           -2.467651164839    -2.821314189055    -0.174061975590    12.000000000000
         C           -0.015137653833    -2.833129871650    -0.173780387081    12.000000000000
         C           -1.247126020952    -3.534720401814    -0.162216433673    12.000000000000
         C            1.209240889918    -3.547902904894    -0.159677403882    12.000000000000
         C            2.437331842429    -2.847629964426    -0.173817162193    12.000000000000
         C            4.894298164045    -2.861111194537    -0.172996422121    12.000000000000
         C            3.664611075316    -3.564208071783    -0.160117002181    12.000000000000
         C            6.128634835020    -3.582572283968    -0.166771160223    12.000000000000
         C            7.339668484970    -2.858401533621    -0.165255934142    12.000000000000
         H           -9.541453290984    -1.174551692915    -0.165475286438     1.007825032230
         H            9.528257688346    -1.276907300155    -0.165761263542     1.007825032230
         H           -8.315169223574    -3.318138079463    -0.160437545453     1.007825032230
         H            8.279150962767    -3.407129016144    -0.160916378159     1.007825032230
         C           -6.144998368428    -4.927635499034    -0.164713568200    12.000000000000
         C           -3.706787527723    -4.941249940368    -0.174534536288    12.000000000000
         C           -4.955594237727    -5.643482199745    -0.166567401643    12.000000000000
         C           -2.486125505952    -5.654773800660    -0.161594865244    12.000000000000
         C           -1.254062515205    -4.956110276252    -0.172770471230    12.000000000000
         C            1.201008394143    -4.969268614444    -0.171589346972    12.000000000000
         C           -0.030340854139    -5.669508529390    -0.163746147308    12.000000000000
         C            3.653745921603    -4.980732001665    -0.170831347224    12.000000000000
         C            2.425488516150    -5.681162861778    -0.161454416672    12.000000000000
         C            6.091961438086    -4.993246189637    -0.164476933550    12.000000000000
         C            4.894972264885    -5.696336647208    -0.165713129380    12.000000000000
         H           -7.089896567766    -5.466988068489    -0.160310806519     1.007825032230
         H            7.031051029475    -5.542646762583    -0.160897153786     1.007825032230
         C           -4.923549501924    -7.078809325928    -0.167122170548    12.000000000000
         C           -2.485346267963    -7.087716304180    -0.169632062984    12.000000000000
         C           -3.751690071504    -7.763935383887    -0.169437384059    12.000000000000
         C           -0.037953136713    -7.099453100720    -0.169416337837    12.000000000000
         C           -1.277960280127    -7.772892610917    -0.171401030598    12.000000000000
         C            2.409440141001    -7.114010238253    -0.168553137026    12.000000000000
         C            1.194745757428    -7.786173591813    -0.170705427907    12.000000000000
         C            4.847616872773    -7.131250336830    -0.166046322366    12.000000000000
         C            3.668467426150    -7.803776219194    -0.168394756730    12.000000000000
         H           -5.869944530142    -7.613818824292    -0.165578133683     1.007825032230
         H            5.788245445663    -7.676320415565    -0.164919202884     1.007825032230
         H           -3.753531119175    -8.851059795487    -0.171273298488     1.007825032230
         H           -1.284308585620    -8.860863618748    -0.175828414457     1.007825032230
         H            1.189217394970    -8.874148846840    -0.174798064598     1.007825032230
         H            3.658542435098    -8.890848860304    -0.170049298152     1.007825032230

  Running in c1 symmetry.

  Rotational constants: A =      0.00069  B =      0.00069  C =      0.00035 [cm^-1]
  Rotational constants: A =     20.70489  B =     20.56283  C =     10.50436 [MHz]
  Nuclear repulsion = 18789.950448674153449

  Charge       = 1
  Multiplicity = 1
  Electrons    = 652
  Nalpha       = 326
  Nbeta        = 326

  ==> Algorithm <==

  SCF Algorithm Type is DF.
  DIIS enabled.
  MOM disabled.
  Fractional occupation disabled.
  Guess Type is SAD.
  Energy threshold   = 1.00e-08
  Density threshold  = 1.00e-08
  Integral threshold = 1.00e-12

  ==> Primary Basis <==

  Basis Set: JUN-CC-PVDZ
    Blend: JUN-CC-PVDZ
    Number of shells: 923
    Number of basis functions: 2019
    Number of Cartesian functions: 2122
    Spherical Harmonics?: true
    Max angular momentum: 2

   => Loading Basis Set <=

    Name: (JUN-CC-PVDZ AUX)
    Role: JKFIT
    Keyword: DF_BASIS_SCF
    atoms 1-2, 4-5, 10, 17-34, 41-53, 56-70, 73-89, 92-104, 109-119, 122-130 entry C          line   146 file /opt/software/pc2/EB-SW/software/PSI4/1.9-foss-2022a/share/psi4/basis/jun-cc-pvdz-jkfit.gbs 
    atoms 3, 6                                                               entry N          line   202 file /opt/software/pc2/EB-SW/software/PSI4/1.9-foss-2022a/share/psi4/basis/jun-cc-pvdz-jkfit.gbs 
    atoms 7-9, 11-16, 35-40, 54-55, 71-72, 90-91, 105-108, 120-121, 131-136  entry H          line    70 file /opt/software/pc2/EB-SW/software/PSI4/1.9-foss-2022a/share/psi4/basis/jun-cc-pvdz-jkfit.gbs 

  ==> Integral Setup <==

  ==> DiskDFJK: Density-Fitted J/K Matrices <==

    J tasked:                  Yes
    K tasked:                  Yes
    wK tasked:                  No
    OpenMP threads:             16
    Integrals threads:          16
    Memory [MiB]:            45776
    Algorithm:                Disk
    Integral Cache:           SAVE
    Schwarz Cutoff:          1E-12
    Fitting Condition:       1E-10

   => Auxiliary Basis Set <=

  Basis Set: (JUN-CC-PVDZ AUX)
    Blend: JUN-CC-PVDZ-JKFIT
    Number of shells: 3078
    Number of basis functions: 8896
    Number of Cartesian functions: 10198
    Spherical Harmonics?: true
    Max angular momentum: 3

  Minimum eigenvalue in the overlap matrix is 3.3709740561E-11.
  Reciprocal condition number of the overlap matrix is 1.1614897024E-12.
    Using canonical orthogonalization.
  Overall, 41 of 2019 possible MOs eliminated.


  ==> Pre-Iterations <==

  SCF Guess: Superposition of Atomic Densities via on-the-fly atomic UHF (no occupation information).

   -------------------------
    Irrep   Nso     Nmo    
   -------------------------
     A       2019    1978 
   -------------------------
    Total    2019    1978
   -------------------------

  ==> Iterations <==

                           Total Energy        Delta E     RMS |[F,P]|

   @DF-RHF iter SAD: -3971.77209919935058   -3.97177e+03   0.00000e+00 
   @DF-RHF iter   1: -3951.58862908070569    2.01835e+01   7.27102e-04 DIIS/ADIIS
   @DF-RHF iter   2: -3953.01495225301551   -1.42632e+00   2.47012e-04 DIIS/ADIIS
   @DF-RHF iter   3: -3953.14761256217844   -1.32660e-01   1.13853e-04 DIIS/ADIIS
   @DF-RHF iter   4: -3953.17327669444740   -2.56641e-02   5.86516e-05 DIIS
   @DF-RHF iter   5: -3953.18057019485786   -7.29350e-03   1.75593e-05 DIIS
   @DF-RHF iter   6: -3953.18141685431237   -8.46659e-04   5.75363e-06 DIIS
   @DF-RHF iter   7: -3953.18163074972654   -2.13895e-04   2.55202e-06 DIIS
   @DF-RHF iter   8: -3953.18169929045416   -6.85407e-05   1.35329e-06 DIIS
   @DF-RHF iter   9: -3953.18172159333062   -2.23029e-05   6.80771e-07 DIIS
   @DF-RHF iter  10: -3953.18172525145746   -3.65813e-06   2.81651e-07 DIIS
   @DF-RHF iter  11: -3953.18172596836393   -7.16906e-07   1.32416e-07 DIIS
   @DF-RHF iter  12: -3953.18172613746083   -1.69097e-07   7.62418e-08 DIIS
   @DF-RHF iter  13: -3953.18172622197790   -8.45171e-08   4.63837e-08 DIIS
   @DF-RHF iter  14: -3953.18172625285888   -3.08810e-08   3.27472e-08 DIIS
   @DF-RHF iter  15: -3953.18172627359854   -2.07397e-08   2.23004e-08 DIIS
   @DF-RHF iter  16: -3953.18172628557568   -1.19771e-08   1.38669e-08 DIIS
   @DF-RHF iter  17: -3953.18172628917955   -3.60387e-09   8.84235e-09 DIIS
  Energy and wave function converged.


  ==> Post-Iterations <==

    Orbital Energies [Eh]
    ---------------------

    Doubly Occupied:                                                      

       1A    -15.747229     2A    -15.747158     3A    -11.464457  
       4A    -11.382289     5A    -11.380792     6A    -11.360164  
       7A    -11.358383     8A    -11.357681     9A    -11.355855  
      10A    -11.354254    11A    -11.353655    12A    -11.352682  
      13A    -11.352408    14A    -11.351470    15A    -11.350552  
      16A    -11.350478    17A    -11.349469    18A    -11.349096  
      19A    -11.348636    20A    -11.348485    21A    -11.347963  
      22A    -11.347666    23A    -11.347305    24A    -11.347232  
      25A    -11.347071    26A    -11.346877    27A    -11.346701  
      28A    -11.346633    29A    -11.346387    30A    -11.346205  
      31A    -11.344903    32A    -11.343772    33A    -11.342169  
      34A    -11.341685    35A    -11.341591    36A    -11.341288  
      37A    -11.340541    38A    -11.340502    39A    -11.340278  
      40A    -11.340058    41A    -11.339704    42A    -11.339471  
      43A    -11.339217    44A    -11.338381    45A    -11.337717  
      46A    -11.337605    47A    -11.337295    48A    -11.337209  
      49A    -11.336940    50A    -11.336759    51A    -11.336683  
      52A    -11.336593    53A    -11.336545    54A    -11.336367  
      55A    -11.336331    56A    -11.336235    57A    -11.336019  
      58A    -11.336015    59A    -11.335766    60A    -11.335656  
      61A    -11.335494    62A    -11.335204    63A    -11.335140  
      64A    -11.335101    65A    -11.334782    66A    -11.334563  
      67A    -11.334363    68A    -11.333713    69A    -11.333492  
      70A    -11.333350    71A    -11.333158    72A    -11.333122  
      73A    -11.333027    74A    -11.332989    75A    -11.332742  
      76A    -11.332717    77A    -11.332356    78A    -11.332312  
      79A    -11.332172    80A    -11.327253    81A    -11.326892  
      82A    -11.326711    83A    -11.326533    84A    -11.326507  
      85A    -11.326333    86A    -11.326007    87A    -11.325960  
      88A    -11.325797    89A    -11.325465    90A    -11.325459  
      91A    -11.325055    92A    -11.322058    93A    -11.321932  
      94A    -11.321665    95A    -11.321593    96A    -11.321209  
      97A    -11.320983    98A    -11.320586    99A    -11.320461  
     100A    -11.320186   101A    -11.320122   102A    -11.319700  
     103A    -11.319491   104A     -1.517846   105A     -1.378574  
     106A     -1.350763   107A     -1.325798   108A     -1.322587  
     109A     -1.302485   110A     -1.300213   111A     -1.299509  
     112A     -1.278562   113A     -1.275800   114A     -1.273993  
     115A     -1.272615   116A     -1.250716   117A     -1.249341  
     118A     -1.246617   119A     -1.238004   120A     -1.236139  
     121A     -1.219628   122A     -1.219182   123A     -1.210087  
     124A     -1.206069   125A     -1.197839   126A     -1.195438  
     127A     -1.187799   128A     -1.185184   129A     -1.171967  
     130A     -1.169569   131A     -1.164870   132A     -1.158069  
     133A     -1.150822   134A     -1.149138   135A     -1.148071  
     136A     -1.146427   137A     -1.125543   138A     -1.124488  
     139A     -1.123325   140A     -1.119059   141A     -1.112657  
     142A     -1.111701   143A     -1.109779   144A     -1.106115  
     145A     -1.100655   146A     -1.086252   147A     -1.083940  
     148A     -1.082813   149A     -1.081196   150A     -1.079214  
     151A     -1.064975   152A     -1.054596   153A     -1.048776  
     154A     -1.043194   155A     -1.031570   156A     -1.029709  
     157A     -0.997288   158A     -0.993076   159A     -0.990397  
     160A     -0.978373   161A     -0.978072   162A     -0.977695  
     163A     -0.976058   164A     -0.972962   165A     -0.971770  
     166A     -0.969494   167A     -0.952523   168A     -0.946816  
     169A     -0.940027   170A     -0.938523   171A     -0.930617  
     172A     -0.928732   173A     -0.927482   174A     -0.922932  
     175A     -0.922130   176A     -0.912039   177A     -0.910770  
     178A     -0.901367   179A     -0.901080   180A     -0.869022  
     181A     -0.866365   182A     -0.865123   183A     -0.861528  
     184A     -0.860921   185A     -0.856636   186A     -0.856195  
     187A     -0.851903   188A     -0.846766   189A     -0.842949  
     190A     -0.832119   191A     -0.829343   192A     -0.809573  
     193A     -0.807232   194A     -0.804486   195A     -0.803803  
     196A     -0.802121   197A     -0.801187   198A     -0.798758  
     199A     -0.795009   200A     -0.794337   201A     -0.778450  
     202A     -0.776338   203A     -0.772886   204A     -0.766331  
     205A     -0.762235   206A     -0.760902   207A     -0.760408  
     208A     -0.758461   209A     -0.757056   210A     -0.752811  
     211A     -0.744430   212A     -0.733347   213A     -0.730641  
     214A     -0.730261   215A     -0.728536   216A     -0.727731  
     217A     -0.727290   218A     -0.723337   219A     -0.722896  
     220A     -0.720133   221A     -0.719488   222A     -0.715600  
     223A     -0.715065   224A     -0.713475   225A     -0.713170  
     226A     -0.705799   227A     -0.697978   228A     -0.688798  
     229A     -0.688081   230A     -0.685142   231A     -0.684837  
     232A     -0.683129   233A     -0.680090   234A     -0.677738  
     235A     -0.677002   236A     -0.675595   237A     -0.674581  
     238A     -0.673704   239A     -0.671643   240A     -0.671041  
     241A     -0.670739   242A     -0.670419   243A     -0.668324  
     244A     -0.665749   245A     -0.665482   246A     -0.658011  
     247A     -0.657562   248A     -0.649836   249A     -0.649472  
     250A     -0.649201   251A     -0.649008   252A     -0.648182  
     253A     -0.646429   254A     -0.642433   255A     -0.640707  
     256A     -0.639036   257A     -0.636179   258A     -0.635885  
     259A     -0.631768   260A     -0.630578   261A     -0.630191  
     262A     -0.624998   263A     -0.623132   264A     -0.620513  
     265A     -0.617914   266A     -0.613060   267A     -0.610349  
     268A     -0.609857   269A     -0.607946   270A     -0.601940  
     271A     -0.601857   272A     -0.594566   273A     -0.594343  
     274A     -0.590391   275A     -0.588993   276A     -0.584101  
     277A     -0.583584   278A     -0.582928   279A     -0.578176  
     280A     -0.573734   281A     -0.572063   282A     -0.571863  
     283A     -0.561400   284A     -0.556232   285A     -0.554283  
     286A     -0.552573   287A     -0.549078   288A     -0.548564  
     289A     -0.547537   290A     -0.546774   291A     -0.543024  
     292A     -0.542789   293A     -0.541109   294A     -0.527906  
     295A     -0.527418   296A     -0.523271   297A     -0.516428  
     298A     -0.506762   299A     -0.504308   300A     -0.499038  
     301A     -0.485459   302A     -0.480179   303A     -0.468811  
     304A     -0.465026   305A     -0.461099   306A     -0.456063  
     307A     -0.450751   308A     -0.445677   309A     -0.429596  
     310A     -0.428844   311A     -0.423429   312A     -0.417698  
     313A     -0.404636   314A     -0.403042   315A     -0.400457  
     316A     -0.391010   317A     -0.386729   318A     -0.380253  
     319A     -0.374218   320A     -0.372163   321A     -0.359704  
     322A     -0.326714   323A     -0.323187   324A     -0.321183  
     325A     -0.284550   326A     -0.281789  

    Virtual:                                                              

     327A     -0.086958   328A     -0.085144   329A     -0.061240  
     330A     -0.057693   331A     -0.030514   332A     -0.028812  
     333A     -0.018176   334A     -0.014315   335A     -0.013007  
     336A     -0.012026   337A     -0.010760   338A     -0.010494  
     339A     -0.009048   340A     -0.005901   341A     -0.004983  
     342A     -0.004869   343A     -0.002995   344A     -0.001890  
     345A     -0.001301   346A     -0.000030   347A      0.004760  
     348A      0.005373   349A      0.006840   350A      0.008476  
     351A      0.010389   352A      0.010521   353A      0.013318  
     354A      0.014895   355A      0.019559   356A      0.021217  
     357A      0.021621   358A      0.021680   359A      0.022008  
     360A      0.028464   361A      0.029362   362A      0.031856  
     363A      0.031910   364A      0.032955   365A      0.034790  
     366A      0.035412   367A      0.035829   368A      0.036900  
     369A      0.038046   370A      0.041099   371A      0.042216  
     372A      0.042675   373A      0.043232   374A      0.043665  
     375A      0.045950   376A      0.047068   377A      0.047683  
     378A      0.047736   379A      0.048258   380A      0.049198  
     381A      0.050023   382A      0.055296   383A      0.057336  
     384A      0.058299   385A      0.059079   386A      0.064115  
     387A      0.064674   388A      0.064929   389A      0.068022  
     390A      0.068489   391A      0.069344   392A      0.069682  
     393A      0.071169   394A      0.071365   395A      0.072470  
     396A      0.072663   397A      0.073873   398A      0.075682  
     399A      0.077484   400A      0.078383   401A      0.078809  
     402A      0.081599   403A      0.081803   404A      0.081991  
     405A      0.087004   406A      0.088592   407A      0.090734  
     408A      0.093990   409A      0.096540   410A      0.097390  
     411A      0.097632   412A      0.101311   413A      0.102167  
     414A      0.102512   415A      0.102710   416A      0.103662  
     417A      0.103896   418A      0.104164   419A      0.105106  
     420A      0.106406   421A      0.107235   422A      0.108617  
     423A      0.109133   424A      0.109622   425A      0.111902  
     426A      0.114139   427A      0.120330   428A      0.121606  
     429A      0.122937   430A      0.122981   431A      0.123604  
     432A      0.124397   433A      0.127613   434A      0.129327  
     435A      0.129705   436A      0.130422   437A      0.131064  
     438A      0.131089   439A      0.135721   440A      0.136930  
     441A      0.138061   442A      0.138891   443A      0.139255  
     444A      0.140155   445A      0.140786   446A      0.142383  
     447A      0.142458   448A      0.143626   449A      0.144912  
     450A      0.145429   451A      0.145735   452A      0.146734  
     453A      0.147320   454A      0.148039   455A      0.148359  
     456A      0.148810   457A      0.150075   458A      0.150955  
     459A      0.151236   460A      0.153479   461A      0.153535  
     462A      0.157096   463A      0.157345   464A      0.159278  
     465A      0.159888   466A      0.160318   467A      0.162794  
     468A      0.164102   469A      0.164387   470A      0.165880  
     471A      0.166187   472A      0.168801   473A      0.169522  
     474A      0.169779   475A      0.170514   476A      0.171669  
     477A      0.171828   478A      0.173829   479A      0.174629  
     480A      0.174917   481A      0.176832   482A      0.178563  
     483A      0.179637   484A      0.180600   485A      0.182489  
     486A      0.184271   487A      0.185095   488A      0.185535  
     489A      0.187461   490A      0.188194   491A      0.188293  
     492A      0.189064   493A      0.189308   494A      0.190324  
     495A      0.192750   496A      0.194013   497A      0.194827  
     498A      0.195005   499A      0.195848   500A      0.197387  
     501A      0.199846   502A      0.200891   503A      0.201364  
     504A      0.202687   505A      0.203799   506A      0.204903  
     507A      0.207666   508A      0.207837   509A      0.208920  
     510A      0.209124   511A      0.211076   512A      0.211738  
     513A      0.212512   514A      0.213765   515A      0.214371  
     516A      0.215171   517A      0.216167   518A      0.216594  
     519A      0.217706   520A      0.220216   521A      0.221114  
     522A      0.222057   523A      0.222775   524A      0.223286  
     525A      0.224077   526A      0.224289   527A      0.225016  
     528A      0.226714   529A      0.228609   530A      0.229889  
     531A      0.231059   532A      0.231374   533A      0.232665  
     534A      0.233470   535A      0.234376   536A      0.234990  
     537A      0.237003   538A      0.237148   539A      0.238489  
     540A      0.239402   541A      0.239854   542A      0.243465  
     543A      0.244853   544A      0.245565   545A      0.247980  
     546A      0.249814   547A      0.250534   548A      0.250595  
     549A      0.251868   550A      0.252733   551A      0.253138  
     552A      0.254153   553A      0.254781   554A      0.255126  
     555A      0.255399   556A      0.255791   557A      0.256120  
     558A      0.258067   559A      0.258371   560A      0.259292  
     561A      0.261296   562A      0.261902   563A      0.263691  
     564A      0.263800   565A      0.264648   566A      0.265619  
     567A      0.265835   568A      0.266265   569A      0.266953  
     570A      0.267629   571A      0.268432   572A      0.269304  
     573A      0.270029   574A      0.270227   575A      0.272038  
     576A      0.273385   577A      0.275028   578A      0.275832  
     579A      0.278491   580A      0.279680   581A      0.280293  
     582A      0.281992   583A      0.282487   584A      0.282689  
     585A      0.283291   586A      0.283382   587A      0.284327  
     588A      0.284533   589A      0.286636   590A      0.288972  
     591A      0.289209   592A      0.289712   593A      0.290291  
     594A      0.290603   595A      0.291105   596A      0.293324  
     597A      0.293590   598A      0.294357   599A      0.297526  
     600A      0.298682   601A      0.299536   602A      0.300736  
     603A      0.301513   604A      0.302771   605A      0.303692  
     606A      0.303970   607A      0.304205   608A      0.304818  
     609A      0.305228   610A      0.306173   611A      0.306555  
     612A      0.307962   613A      0.308160   614A      0.310179  
     615A      0.311718   616A      0.312706   617A      0.312998  
     618A      0.313453   619A      0.313980   620A      0.314470  
     621A      0.315502   622A      0.316557   623A      0.318112  
     624A      0.320457   625A      0.321694   626A      0.322083  
     627A      0.323015   628A      0.323394   629A      0.325534  
     630A      0.325887   631A      0.326536   632A      0.327147  
     633A      0.328693   634A      0.328977   635A      0.329361  
     636A      0.331234   637A      0.333061   638A      0.333307  
     639A      0.334157   640A      0.334671   641A      0.334785  
     642A      0.335270   643A      0.335638   644A      0.336660  
     645A      0.337341   646A      0.337840   647A      0.338517  
     648A      0.340243   649A      0.340679   650A      0.341759  
     651A      0.343090   652A      0.343873   653A      0.344451  
     654A      0.345541   655A      0.346353   656A      0.346866  
     657A      0.348402   658A      0.349485   659A      0.350957  
     660A      0.352253   661A      0.352470   662A      0.352901  
     663A      0.353253   664A      0.355047   665A      0.355800  
     666A      0.356791   667A      0.358309   668A      0.358475  
     669A      0.358929   670A      0.359823   671A      0.361809  
     672A      0.363154   673A      0.363983   674A      0.364076  
     675A      0.365136   676A      0.366109   677A      0.368311  
     678A      0.370554   679A      0.371025   680A      0.372807  
     681A      0.373548   682A      0.374384   683A      0.374502  
     684A      0.376819   685A      0.379059   686A      0.379707  
     687A      0.380892   688A      0.381420   689A      0.382886  
     690A      0.383733   691A      0.384053   692A      0.384735  
     693A      0.385032   694A      0.385618   695A      0.386353  
     696A      0.386985   697A      0.388704   698A      0.389602  
     699A      0.390961   700A      0.391206   701A      0.395611  
     702A      0.396116   703A      0.397300   704A      0.397497  
     705A      0.398081   706A      0.398799   707A      0.399829  
     708A      0.400407   709A      0.400424   710A      0.400840  
     711A      0.402940   712A      0.403416   713A      0.405244  
     714A      0.405320   715A      0.405778   716A      0.406521  
     717A      0.407550   718A      0.409315   719A      0.410457  
     720A      0.411059   721A      0.412562   722A      0.413244  
     723A      0.415385   724A      0.416133   725A      0.417086  
     726A      0.417867   727A      0.420688   728A      0.421953  
     729A      0.422680   730A      0.423686   731A      0.424313  
     732A      0.426442   733A      0.426909   734A      0.427138  
     735A      0.428088   736A      0.429848   737A      0.430810  
     738A      0.431480   739A      0.432132   740A      0.433038  
     741A      0.434658   742A      0.435081   743A      0.436643  
     744A      0.438169   745A      0.438891   746A      0.442370  
     747A      0.444350   748A      0.445185   749A      0.445885  
     750A      0.446766   751A      0.447970   752A      0.448522  
     753A      0.448950   754A      0.449483   755A      0.450689  
     756A      0.452299   757A      0.452438   758A      0.453890  
     759A      0.454827   760A      0.455680   761A      0.456603  
     762A      0.457103   763A      0.459618   764A      0.460863  
     765A      0.462710   766A      0.464383   767A      0.466346  
     768A      0.468654   769A      0.470235   770A      0.470885  
     771A      0.471419   772A      0.475105   773A      0.476293  
     774A      0.477610   775A      0.479574   776A      0.480232  
     777A      0.482710   778A      0.483647   779A      0.486406  
     780A      0.488638   781A      0.489196   782A      0.490022  
     783A      0.491024   784A      0.492555   785A      0.494321  
     786A      0.494841   787A      0.497467   788A      0.498866  
     789A      0.501574   790A      0.503759   791A      0.505207  
     792A      0.506175   793A      0.506471   794A      0.507268  
     795A      0.509462   796A      0.512345   797A      0.512857  
     798A      0.513749   799A      0.516337   800A      0.516845  
     801A      0.518130   802A      0.519307   803A      0.519760  
     804A      0.524494   805A      0.524581   806A      0.525535  
     807A      0.526946   808A      0.527782   809A      0.529105  
     810A      0.530686   811A      0.531934   812A      0.533301  
     813A      0.535268   814A      0.537207   815A      0.539837  
     816A      0.540307   817A      0.542235   818A      0.545440  
     819A      0.546587   820A      0.547320   821A      0.549074  
     822A      0.550550   823A      0.551429   824A      0.554247  
     825A      0.561388   826A      0.562660   827A      0.564161  
     828A      0.564616   829A      0.566589   830A      0.569430  
     831A      0.572367   832A      0.574484   833A      0.576484  
     834A      0.578104   835A      0.579141   836A      0.580876  
     837A      0.583262   838A      0.583832   839A      0.586459  
     840A      0.586582   841A      0.593385   842A      0.596974  
     843A      0.598561   844A      0.600904   845A      0.602697  
     846A      0.603509   847A      0.605259   848A      0.607013  
     849A      0.613318   850A      0.615038   851A      0.615676  
     852A      0.617105   853A      0.617809   854A      0.621859  
     855A      0.622483   856A      0.624446   857A      0.625379  
     858A      0.626096   859A      0.632237   860A      0.632999  
     861A      0.636340   862A      0.640121   863A      0.643277  
     864A      0.648428   865A      0.653979   866A      0.658558  
     867A      0.661051   868A      0.664089   869A      0.666842  
     870A      0.668412   871A      0.668550   872A      0.671566  
     873A      0.672727   874A      0.677453   875A      0.678679  
     876A      0.679602   877A      0.692641   878A      0.702115  
     879A      0.710124   880A      0.712423   881A      0.713003  
     882A      0.713626   883A      0.718110   884A      0.718989  
     885A      0.722374   886A      0.723762   887A      0.728732  
     888A      0.731302   889A      0.731593   890A      0.735356  
     891A      0.738544   892A      0.742775   893A      0.746750  
     894A      0.749279   895A      0.750457   896A      0.752485  
     897A      0.753385   898A      0.755509   899A      0.756470  
     900A      0.760386   901A      0.760741   902A      0.762349  
     903A      0.763358   904A      0.767853   905A      0.769624  
     906A      0.770280   907A      0.773342   908A      0.775554  
     909A      0.778215   910A      0.779494   911A      0.780181  
     912A      0.782104   913A      0.787224   914A      0.789613  
     915A      0.791244   916A      0.793187   917A      0.795050  
     918A      0.796563   919A      0.799200   920A      0.800888  
     921A      0.801871   922A      0.802046   923A      0.803601  
     924A      0.806265   925A      0.806673   926A      0.810725  
     927A      0.812129   928A      0.813992   929A      0.814773  
     930A      0.815883   931A      0.817637   932A      0.818880  
     933A      0.819420   934A      0.822570   935A      0.825262  
     936A      0.826426   937A      0.827791   938A      0.828858  
     939A      0.829944   940A      0.833167   941A      0.834557  
     942A      0.836136   943A      0.838797   944A      0.840013  
     945A      0.842522   946A      0.843097   947A      0.844828  
     948A      0.846447   949A      0.847353   950A      0.848809  
     951A      0.850779   952A      0.851676   953A      0.852709  
     954A      0.853671   955A      0.854294   956A      0.856407  
     957A      0.857862   958A      0.859543   959A      0.860346  
     960A      0.863255   961A      0.864557   962A      0.865606  
     963A      0.866472   964A      0.870380   965A      0.871455  
     966A      0.871891   967A      0.872633   968A      0.874775  
     969A      0.875800   970A      0.876426   971A      0.878441  
     972A      0.879847   973A      0.881091   974A      0.881893  
     975A      0.882466   976A      0.884181   977A      0.885381  
     978A      0.885936   979A      0.886543   980A      0.889792  
     981A      0.890202   982A      0.892892   983A      0.895109  
     984A      0.895731   985A      0.897791   986A      0.899562  
     987A      0.900691   988A      0.903492   989A      0.904160  
     990A      0.908272   991A      0.910031   992A      0.913310  
     993A      0.914507   994A      0.916423   995A      0.917799  
     996A      0.918230   997A      0.920310   998A      0.921815  
     999A      0.924082  1000A      0.924745  1001A      0.927309  
    1002A      0.928060  1003A      0.928557  1004A      0.929409  
    1005A      0.931952  1006A      0.934150  1007A      0.935223  
    1008A      0.936454  1009A      0.937990  1010A      0.940231  
    1011A      0.940587  1012A      0.941593  1013A      0.944417  
    1014A      0.945801  1015A      0.947713  1016A      0.949087  
    1017A      0.949779  1018A      0.952486  1019A      0.953232  
    1020A      0.955515  1021A      0.956847  1022A      0.958412  
    1023A      0.959361  1024A      0.960226  1025A      0.963977  
    1026A      0.964180  1027A      0.965437  1028A      0.966604  
    1029A      0.968482  1030A      0.969640  1031A      0.971787  
    1032A      0.972872  1033A      0.973339  1034A      0.974302  
    1035A      0.975119  1036A      0.977423  1037A      0.978282  
    1038A      0.978870  1039A      0.980438  1040A      0.981061  
    1041A      0.982308  1042A      0.983955  1043A      0.984871  
    1044A      0.984919  1045A      0.987242  1046A      0.988915  
    1047A      0.989303  1048A      0.990956  1049A      0.991567  
    1050A      0.993757  1051A      0.994919  1052A      0.996201  
    1053A      0.997417  1054A      0.997817  1055A      0.998139  
    1056A      0.999092  1057A      0.999941  1058A      1.000939  
    1059A      1.001652  1060A      1.001903  1061A      1.003219  
    1062A      1.004280  1063A      1.004704  1064A      1.005655  
    1065A      1.005884  1066A      1.007119  1067A      1.008326  
    1068A      1.009389  1069A      1.010618  1070A      1.011378  
    1071A      1.012135  1072A      1.012770  1073A      1.014186  
    1074A      1.014750  1075A      1.015847  1076A      1.017015  
    1077A      1.017850  1078A      1.018958  1079A      1.020304  
    1080A      1.020596  1081A      1.022466  1082A      1.024829  
    1083A      1.025181  1084A      1.025990  1085A      1.028068  
    1086A      1.029588  1087A      1.030628  1088A      1.031506  
    1089A      1.034006  1090A      1.034283  1091A      1.036185  
    1092A      1.036576  1093A      1.039678  1094A      1.040983  
    1095A      1.043418  1096A      1.045842  1097A      1.047133  
    1098A      1.049903  1099A      1.051277  1100A      1.052633  
    1101A      1.054492  1102A      1.054912  1103A      1.056094  
    1104A      1.057620  1105A      1.059342  1106A      1.060992  
    1107A      1.063189  1108A      1.064601  1109A      1.067061  
    1110A      1.070338  1111A      1.071434  1112A      1.073344  
    1113A      1.074140  1114A      1.075638  1115A      1.076608  
    1116A      1.077547  1117A      1.079847  1118A      1.080640  
    1119A      1.082431  1120A      1.083135  1121A      1.086337  
    1122A      1.086674  1123A      1.088848  1124A      1.090144  
    1125A      1.090541  1126A      1.093656  1127A      1.094831  
    1128A      1.096135  1129A      1.096864  1130A      1.097913  
    1131A      1.104507  1132A      1.106368  1133A      1.111320  
    1134A      1.112391  1135A      1.116363  1136A      1.116974  
    1137A      1.121966  1138A      1.124103  1139A      1.124637  
    1140A      1.125691  1141A      1.128342  1142A      1.131318  
    1143A      1.132470  1144A      1.135709  1145A      1.137823  
    1146A      1.138482  1147A      1.140153  1148A      1.141739  
    1149A      1.143376  1150A      1.146127  1151A      1.147357  
    1152A      1.148335  1153A      1.150369  1154A      1.154109  
    1155A      1.155044  1156A      1.156368  1157A      1.159097  
    1158A      1.159538  1159A      1.162258  1160A      1.164341  
    1161A      1.167016  1162A      1.172307  1163A      1.174194  
    1164A      1.174739  1165A      1.176505  1166A      1.178259  
    1167A      1.180458  1168A      1.184717  1169A      1.186088  
    1170A      1.188400  1171A      1.190341  1172A      1.191411  
    1173A      1.193182  1174A      1.194808  1175A      1.196543  
    1176A      1.201105  1177A      1.206417  1178A      1.207304  
    1179A      1.210315  1180A      1.213015  1181A      1.213784  
    1182A      1.214779  1183A      1.217705  1184A      1.219952  
    1185A      1.220976  1186A      1.222111  1187A      1.224858  
    1188A      1.225929  1189A      1.227329  1190A      1.227821  
    1191A      1.230037  1192A      1.230699  1193A      1.232034  
    1194A      1.234111  1195A      1.238077  1196A      1.242003  
    1197A      1.242844  1198A      1.244072  1199A      1.246385  
    1200A      1.247204  1201A      1.248771  1202A      1.249997  
    1203A      1.251912  1204A      1.252754  1205A      1.254635  
    1206A      1.255674  1207A      1.260151  1208A      1.260913  
    1209A      1.261683  1210A      1.262884  1211A      1.264550  
    1212A      1.266284  1213A      1.268809  1214A      1.269534  
    1215A      1.270717  1216A      1.272934  1217A      1.274670  
    1218A      1.275278  1219A      1.277668  1220A      1.280432  
    1221A      1.282727  1222A      1.285757  1223A      1.287512  
    1224A      1.289916  1225A      1.291281  1226A      1.293833  
    1227A      1.297129  1228A      1.300740  1229A      1.303302  
    1230A      1.304475  1231A      1.306271  1232A      1.309922  
    1233A      1.310607  1234A      1.313882  1235A      1.315115  
    1236A      1.315659  1237A      1.319187  1238A      1.324003  
    1239A      1.324751  1240A      1.325469  1241A      1.327117  
    1242A      1.329766  1243A      1.330467  1244A      1.331125  
    1245A      1.333413  1246A      1.335221  1247A      1.336943  
    1248A      1.339516  1249A      1.342699  1250A      1.343934  
    1251A      1.345059  1252A      1.345297  1253A      1.347988  
    1254A      1.350540  1255A      1.350804  1256A      1.351997  
    1257A      1.352778  1258A      1.354331  1259A      1.356048  
    1260A      1.357416  1261A      1.358388  1262A      1.360440  
    1263A      1.361137  1264A      1.363268  1265A      1.364369  
    1266A      1.365874  1267A      1.370284  1268A      1.371605  
    1269A      1.375652  1270A      1.376991  1271A      1.377735  
    1272A      1.380076  1273A      1.381330  1274A      1.383599  
    1275A      1.384353  1276A      1.388315  1277A      1.389139  
    1278A      1.393594  1279A      1.396698  1280A      1.398759  
    1281A      1.400100  1282A      1.404943  1283A      1.406453  
    1284A      1.407185  1285A      1.410936  1286A      1.412179  
    1287A      1.414893  1288A      1.416189  1289A      1.417538  
    1290A      1.420542  1291A      1.424731  1292A      1.426707  
    1293A      1.433053  1294A      1.437019  1295A      1.437170  
    1296A      1.445842  1297A      1.449140  1298A      1.452135  
    1299A      1.458594  1300A      1.461839  1301A      1.466483  
    1302A      1.472440  1303A      1.475115  1304A      1.477982  
    1305A      1.482703  1306A      1.489212  1307A      1.495168  
    1308A      1.500250  1309A      1.505819  1310A      1.508959  
    1311A      1.513542  1312A      1.514426  1313A      1.519704  
    1314A      1.522740  1315A      1.524524  1316A      1.529774  
    1317A      1.531032  1318A      1.532478  1319A      1.533440  
    1320A      1.536927  1321A      1.537835  1322A      1.540593  
    1323A      1.541866  1324A      1.542624  1325A      1.543358  
    1326A      1.547133  1327A      1.549365  1328A      1.549985  
    1329A      1.553406  1330A      1.554537  1331A      1.557404  
    1332A      1.560051  1333A      1.561082  1334A      1.562712  
    1335A      1.563122  1336A      1.565176  1337A      1.568453  
    1338A      1.569784  1339A      1.571793  1340A      1.573802  
    1341A      1.574607  1342A      1.575666  1343A      1.578102  
    1344A      1.579814  1345A      1.581508  1346A      1.582484  
    1347A      1.583997  1348A      1.585518  1349A      1.586937  
    1350A      1.587570  1351A      1.589304  1352A      1.590788  
    1353A      1.592694  1354A      1.593818  1355A      1.597049  
    1356A      1.598190  1357A      1.601931  1358A      1.603721  
    1359A      1.607287  1360A      1.610207  1361A      1.611632  
    1362A      1.614253  1363A      1.616092  1364A      1.616726  
    1365A      1.617997  1366A      1.619522  1367A      1.620269  
    1368A      1.621083  1369A      1.624889  1370A      1.626883  
    1371A      1.630465  1372A      1.634363  1373A      1.636257  
    1374A      1.638499  1375A      1.641935  1376A      1.643607  
    1377A      1.646609  1378A      1.648622  1379A      1.651337  
    1380A      1.653723  1381A      1.655227  1382A      1.658062  
    1383A      1.663351  1384A      1.665082  1385A      1.665943  
    1386A      1.667748  1387A      1.669448  1388A      1.673461  
    1389A      1.677558  1390A      1.681108  1391A      1.686698  
    1392A      1.687667  1393A      1.689301  1394A      1.691791  
    1395A      1.692841  1396A      1.699647  1397A      1.704094  
    1398A      1.711743  1399A      1.712454  1400A      1.712993  
    1401A      1.715678  1402A      1.717797  1403A      1.719606  
    1404A      1.721708  1405A      1.731349  1406A      1.734850  
    1407A      1.738082  1408A      1.741144  1409A      1.745607  
    1410A      1.750993  1411A      1.752330  1412A      1.754096  
    1413A      1.756643  1414A      1.757544  1415A      1.758363  
    1416A      1.759253  1417A      1.762854  1418A      1.765105  
    1419A      1.768122  1420A      1.769126  1421A      1.773081  
    1422A      1.776151  1423A      1.776368  1424A      1.779644  
    1425A      1.781874  1426A      1.785601  1427A      1.787963  
    1428A      1.789365  1429A      1.789959  1430A      1.792700  
    1431A      1.794355  1432A      1.795789  1433A      1.798167  
    1434A      1.798579  1435A      1.801460  1436A      1.802589  
    1437A      1.805055  1438A      1.805695  1439A      1.806998  
    1440A      1.809655  1441A      1.810407  1442A      1.811766  
    1443A      1.812460  1444A      1.814664  1445A      1.817432  
    1446A      1.819637  1447A      1.819754  1448A      1.822865  
    1449A      1.823961  1450A      1.826047  1451A      1.827053  
    1452A      1.834489  1453A      1.835927  1454A      1.837339  
    1455A      1.839001  1456A      1.841944  1457A      1.842214  
    1458A      1.846707  1459A      1.847602  1460A      1.847982  
    1461A      1.848907  1462A      1.852147  1463A      1.853593  
    1464A      1.856153  1465A      1.857433  1466A      1.861810  
    1467A      1.863160  1468A      1.867894  1469A      1.868058  
    1470A      1.870573  1471A      1.872460  1472A      1.873620  
    1473A      1.876327  1474A      1.876523  1475A      1.879573  
    1476A      1.880755  1477A      1.882597  1478A      1.884657  
    1479A      1.886135  1480A      1.888256  1481A      1.890908  
    1482A      1.892471  1483A      1.894610  1484A      1.895360  
    1485A      1.896215  1486A      1.899470  1487A      1.901833  
    1488A      1.902632  1489A      1.904003  1490A      1.907983  
    1491A      1.911651  1492A      1.912550  1493A      1.916435  
    1494A      1.916640  1495A      1.920694  1496A      1.921671  
    1497A      1.922826  1498A      1.928105  1499A      1.929895  
    1500A      1.931320  1501A      1.931875  1502A      1.933404  
    1503A      1.933724  1504A      1.934320  1505A      1.936186  
    1506A      1.941057  1507A      1.942398  1508A      1.943097  
    1509A      1.945665  1510A      1.946405  1511A      1.948861  
    1512A      1.950471  1513A      1.952924  1514A      1.953177  
    1515A      1.954290  1516A      1.955900  1517A      1.957416  
    1518A      1.962564  1519A      1.963869  1520A      1.968698  
    1521A      1.969379  1522A      1.969939  1523A      1.971667  
    1524A      1.972076  1525A      1.974401  1526A      1.975006  
    1527A      1.979078  1528A      1.979737  1529A      1.981112  
    1530A      1.982665  1531A      1.985685  1532A      1.987353  
    1533A      1.990215  1534A      1.990718  1535A      1.993055  
    1536A      1.993324  1537A      1.996884  1538A      1.997534  
    1539A      1.998782  1540A      2.001884  1541A      2.003062  
    1542A      2.004057  1543A      2.006358  1544A      2.007489  
    1545A      2.008545  1546A      2.010458  1547A      2.011602  
    1548A      2.012234  1549A      2.015996  1550A      2.016831  
    1551A      2.017145  1552A      2.018957  1553A      2.020425  
    1554A      2.021591  1555A      2.021913  1556A      2.022913  
    1557A      2.024074  1558A      2.024390  1559A      2.026784  
    1560A      2.028289  1561A      2.031035  1562A      2.031525  
    1563A      2.033763  1564A      2.034525  1565A      2.035923  
    1566A      2.037960  1567A      2.038736  1568A      2.038958  
    1569A      2.040573  1570A      2.043328  1571A      2.043732  
    1572A      2.045939  1573A      2.048441  1574A      2.050041  
    1575A      2.051058  1576A      2.052584  1577A      2.055446  
    1578A      2.057054  1579A      2.057410  1580A      2.059058  
    1581A      2.060380  1582A      2.062033  1583A      2.062922  
    1584A      2.063876  1585A      2.065940  1586A      2.068530  
    1587A      2.070699  1588A      2.072560  1589A      2.073575  
    1590A      2.074473  1591A      2.078250  1592A      2.080089  
    1593A      2.082490  1594A      2.083415  1595A      2.085463  
    1596A      2.086328  1597A      2.088481  1598A      2.089248  
    1599A      2.092519  1600A      2.093067  1601A      2.095790  
    1602A      2.097548  1603A      2.100988  1604A      2.102754  
    1605A      2.103094  1606A      2.105731  1607A      2.109299  
    1608A      2.109646  1609A      2.110960  1610A      2.112855  
    1611A      2.115953  1612A      2.116523  1613A      2.117244  
    1614A      2.119421  1615A      2.120627  1616A      2.122192  
    1617A      2.125425  1618A      2.127290  1619A      2.130212  
    1620A      2.130954  1621A      2.134449  1622A      2.135830  
    1623A      2.136264  1624A      2.139843  1625A      2.141381  
    1626A      2.143888  1627A      2.144699  1628A      2.147739  
    1629A      2.148555  1630A      2.151423  1631A      2.153642  
    1632A      2.155440  1633A      2.157845  1634A      2.160222  
    1635A      2.161040  1636A      2.161507  1637A      2.163118  
    1638A      2.164551  1639A      2.169047  1640A      2.169333  
    1641A      2.171587  1642A      2.172161  1643A      2.175616  
    1644A      2.178665  1645A      2.182199  1646A      2.183505  
    1647A      2.183810  1648A      2.186896  1649A      2.193145  
    1650A      2.195361  1651A      2.198134  1652A      2.199304  
    1653A      2.203205  1654A      2.205019  1655A      2.207048  
    1656A      2.208267  1657A      2.209229  1658A      2.214735  
    1659A      2.216427  1660A      2.217481  1661A      2.221395  
    1662A      2.224774  1663A      2.226266  1664A      2.228992  
    1665A      2.232623  1666A      2.233296  1667A      2.237501  
    1668A      2.241076  1669A      2.242144  1670A      2.246086  
    1671A      2.248114  1672A      2.250540  1673A      2.252931  
    1674A      2.254386  1675A      2.255598  1676A      2.257799  
    1677A      2.258255  1678A      2.261600  1679A      2.263518  
    1680A      2.264636  1681A      2.265884  1682A      2.266608  
    1683A      2.268034  1684A      2.269627  1685A      2.270743  
    1686A      2.272782  1687A      2.273032  1688A      2.275458  
    1689A      2.278931  1690A      2.285713  1691A      2.287516  
    1692A      2.295985  1693A      2.299088  1694A      2.307886  
    1695A      2.308160  1696A      2.315873  1697A      2.323708  
    1698A      2.324931  1699A      2.326209  1700A      2.330563  
    1701A      2.338049  1702A      2.340263  1703A      2.342830  
    1704A      2.346157  1705A      2.349746  1706A      2.352991  
    1707A      2.362872  1708A      2.364985  1709A      2.368095  
    1710A      2.372823  1711A      2.375847  1712A      2.380814  
    1713A      2.383803  1714A      2.387596  1715A      2.388730  
    1716A      2.391516  1717A      2.392995  1718A      2.394110  
    1719A      2.395407  1720A      2.400044  1721A      2.405082  
    1722A      2.410469  1723A      2.417290  1724A      2.425715  
    1725A      2.427361  1726A      2.432459  1727A      2.434740  
    1728A      2.436349  1729A      2.444949  1730A      2.448522  
    1731A      2.450682  1732A      2.454867  1733A      2.457470  
    1734A      2.461769  1735A      2.467386  1736A      2.470309  
    1737A      2.472388  1738A      2.474625  1739A      2.475678  
    1740A      2.479573  1741A      2.482533  1742A      2.485194  
    1743A      2.486075  1744A      2.491383  1745A      2.495935  
    1746A      2.498438  1747A      2.500395  1748A      2.501747  
    1749A      2.507156  1750A      2.509346  1751A      2.512015  
    1752A      2.512947  1753A      2.516626  1754A      2.518731  
    1755A      2.521179  1756A      2.522731  1757A      2.523512  
    1758A      2.526147  1759A      2.527449  1760A      2.527868  
    1761A      2.532812  1762A      2.541096  1763A      2.543541  
    1764A      2.544438  1765A      2.545144  1766A      2.550552  
    1767A      2.556196  1768A      2.560439  1769A      2.567051  
    1770A      2.570840  1771A      2.572641  1772A      2.575955  
    1773A      2.577854  1774A      2.580455  1775A      2.582475  
    1776A      2.585125  1777A      2.585413  1778A      2.587929  
    1779A      2.589924  1780A      2.590888  1781A      2.592300  
    1782A      2.597750  1783A      2.600519  1784A      2.602537  
    1785A      2.603950  1786A      2.604705  1787A      2.608583  
    1788A      2.610704  1789A      2.611759  1790A      2.615052  
    1791A      2.617155  1792A      2.618162  1793A      2.619933  
    1794A      2.623927  1795A      2.627623  1796A      2.630846  
    1797A      2.634452  1798A      2.635881  1799A      2.641365  
    1800A      2.648163  1801A      2.652126  1802A      2.655796  
    1803A      2.660198  1804A      2.661520  1805A      2.663341  
    1806A      2.674324  1807A      2.678066  1808A      2.684961  
    1809A      2.687429  1810A      2.694567  1811A      2.703714  
    1812A      2.706297  1813A      2.708520  1814A      2.709961  
    1815A      2.716597  1816A      2.719554  1817A      2.724461  
    1818A      2.725333  1819A      2.728608  1820A      2.730913  
    1821A      2.735499  1822A      2.737724  1823A      2.740054  
    1824A      2.745649  1825A      2.752184  1826A      2.757522  
    1827A      2.761680  1828A      2.762855  1829A      2.767126  
    1830A      2.772898  1831A      2.773112  1832A      2.775738  
    1833A      2.778835  1834A      2.787162  1835A      2.793950  
    1836A      2.796888  1837A      2.801019  1838A      2.801664  
    1839A      2.804290  1840A      2.807984  1841A      2.809617  
    1842A      2.815372  1843A      2.820197  1844A      2.824617  
    1845A      2.834285  1846A      2.846013  1847A      2.852010  
    1848A      2.853081  1849A      2.856558  1850A      2.860583  
    1851A      2.864080  1852A      2.865572  1853A      2.876789  
    1854A      2.878593  1855A      2.889390  1856A      2.897300  
    1857A      2.906121  1858A      2.912158  1859A      2.919797  
    1860A      2.926344  1861A      2.939748  1862A      2.948859  
    1863A      2.950535  1864A      2.953810  1865A      2.956012  
    1866A      2.959036  1867A      2.967599  1868A      2.970970  
    1869A      2.979739  1870A      2.982843  1871A      2.990353  
    1872A      2.993227  1873A      2.996913  1874A      2.999860  
    1875A      3.005647  1876A      3.006862  1877A      3.016646  
    1878A      3.021470  1879A      3.028783  1880A      3.041646  
    1881A      3.044112  1882A      3.051962  1883A      3.053893  
    1884A      3.056449  1885A      3.060912  1886A      3.064398  
    1887A      3.076601  1888A      3.077688  1889A      3.086907  
    1890A      3.088358  1891A      3.092326  1892A      3.092949  
    1893A      3.096488  1894A      3.098419  1895A      3.101365  
    1896A      3.108420  1897A      3.119025  1898A      3.125387  
    1899A      3.135799  1900A      3.140739  1901A      3.144131  
    1902A      3.148486  1903A      3.154970  1904A      3.174578  
    1905A      3.180797  1906A      3.191220  1907A      3.195779  
    1908A      3.199551  1909A      3.201310  1910A      3.206713  
    1911A      3.207518  1912A      3.210751  1913A      3.211680  
    1914A      3.212364  1915A      3.219953  1916A      3.234502  
    1917A      3.243200  1918A      3.248554  1919A      3.262372  
    1920A      3.283637  1921A      3.289108  1922A      3.294861  
    1923A      3.309107  1924A      3.313626  1925A      3.327278  
    1926A      3.348460  1927A      3.355132  1928A      3.385550  
    1929A      3.393950  1930A      3.402412  1931A      3.405763  
    1932A      3.407777  1933A      3.418403  1934A      3.431510  
    1935A      3.441072  1936A      3.452423  1937A      3.458405  
    1938A      3.472683  1939A      3.477138  1940A      3.490100  
    1941A      3.510582  1942A      3.523379  1943A      3.530422  
    1944A      3.543441  1945A      3.549150  1946A      3.611086  
    1947A      3.632007  1948A      3.643891  1949A      3.651205  
    1950A      3.668016  1951A      3.672709  1952A      3.691825  
    1953A      3.698155  1954A      3.708194  1955A      3.733057  
    1956A      3.771582  1957A      3.774927  1958A      3.781264  
    1959A      3.793149  1960A      3.816536  1961A      3.840429  
    1962A      3.854750  1963A      3.860058  1964A      3.872178  
    1965A      3.878317  1966A      3.888065  1967A      3.935929  
    1968A      3.943201  1969A      3.945874  1970A      3.982826  
    1971A      4.049324  1972A      4.147746  1973A      4.200929  
    1974A      4.318878  1975A      4.375630  1976A      4.519957  
    1977A      4.601577  1978A      4.678788  

    Final Occupation by Irrep:
              A 
    DOCC [   326 ]
    NA   [   326 ]
    NB   [   326 ]

  @DF-RHF Final Energy: -3953.18172628917955

   => Energetics <=

    Nuclear Repulsion Energy =          18789.9504486741534492
    One-Electron Energy =              -42778.7409236876846990
    Two-Electron Energy =               20035.6087487243530632
    Total Energy =                      -3953.1817262891781866

Computation Completed


Properties will be evaluated at   0.000000,   0.000000,   0.000000 [a0]

Properties computed using the SCF density matrix


 Multipole Moments:

 ------------------------------------------------------------------------------------
     Multipole            Electronic (a.u.)      Nuclear  (a.u.)        Total (a.u.)
 ------------------------------------------------------------------------------------

 L = 1.  Multiply by 2.5417464519 to convert [e a0] to [Debye]
 Dipole X            :         -0.0400148            0.0004804           -0.0395344
 Dipole Y            :         -1.7041302            1.8866171            0.1824869
 Dipole Z            :        -11.4577579           13.3045304            1.8467725
 Magnitude           :                                                    1.8561878

 ------------------------------------------------------------------------------------

*** tstop() called on n2cn0412 at Sat Jan 27 00:50:19 2024
Module time:
	user time   =   36623.00 seconds =     610.38 minutes
	system time =    2618.30 seconds =      43.64 minutes
	total time  =       5378 seconds =      89.63 minutes
Total time:
	user time   =   36623.00 seconds =     610.38 minutes
	system time =    2618.30 seconds =      43.64 minutes
	total time  =       5378 seconds =      89.63 minutes

  //>>>>>>>>>>>>>>>>>>>>>>>>>>>>>>>>>>>//
  //            Monomer A HF           //
  //<<<<<<<<<<<<<<<<<<<<<<<<<<<<<<<<<<<//

   => Libint2 <=

    Primary   basis highest AM E, G, H:  5, 4, 3
    Auxiliary basis highest AM E, G, H:  6, 5, 4
    Onebody   basis highest AM E, G, H:  6, 5, 4
    Solid Harmonics ordering:            gaussian

*** tstart() called on n2cn0412
*** at Sat Jan 27 00:50:19 2024

   => Loading Basis Set <=

    Name: JUN-CC-PVDZ
    Role: ORBITAL
    Keyword: BASIS
    atoms 1-2, 4-5, 10, 17-34, 41-53, 56-70, 73-89, 92-104, 109-119, 122-130 entry C          line   164 file /opt/software/pc2/EB-SW/software/PSI4/1.9-foss-2022a/share/psi4/basis/jun-cc-pvdz.gbs 
    atoms 3, 6                                                               entry N          line   198 file /opt/software/pc2/EB-SW/software/PSI4/1.9-foss-2022a/share/psi4/basis/jun-cc-pvdz.gbs 
    atoms 7-9, 11-16, 35-40, 54-55, 71-72, 90-91, 105-108, 120-121, 131-136  entry H          line    36 file /opt/software/pc2/EB-SW/software/PSI4/1.9-foss-2022a/share/psi4/basis/jun-cc-pvdz.gbs 


         ---------------------------------------------------------
                                   SCF
               by Justin Turney, Rob Parrish, Andy Simmonett
                          and Daniel G. A. Smith
                              RHF Reference
                       16 Threads,  61035 MiB Core
         ---------------------------------------------------------

  ==> Geometry <==

    Molecular point group: c1
    Full point group: C1

    Geometry (in Angstrom), charge = 1, multiplicity = 1:

       Center              X                  Y                   Z               Mass       
    ------------   -----------------  -----------------  -----------------  -----------------
         C            0.680062820275    -1.215917226251     2.040305882660    12.000000000000
[...]
    1609A      2.280580  1610A      2.282131  1611A      2.283666  
    1612A      2.290129  1613A      2.292361  1614A      2.294503  
    1615A      2.297168  1616A      2.299318  1617A      2.301894  
    1618A      2.306130  1619A      2.309730  1620A      2.311263  
    1621A      2.315420  1622A      2.319244  1623A      2.322728  
    1624A      2.324129  1625A      2.326156  1626A      2.327496  
    1627A      2.328187  1628A      2.328919  1629A      2.330399  
    1630A      2.333436  1631A      2.336559  1632A      2.337826  
    1633A      2.339159  1634A      2.340388  1635A      2.341646  
    1636A      2.343881  1637A      2.345596  1638A      2.349166  
    1639A      2.351715  1640A      2.352868  1641A      2.360392  
    1642A      2.363816  1643A      2.369209  1644A      2.371693  
    1645A      2.377384  1646A      2.377510  1647A      2.386959  
    1648A      2.387706  1649A      2.391536  1650A      2.398747  
    1651A      2.403199  1652A      2.407509  1653A      2.409480  
    1654A      2.412551  1655A      2.416854  1656A      2.420085  
    1657A      2.423331  1658A      2.426984  1659A      2.428670  
    1660A      2.435181  1661A      2.441847  1662A      2.444437  
    1663A      2.447926  1664A      2.453673  1665A      2.458649  
    1666A      2.462376  1667A      2.464161  1668A      2.465071  
    1669A      2.468943  1670A      2.471550  1671A      2.473882  
    1672A      2.482281  1673A      2.482879  1674A      2.486762  
    1675A      2.492011  1676A      2.493950  1677A      2.497179  
    1678A      2.499650  1679A      2.504222  1680A      2.512247  
    1681A      2.515181  1682A      2.517574  1683A      2.518686  
    1684A      2.524098  1685A      2.528927  1686A      2.532233  
    1687A      2.534988  1688A      2.539316  1689A      2.541063  
    1690A      2.543524  1691A      2.548098  1692A      2.548505  
    1693A      2.550156  1694A      2.552778  1695A      2.555619  
    1696A      2.556510  1697A      2.556801  1698A      2.562822  
    1699A      2.566225  1700A      2.570458  1701A      2.571343  
    1702A      2.573320  1703A      2.576016  1704A      2.579103  
    1705A      2.581533  1706A      2.584368  1707A      2.586474  
    1708A      2.587139  1709A      2.588795  1710A      2.590784  
    1711A      2.591639  1712A      2.593161  1713A      2.594587  
    1714A      2.600153  1715A      2.604082  1716A      2.606816  
    1717A      2.609632  1718A      2.613339  1719A      2.614278  
    1720A      2.619328  1721A      2.624981  1722A      2.627520  
    1723A      2.632379  1724A      2.636026  1725A      2.637209  
    1726A      2.642477  1727A      2.644542  1728A      2.646656  
    1729A      2.651724  1730A      2.653109  1731A      2.655838  
    1732A      2.657625  1733A      2.657831  1734A      2.660464  
    1735A      2.661615  1736A      2.663229  1737A      2.665066  
    1738A      2.669087  1739A      2.673068  1740A      2.674687  
    1741A      2.676248  1742A      2.677326  1743A      2.678735  
    1744A      2.682436  1745A      2.684149  1746A      2.687178  
    1747A      2.690548  1748A      2.694816  1749A      2.695226  
    1750A      2.696760  1751A      2.698261  1752A      2.702827  
    1753A      2.706236  1754A      2.706797  1755A      2.708380  
    1756A      2.712010  1757A      2.714443  1758A      2.716090  
    1759A      2.729061  1760A      2.729492  1761A      2.731832  
    1762A      2.734312  1763A      2.738984  1764A      2.755804  
    1765A      2.758486  1766A      2.767990  1767A      2.772032  
    1768A      2.776874  1769A      2.778416  1770A      2.782708  
    1771A      2.785338  1772A      2.791450  1773A      2.794232  
    1774A      2.797327  1775A      2.799768  1776A      2.801452  
    1777A      2.804972  1778A      2.808083  1779A      2.810741  
    1780A      2.815973  1781A      2.819456  1782A      2.823700  
    1783A      2.829874  1784A      2.835301  1785A      2.836034  
    1786A      2.840581  1787A      2.844162  1788A      2.848368  
    1789A      2.852039  1790A      2.854258  1791A      2.863483  
    1792A      2.864540  1793A      2.868065  1794A      2.868955  
    1795A      2.878688  1796A      2.881605  1797A      2.885048  
    1798A      2.886764  1799A      2.893561  1800A      2.897716  
    1801A      2.899292  1802A      2.906043  1803A      2.918152  
    1804A      2.921284  1805A      2.922046  1806A      2.928141  
    1807A      2.930160  1808A      2.933223  1809A      2.939037  
    1810A      2.950477  1811A      2.954701  1812A      2.961167  
    1813A      2.968727  1814A      2.970881  1815A      2.977256  
    1816A      2.983488  1817A      2.988249  1818A      2.992270  
    1819A      3.001237  1820A      3.019988  1821A      3.027066  
    1822A      3.035502  1823A      3.041126  1824A      3.046479  
    1825A      3.047707  1826A      3.053822  1827A      3.058957  
    1828A      3.061513  1829A      3.064719  1830A      3.066760  
    1831A      3.069155  1832A      3.070444  1833A      3.075040  
    1834A      3.081094  1835A      3.096350  1836A      3.100440  
    1837A      3.112006  1838A      3.116669  1839A      3.119487  
    1840A      3.125296  1841A      3.128862  1842A      3.132009  
    1843A      3.136803  1844A      3.143431  1845A      3.144802  
    1846A      3.149141  1847A      3.152991  1848A      3.155899  
    1849A      3.160083  1850A      3.161552  1851A      3.165277  
    1852A      3.170460  1853A      3.171049  1854A      3.176769  
    1855A      3.178549  1856A      3.180484  1857A      3.193496  
    1858A      3.200806  1859A      3.204515  1860A      3.210961  
    1861A      3.223663  1862A      3.230358  1863A      3.238865  
    1864A      3.248327  1865A      3.262092  1866A      3.266382  
    1867A      3.268350  1868A      3.273969  1869A      3.276016  
    1870A      3.279862  1871A      3.283487  1872A      3.284041  
    1873A      3.286177  1874A      3.292073  1875A      3.300395  
    1876A      3.308092  1877A      3.327495  1878A      3.344165  
    1879A      3.359878  1880A      3.366949  1881A      3.374667  
    1882A      3.376805  1883A      3.402782  1884A      3.409865  
    1885A      3.417678  1886A      3.420393  1887A      3.430119  
    1888A      3.450016  1889A      3.459583  1890A      3.470232  
    1891A      3.474182  1892A      3.478812  1893A      3.491117  
    1894A      3.499638  1895A      3.502996  1896A      3.517621  
    1897A      3.520301  1898A      3.528963  1899A      3.538449  
    1900A      3.540582  1901A      3.547623  1902A      3.559068  
    1903A      3.570618  1904A      3.582309  1905A      3.592646  
    1906A      3.599319  1907A      3.606520  1908A      3.616121  
    1909A      3.621414  1910A      3.629260  1911A      3.652271  
    1912A      3.690694  1913A      3.700356  1914A      3.720078  
    1915A      3.729776  1916A      3.737360  1917A      3.752422  
    1918A      3.761552  1919A      3.771861  1920A      3.777740  
    1921A      3.789354  1922A      3.798793  1923A      3.807430  
    1924A      3.827173  1925A      3.830613  1926A      3.848244  
    1927A      3.862994  1928A      3.878113  1929A      3.888728  
    1930A      3.911645  1931A      3.932137  1932A      3.936069  
    1933A      3.938165  1934A      3.949356  1935A      3.956690  
    1936A      3.972036  1937A      3.982459  1938A      4.005201  
    1939A      4.025117  1940A      4.030551  1941A      4.049573  
    1942A      4.076488  1943A      4.134664  1944A      4.175773  
    1945A      4.230455  1946A      4.256903  1947A      4.418358  
    1948A      4.426863  1949A      4.470534  1950A      4.504003  
    1951A      4.566542  1952A      4.652355  1953A      4.707106  
    1954A      4.791425  1955A      4.916071  1956A      4.993802  
    1957A      5.083350  1958A      5.097093  1959A      5.134306  
    1960A      5.165067  1961A      5.193484  1962A      5.250498  
    1963A      5.258950  1964A      5.304188  1965A      5.360178  
    1966A      5.432064  1967A      5.496436  1968A      5.565854  
    1969A      5.867396  1970A      5.925395  1971A      6.124147  
    1972A     18.266903  1973A     18.566872  1974A     18.608596  
    1975A     18.731847  1976A     19.111874  1977A     25.391784  
    1978A     25.434685  

    Final Occupation by Irrep:
              A 
    DOCC [   300 ]
    NA   [   300 ]
    NB   [   300 ]

  @DF-RHF Final Energy: -3650.34469794646930

   => Energetics <=

    Nuclear Repulsion Energy =          15611.4211649754324753
    One-Electron Energy =              -36072.2622229429471190
    Two-Electron Energy =               16810.4963600210467121
    Total Energy =                      -3650.3446979464679316

Computation Completed


Properties will be evaluated at   0.000000,   0.000000,   0.000000 [a0]

Properties computed using the SCF density matrix


 Multipole Moments:

 ------------------------------------------------------------------------------------
     Multipole            Electronic (a.u.)      Nuclear  (a.u.)        Total (a.u.)
 ------------------------------------------------------------------------------------

 L = 1.  Multiply by 2.5417464519 to convert [e a0] to [Debye]
 Dipole X            :         -0.0004197            0.0002112           -0.0002085
 Dipole Y            :          0.0002006           -0.0044281           -0.0042275
 Dipole Z            :        190.1841853         -190.1818020            0.0023833
 Magnitude           :                                                    0.0048575

 ------------------------------------------------------------------------------------

*** tstop() called on n2cn0412 at Sat Jan 27 02:31:21 2024
Module time:
	user time   =   20410.02 seconds =     340.17 minutes
	system time =    1434.48 seconds =      23.91 minutes
	total time  =       3968 seconds =      66.13 minutes
Total time:
	user time   =   63450.93 seconds =    1057.52 minutes
	system time =    4570.53 seconds =      76.18 minutes
	total time  =      11440 seconds =     190.67 minutes
  Constructing Basis Sets for SAPT...

   => Loading Basis Set <=

    Name: (JUN-CC-PVDZ AUX)
    Role: RIFIT
    Keyword: DF_BASIS_SAPT
    atoms 1-2, 4-5, 10, 17-34, 41-53, 56-70, 73-89, 92-104, 109-119, 122-130 entry C          line   100 file /opt/software/pc2/EB-SW/software/PSI4/1.9-foss-2022a/share/psi4/basis/jun-cc-pvdz-ri.gbs 
    atoms 3, 6                                                               entry N          line   144 file /opt/software/pc2/EB-SW/software/PSI4/1.9-foss-2022a/share/psi4/basis/jun-cc-pvdz-ri.gbs 
    atoms 7-9, 11-16, 35-40, 54-55, 71-72, 90-91, 105-108, 120-121, 131-136  entry H          line    30 file /opt/software/pc2/EB-SW/software/PSI4/1.9-foss-2022a/share/psi4/basis/jun-cc-pvdz-ri.gbs 

   => Loading Basis Set <=

    Name: (JUN-CC-PVDZ AUX)
    Role: JKFIT
    Keyword: DF_BASIS_ELST
    atoms 1-2, 4-5, 10, 17-34, 41-53, 56-70, 73-89, 92-104, 109-119, 122-130 entry C          line   146 file /opt/software/pc2/EB-SW/software/PSI4/1.9-foss-2022a/share/psi4/basis/jun-cc-pvdz-jkfit.gbs 
    atoms 3, 6                                                               entry N          line   202 file /opt/software/pc2/EB-SW/software/PSI4/1.9-foss-2022a/share/psi4/basis/jun-cc-pvdz-jkfit.gbs 
    atoms 7-9, 11-16, 35-40, 54-55, 71-72, 90-91, 105-108, 120-121, 131-136  entry H          line    70 file /opt/software/pc2/EB-SW/software/PSI4/1.9-foss-2022a/share/psi4/basis/jun-cc-pvdz-jkfit.gbs 


  //>>>>>>>>>>>>>>>>>>>>>>>>>>>>>>>>>>>//
  //               SSAPT0              //
  //<<<<<<<<<<<<<<<<<<<<<<<<<<<<<<<<<<<//


*** tstart() called on n2cn0412
*** at Sat Jan 27 02:31:22 2024

        SAPT0  
    Ed Hohenstein
     6 June 2009

      Orbital Information
  --------------------------
    NSO        =      2019
    NMO        =      1978
    NRI        =      7157
    NRI (Elst) =      8896
    NOCC A     =        26
    NOCC B     =       300
    FOCC A     =         7
    FOCC B     =        96
    NVIR A     =      1952
    NVIR B     =      1678

    Elst10,r            =    -0.332534111903 [Eh]
    Exch10              =     0.902245197601 [Eh]
    Exch10 (S^2)        =     0.831236007488 [Eh]

    Iter     Energy [mEh]          dE [mEh]         Residual      Time [s]
       1    -191.91732078     191.917320783      85.720930205           405
       2    -232.48234734      40.565026560      30.184063976           781
       3    -241.67680427       9.194456925       6.911452359          1104
       4    -241.40814369      -0.268660576       2.556908368          1362
       5    -240.91217068      -0.495973017       0.466506547          1649
       6    -240.92818659       0.016015916       0.242750678          2027
       7    -240.95280450       0.024617905       0.076948743          2358
       8    -240.94823473      -0.004569763       0.029098089          2781
       9    -240.94723130      -0.001003436       0.009661997          3095
      10    -240.94773577       0.000504474       0.002751189          3379
      11    -240.94777936       0.000043585       0.000720762          3686
      12    -240.94775178      -0.000027574       0.000297147          4134
      13    -240.94774566      -0.000006126       0.000083624          4501
      14    -240.94774993       0.000004270       0.000035378          4831
      15    -240.94775000       0.000000070       0.000014459          5136
      16    -240.94774938      -0.000000620       0.000004907          5371
      17    -240.94774941       0.000000034       0.000001537          5779
      18    -240.94774946       0.000000053       0.000000525          6245

    CHF Iterations converged


    Iter     Energy [mEh]          dE [mEh]         Residual      Time [s]
       1    -255.15541634     255.155416344     158.530686583           334
       2    -249.31211285      -5.843303494      46.054367146          1128
       3    -275.76494499      26.452832138      19.375097739          1623
       4    -281.07687869       5.311933708       4.804652371          2123
       5    -280.69621930      -0.380659397       2.267514355          2775
       6    -280.24843877      -0.447780526       0.897402458          3398
       7    -280.26101508       0.012576308       0.579998109          3967
       8    -280.35163155       0.090616469       0.254522512          4342
       9    -280.35041172      -0.001219829       0.153007490          4774
      10    -280.33507724      -0.015334476       0.085302063          5174
      11    -280.33404233      -0.001034913       0.049590977          5706
      12    -280.33830636       0.004264032       0.028994973          6226
      13    -280.33949017       0.001183806       0.016247926          6814
      14    -280.33823519      -0.001254981       0.010092789          7370
      15    -280.33789739      -0.000337800       0.005998685          7829
      16    -280.33814990       0.000252516       0.003563512          8366
      17    -280.33836060       0.000210698       0.001866935          8883
      18    -280.33825262      -0.000107983       0.001116311          9256
      19    -280.33819896      -0.000053657       0.000514002          9632
      20    -280.33822210       0.000023137       0.000275896          9958
      21    -280.33823592       0.000013819       0.000131144         10242
      22    -280.33823377      -0.000002143       0.000069138         10637
      23    -280.33822989      -0.000003881       0.000036313         11110
      24    -280.33822995       0.000000061       0.000019475         11577
      25    -280.33823084       0.000000882       0.000010429         12034
      26    -280.33823100       0.000000167       0.000004702         12558
      27    -280.33823081      -0.000000191       0.000002318         13075
      28    -280.33823074      -0.000000068       0.000000978         13633

    CHF Iterations converged

    Ind20,r (A<-B)      =    -0.240947749464 [Eh]
    Ind20,r (B<-A)      =    -0.280338230743 [Eh]
    Ind20,r             =    -0.521285980208 [Eh]
    Exch-Ind20,r (A<-B) =     0.189950228592 [Eh]
    Exch-Ind20,r (B<-A) =     0.197710996278 [Eh]
    Exch-Ind20,r        =     0.387661224870 [Eh]
    Disp20              =    -0.260482078519 [Eh]
    Disp20 (SS)         =    -0.130241039260 [Eh]
    Disp20 (OS)         =    -0.130241039260 [Eh]
    Exch-Disp20         =     0.054378517793 [Eh]
    Exch-Disp20 (SS)    =     0.031771166475 [Eh]
    Exch-Disp20 (OS)    =     0.022607351318 [Eh]

    SAPT Results 
  --------------------------------------------------------------------------------------------------------
    Electrostatics               -332.53411190 [mEh]    -208.66830557 [kcal/mol]    -873.06819052 [kJ/mol]
      Elst10,r                   -332.53411190 [mEh]    -208.66830557 [kcal/mol]    -873.06819052 [kJ/mol]

    Exchange                      902.24519760 [mEh]     566.16740916 [kcal/mol]    2368.84443995 [kJ/mol]
      Exch10                      902.24519760 [mEh]     566.16740916 [kcal/mol]    2368.84443995 [kJ/mol]
      Exch10(S^2)                 831.23600749 [mEh]     521.60846964 [kcal/mol]    2182.40983699 [kJ/mol]

    Induction                    -104.83161428 [mEh]     -65.78283111 [kcal/mol]    -275.23536538 [kJ/mol]
      Ind20,r                    -521.28598021 [mEh]    -327.11189113 [kcal/mol]   -1368.63615248 [kJ/mol]
      Exch-Ind20,r                387.66122487 [mEh]     243.26109122 [kcal/mol]    1017.80440567 [kJ/mol]
      delta HF,r (2)               28.79314105 [mEh]      18.06796879 [kcal/mol]      75.59638142 [kJ/mol]

    Dispersion                   -206.10356073 [mEh]    -129.33193694 [kcal/mol]    -541.12482414 [kJ/mol]
      Disp20                     -260.48207852 [mEh]    -163.45497202 [kcal/mol]    -683.89560293 [kJ/mol]
      Exch-Disp20                  54.37851779 [mEh]      34.12303509 [kcal/mol]     142.77077880 [kJ/mol]
      Disp20 (SS)                -130.24103926 [mEh]     -81.72748601 [kcal/mol]    -341.94780147 [kJ/mol]
      Disp20 (OS)                -130.24103926 [mEh]     -81.72748601 [kcal/mol]    -341.94780147 [kJ/mol]
      Exch-Disp20 (SS)             31.77116647 [mEh]      19.93670796 [kcal/mol]      83.41518609 [kJ/mol]
      Exch-Disp20 (OS)             22.60735132 [mEh]      14.18632713 [kcal/mol]      59.35559271 [kJ/mol]

  Total HF                        464.87947141 [mEh]     291.71627248 [kcal/mol]    1220.54088404 [kJ/mol]
  Total SAPT0                     258.77591069 [mEh]     162.38433554 [kcal/mol]     679.41605991 [kJ/mol]

  Special recipe for scaled SAPT0 (see Manual):
    Electrostatics sSAPT0        -332.53411190 [mEh]    -208.66830557 [kcal/mol]    -873.06819052 [kJ/mol]
    Exchange sSAPT0               902.24519760 [mEh]     566.16740916 [kcal/mol]    2368.84443995 [kJ/mol]
    Induction sSAPT0                3.24612820 [mEh]       2.03697620 [kcal/mol]       8.52270842 [kJ/mol]
    Dispersion sSAPT0            -190.94313955 [mEh]    -119.81862902 [kcal/mol]    -501.32114382 [kJ/mol]
  Total sSAPT0                    382.01407435 [mEh]     239.71745077 [kcal/mol]    1002.97781402 [kJ/mol]
  --------------------------------------------------------------------------------------------------------

*** tstop() called on n2cn0412 at Sat Jan 27 23:23:57 2024
Module time:
	user time   =   80049.93 seconds =    1334.17 minutes
	system time =    4404.42 seconds =      73.41 minutes
	total time  =      75155 seconds =    1252.58 minutes
Total time:
	user time   =  143502.44 seconds =    2391.71 minutes
	system time =    8974.95 seconds =     149.58 minutes
	total time  =      86596 seconds =    1443.27 minutes

    Psi4 stopped on: Saturday, 27 January 2024 11:23PM
    Psi4 wall time for execution: 1 day, 0:03:16.79

*** Psi4 exiting successfully. Buy a developer a beer!
