
    -----------------------------------------------------------------------
          Psi4: An Open-Source Ab Initio Electronic Structure Package
                               Psi4 1.9 release

                         Git: Rev {} zzzzzzz 


    D. G. A. Smith, L. A. Burns, A. C. Simmonett, R. M. Parrish,
    M. C. Schieber, R. Galvelis, P. Kraus, H. Kruse, R. Di Remigio,
    A. Alenaizan, A. M. James, S. Lehtola, J. P. Misiewicz, M. Scheurer,
    R. A. Shaw, J. B. Schriber, Y. Xie, Z. L. Glick, D. A. Sirianni,
    J. S. O'Brien, J. M. Waldrop, A. Kumar, E. G. Hohenstein,
    B. P. Pritchard, B. R. Brooks, H. F. Schaefer III, A. Yu. Sokolov,
    K. Patkowski, A. E. DePrince III, U. Bozkaya, R. A. King,
    F. A. Evangelista, J. M. Turney, T. D. Crawford, C. D. Sherrill,
    J. Chem. Phys. 152(18) 184108 (2020). https://doi.org/10.1063/5.0006002

                            Additional Code Authors
    E. T. Seidl, C. L. Janssen, E. F. Valeev, M. L. Leininger,
    J. F. Gonthier, R. M. Richard, H. R. McAlexander, M. Saitow, X. Wang,
    P. Verma, M. H. Lechner, A. Jiang, S. Behnle, A. G. Heide,
    M. F. Herbst, and D. L. Poole

             Previous Authors, Complete List of Code Contributors,
                       and Citations for Specific Modules
    https://github.com/psi4/psi4/blob/master/codemeta.json
    https://github.com/psi4/psi4/graphs/contributors
    http://psicode.org/psi4manual/master/introduction.html#citing-psifour

    -----------------------------------------------------------------------


    Psi4 started on: Monday, 22 January 2024 10:08PM

    Process ID: 2854241
    Host:       d-18-8-4
    PSIDATADIR: /home/gridsan/tfroembgen/.conda/envs/psi4test/share/psi4
    Memory:     500.0 MiB
    Threads:    12
    
  ==> Input File <==

--------------------------------------------------------------------------
memory 32 GB # how much memory is available ! Depends on the nodes/cores !

molecule dimer {
# monomer A
+1 1    # Charge and multiplicity
C  0.680067 1.417258 -7.015929
C -0.680504 1.419286 -7.015545
N -1.085635 1.420284 -5.697221
C  0.000108 1.423560 -4.915820
C -2.477365 1.469690 -5.229242
N  1.085222 1.420284 -5.697221
H  1.385146 1.409430 -7.833368
H -1.385302 1.419096 -7.833214
H -0.000009 1.425307 -3.834731
C  2.478117 1.403392 -5.232123
H  2.490592 1.430737 -4.141870
H  2.967028 0.489946 -5.579299
H  3.001428 2.278875 -5.623595
H -2.857359 2.491761 -5.309201
H -3.082679 0.799606 -5.842306
H -2.518128 1.142706 -4.189294
--
# monomer B
0 1     # Charge and multiplicity
C   1.22531237526482      0.70753866091955      0.00613762728373
C   1.22532433589282     -0.70753852257020     -0.00619318228664
C   -0.00000567409046      1.41496628609039     -0.00672680580738
C   2.45644923379077      1.41832825917820      0.00902448468363
C   0.00001130712078     -1.41497612663474      0.00347275151708
C   -1.22530046906674      0.70754574598412      0.00838914760619
C   2.45643823516184     -1.41832293188077     -0.00843833914343
C   -0.00000085313587      2.83680140328112     -0.00913035594137
C   3.68182717731192      0.70931832800114     -0.00808954934571
C   2.45512052870677      2.83422403348893     -0.00819210630633
C   3.68182158506039     -0.70933346742900      0.00798293467272
C   -1.22531311884624     -0.70752714354401     -0.00512042085974
C   1.22670006104402      3.54346985599427      0.00816696660346
C   0.00000526469929     -2.83678176723568      0.00832091913869
C   -2.45643555300670      1.41831729028492      0.00842454345199
C   2.45512389762097     -2.83422965658853      0.00783102630520
C   -1.22671388474763      3.54346943575023      0.00827029982280
C   4.91451777504333      1.42717324448953     -0.00160886631602
C   3.69315067131765      3.54279566454522     -0.00155906667985
C   -2.45643712022637     -1.41831290883911     -0.00846337726810
C   1.22670532178455     -3.54347386990643     -0.00780316414624
C   -2.45512491866593      2.83421703463423     -0.00818572995999
C   4.91452486062398     -1.42718653794377      0.00136387641845
C   1.22142509354026      4.97013443726031      0.00150231067809
C   4.89300870916237      2.82518837202648     -0.00039219795739
C   -1.22669652864725     -3.54347062507680     -0.00753595973677
C   -3.68181849668397      0.70932533873199     -0.00807686886569
C   3.69314758099218     -3.54280096939050      0.00148176697923
C   -1.22143177215231      4.97012866986289      0.00168580605083
C   6.13477145276790      0.68054831910577     -0.00083909176631
C   3.65678936045204      4.97295361556775     -0.00065042889723
C   -2.45512642789169     -2.83421472106065      0.00758666850712
C   -3.68181869921921     -0.70932533146830      0.00810055625144
C   4.89301309775526     -2.82519973363176      0.00021895393805
C   -0.00000059327114      5.65044773803267      0.00045449734393
C   6.13477559217374     -0.68055448207492      0.00042622874941
C   2.47813196269732      5.65357712333155      0.00063835075260
C   1.22142288457925     -4.97012668293268     -0.00129718634452
C   -3.69316190412301      3.54279732619245     -0.00139355922051
C   -1.22142804110313     -4.97011793159564     -0.00140994817719
C   -4.91452132810043      1.42717581899491     -0.00153192130862
C   3.65678749952045     -4.97295485423912      0.00080007163680
C   -2.47813805026426      5.65357479452875      0.00092287576113
C   -3.69314125872231     -3.54278984697859      0.00136564082345
C   -4.91451200321153     -1.42718062802730      0.00139857359209
C   -0.00000552908399     -5.65043791501335      0.00005899322272
C   -4.89302000425900      2.82518897091939     -0.00040227981744
C   2.47812647313991     -5.65357317188818     -0.00029052915548
C   -3.65679823041642      4.97295655404175     -0.00047374852278
C   -4.89299899901461     -2.82519139505969      0.00006491824035
C   -2.47812801824129     -5.65356579800621     -0.00056571680280
C   -6.13477002348955      0.68054913825639     -0.00086464346868
C   -3.65678835334731     -4.97294365097028      0.00058578382008
C   -6.13476456307132     -0.68055354348201      0.00040575295444
H   5.83528897565761      3.36927626695423      0.00396712770529
H   7.07385965258860      1.22821762089947     -0.00037744837300
H   4.60066374401555      5.51238117445323     -0.00014522814529
H   5.83528386714679     -3.36930568472863     -0.00423551337640
H   -0.00001167146422      6.73853104613662     -0.00389474766392
H   7.07386165167227     -1.22822657074368     -0.00008250934481
H   2.47331421164041      6.74068466339473      0.00017162982210
H   4.60066897122302     -5.51237575717576      0.00039007446835
H   -2.47331820069565      6.74068209160650      0.00047297644710
H   -0.00000978838621     -6.73852780445195      0.00458867820736
H   -5.83530143450167      3.36927132229595      0.00410314985360
H   2.47330840367253     -6.74068500242887      0.00027980126949
H   -4.60067436136587      5.51237839860371      0.00002010017831
H   -5.83527902699321     -3.36928859177951     -0.00451481925734
H   -2.47329986759855     -6.74067870613986     -0.00016951527498
H   -7.07385728692578      1.22822084484047     -0.00046143985387
H   -4.60067330624313     -5.51236229778631      0.00021776644566
H   -7.07385645456741     -1.22822025997701     -0.00017736581114

    units angstrom      # Angstroms are the default
    no_reorient         # Geometry fixed, default
    symmetry c1         # C1 symmetry, default
}

set {
    scf_type DF         # Density fitting, faster than exact integrals
    freeze_core True    # Freeze core electrons
    basis jun-cc-pVDZ   # Jun-cc-pVDZ basis set, recommended for sSAPT0 in https://doi.org/10.1063/1.4867135
}

energy('ssapt0')        # Compute sSAPT0 energy, includes also SAPT0
--------------------------------------------------------------------------

  Memory set to  29.802 GiB by Python driver.

Scratch directory: /state/partition1/slurm_tmp/24798302.4294967291.0/
   => Loading Basis Set <=

    Name: JUN-CC-PVDZ
    Role: ORBITAL
    Keyword: BASIS
    atoms 1-2, 4-5, 10, 17-70 entry C          line   164 file /home/gridsan/tfroembgen/.conda/envs/psi4test/share/psi4/basis/jun-cc-pvdz.gbs 
    atoms 3, 6                entry N          line   198 file /home/gridsan/tfroembgen/.conda/envs/psi4test/share/psi4/basis/jun-cc-pvdz.gbs 
    atoms 7-9, 11-16, 71-88   entry H          line    36 file /home/gridsan/tfroembgen/.conda/envs/psi4test/share/psi4/basis/jun-cc-pvdz.gbs 

   => Loading Basis Set <=

    Name: JUN-CC-PVDZ
    Role: ORBITAL
    Keyword: BASIS
    atoms 1-2, 4-5, 10, 17-70 entry C          line   164 file /home/gridsan/tfroembgen/.conda/envs/psi4test/share/psi4/basis/jun-cc-pvdz.gbs 
    atoms 3, 6                entry N          line   198 file /home/gridsan/tfroembgen/.conda/envs/psi4test/share/psi4/basis/jun-cc-pvdz.gbs 
    atoms 7-9, 11-16, 71-88   entry H          line    36 file /home/gridsan/tfroembgen/.conda/envs/psi4test/share/psi4/basis/jun-cc-pvdz.gbs 


  //>>>>>>>>>>>>>>>>>>>>>>>>>>>>>>>>>>>//
  //              Dimer HF             //
  //<<<<<<<<<<<<<<<<<<<<<<<<<<<<<<<<<<<//

   => Libint2 <=

    Primary   basis highest AM E, G, H:  7, 7, 4
    Auxiliary basis highest AM E, G, H:  7, 7, 5
    Onebody   basis highest AM E, G, H:  7, 7, 5
    Solid Harmonics ordering:            gaussian

*** tstart() called on d-18-8-4
*** at Mon Jan 22 22:08:40 2024

   => Loading Basis Set <=

    Name: JUN-CC-PVDZ
    Role: ORBITAL
    Keyword: BASIS
    atoms 1-2, 4-5, 10, 17-70 entry C          line   164 file /home/gridsan/tfroembgen/.conda/envs/psi4test/share/psi4/basis/jun-cc-pvdz.gbs 
    atoms 3, 6                entry N          line   198 file /home/gridsan/tfroembgen/.conda/envs/psi4test/share/psi4/basis/jun-cc-pvdz.gbs 
    atoms 7-9, 11-16, 71-88   entry H          line    36 file /home/gridsan/tfroembgen/.conda/envs/psi4test/share/psi4/basis/jun-cc-pvdz.gbs 


         ---------------------------------------------------------
                                   SCF
               by Justin Turney, Rob Parrish, Andy Simmonett
                          and Daniel G. A. Smith
                              RHF Reference
                       12 Threads,  30517 MiB Core
         ---------------------------------------------------------

  ==> Geometry <==

    Molecular point group: c1
    Full point group: C1

    Geometry (in Angstrom), charge = 1, multiplicity = 1:

       Center              X                  Y                   Z               Mass       
    ------------   -----------------  -----------------  -----------------  -----------------
         C            0.680066520158     1.235968212970    -6.278206857420    12.000000000000
         C           -0.680504479842     1.237996212970    -6.277822857420    12.000000000000
         N           -1.085635479842     1.238994212970    -4.959498857420    14.003074004430
         C            0.000107520158     1.242270212970    -4.178097857420    12.000000000000
         C           -2.477365479842     1.288400212970    -4.491519857420    12.000000000000
         N            1.085221520158     1.238994212970    -4.959498857420    14.003074004430
         H            1.385145520158     1.228140212970    -7.095645857420     1.007825032230
         H           -1.385302479842     1.237806212970    -7.095491857420     1.007825032230
         H           -0.000009479842     1.244017212970    -3.097008857420     1.007825032230
         C            2.478116520158     1.222102212970    -4.494400857420    12.000000000000
         H            2.490591520158     1.249447212970    -3.404147857420     1.007825032230
         H            2.967027520158     0.308656212970    -4.841576857420     1.007825032230
         H            3.001427520158     2.097585212970    -4.885872857420     1.007825032230
         H           -2.857359479842     2.310471212970    -4.571478857420     1.007825032230
         H           -3.082679479842     0.618316212970    -5.104583857420     1.007825032230
         H           -2.518128479842     0.961416212970    -3.451571857420     1.007825032230
         C            1.225311895423     0.526248873889     0.743859769864    12.000000000000
         C            1.225323856051    -0.888828309601     0.731528960293    12.000000000000
         C           -0.000006153932     1.233676499060     0.730995336772    12.000000000000
         C            2.456448753949     1.237038472148     0.746746627263    12.000000000000
         C            0.000010827279    -1.596265913665     0.741194894097    12.000000000000
         C           -1.225300948908     0.526255958954     0.746111290186    12.000000000000
         C            2.456437755320    -1.599612718911     0.729283803436    12.000000000000
         C           -0.000001332978     2.655511616251     0.728591786638    12.000000000000
         C            3.681826697470     0.528028540971     0.729632593234    12.000000000000
         C            2.455120048865     2.652934246459     0.729530036273    12.000000000000
         C            3.681821105219    -0.890623254459     0.745705077253    12.000000000000
         C           -1.225313598688    -0.888816930574     0.732601721720    12.000000000000
         C            1.226699581202     3.362180068964     0.745889109183    12.000000000000
         C            0.000004784858    -3.018071554266     0.746043061718    12.000000000000
         C           -2.456436032848     1.237027503255     0.746146686032    12.000000000000
         C            2.455123417779    -3.015519443619     0.745553168885    12.000000000000
         C           -1.226714364589     3.362179648720     0.745992442403    12.000000000000
         C            4.914517295202     1.245883457459     0.736113276264    12.000000000000
         C            3.693150191476     3.361505877515     0.736163075900    12.000000000000
         C           -2.456437600068    -1.599602695869     0.729258765312    12.000000000000
         C            1.226704841943    -3.724763656937     0.729918978434    12.000000000000
         C           -2.455125398508     2.652927247604     0.729536412620    12.000000000000
         C            4.914524380782    -1.608476324974     0.739086018998    12.000000000000
         C            1.221424613699     4.788844650230     0.739224453258    12.000000000000
         C            4.893008229321     2.643898584996     0.737329944622    12.000000000000
         C           -1.226697008489    -3.724760412107     0.730186182843    12.000000000000
         C           -3.681818976526     0.528035551702     0.729645273714    12.000000000000
         C            3.693147101150    -3.724090756421     0.739203909559    12.000000000000
         C           -1.221432251994     4.788838882833     0.739407948631    12.000000000000
         C            6.134770972926     0.499258532075     0.736883050813    12.000000000000
         C            3.656788880610     4.791663828537     0.737071713683    12.000000000000
         C           -2.455126907733    -3.015504508091     0.745308811087    12.000000000000
         C           -3.681819179061    -0.890615118499     0.745822698831    12.000000000000
         C            4.893012617914    -3.006489520662     0.737941096518    12.000000000000
         C           -0.000001073113     5.469157951002     0.738176639924    12.000000000000
         C            6.134775112332    -0.861844269105     0.738148371329    12.000000000000
         C            2.478131482856     5.472287336301     0.738360493332    12.000000000000
         C            1.221422404738    -5.151416469963     0.736424956235    12.000000000000
         C           -3.693162383965     3.361507539162     0.736328583359    12.000000000000
         C           -1.221428520945    -5.151407718626     0.736312194403    12.000000000000
         C           -4.914521807942     1.245886031965     0.736190221271    12.000000000000
         C            3.656787019679    -5.154244641269     0.738522214217    12.000000000000
         C           -2.478138530106     5.472285007498     0.738645018341    12.000000000000
         C           -3.693141738564    -3.724079634009     0.739087783403    12.000000000000
         C           -4.914512483053    -1.608470415058     0.739120716172    12.000000000000
         C           -0.000006008926    -5.831727702044     0.737781135803    12.000000000000
         C           -4.893020484101     2.643899183889     0.737319862762    12.000000000000
         C            2.478125993298    -5.834862958919     0.737431613424    12.000000000000
         C           -3.656798710258     4.791666767011     0.737248394057    12.000000000000
         C           -4.892999478856    -3.006481182090     0.737787060820    12.000000000000
         C           -2.478128498083    -5.834855585037     0.737156425777    12.000000000000
         C           -6.134770503331     0.499259351226     0.736857499111    12.000000000000
         C           -3.656788833189    -5.154233438001     0.738307926400    12.000000000000
         C           -6.134765042913    -0.861843330512     0.738127895534    12.000000000000
         H            5.835288495816     3.187986479924     0.741689270285     1.007825032230
         H            7.073859172747     1.046927833869     0.737344694207     1.007825032230
         H            4.600663264174     5.331091387423     0.737576914435     1.007825032230
         H            5.835283387305    -3.550595471759     0.733486629203     1.007825032230
         H           -0.000012151306     6.557241259106     0.733827394916     1.007825032230
         H            7.073861171831    -1.409516357774     0.737639633235     1.007825032230
         H            2.473313731799     6.559394876364     0.737893772402     1.007825032230
         H            4.600668491381    -5.693665544206     0.738112217048     1.007825032230
         H           -2.473318680537     6.559392304576     0.738195119027     1.007825032230
         H           -0.000010268228    -6.919817591482     0.742310820787     1.007825032230
         H           -5.835301914343     3.187981535266     0.741825292433     1.007825032230
         H            2.473307923831    -6.921974789459     0.738001943849     1.007825032230
         H           -4.600674841208     5.331088611573     0.737742242758     1.007825032230
         H           -5.835279506835    -3.550578378810     0.733207323322     1.007825032230
         H           -2.473300347440    -6.921968493170     0.737552627305     1.007825032230
         H           -7.073857766768     1.046931057810     0.737260702726     1.007825032230
         H           -4.600673786085    -5.693652084817     0.737939909025     1.007825032230
         H           -7.073856934409    -1.409510047007     0.737544776769     1.007825032230

  Running in c1 symmetry.

  Rotational constants: A =      0.00158  B =      0.00158  C =      0.00107 [cm^-1]
  Rotational constants: A =     47.37950  B =     47.23702  C =     32.14692 [MHz]
  Nuclear repulsion = 8036.661824892355071

  Charge       = 1
  Multiplicity = 1
  Electrons    = 394
  Nalpha       = 197
  Nbeta        = 197

  ==> Algorithm <==

  SCF Algorithm Type is DF.
  DIIS enabled.
  MOM disabled.
  Fractional occupation disabled.
  Guess Type is SAD.
  Energy threshold   = 1.00e-08
  Density threshold  = 1.00e-08
  Integral threshold = 1.00e-12

  ==> Primary Basis <==

  Basis Set: JUN-CC-PVDZ
    Blend: JUN-CC-PVDZ
    Number of shells: 569
    Number of basis functions: 1233
    Number of Cartesian functions: 1294
    Spherical Harmonics?: true
    Max angular momentum: 2

   => Loading Basis Set <=

    Name: (JUN-CC-PVDZ AUX)
    Role: JKFIT
    Keyword: DF_BASIS_SCF
    atoms 1-2, 4-5, 10, 17-70 entry C          line   146 file /home/gridsan/tfroembgen/.conda/envs/psi4test/share/psi4/basis/jun-cc-pvdz-jkfit.gbs 
    atoms 3, 6                entry N          line   202 file /home/gridsan/tfroembgen/.conda/envs/psi4test/share/psi4/basis/jun-cc-pvdz-jkfit.gbs 
    atoms 7-9, 11-16, 71-88   entry H          line    70 file /home/gridsan/tfroembgen/.conda/envs/psi4test/share/psi4/basis/jun-cc-pvdz-jkfit.gbs 

  ==> Integral Setup <==

  ==> DiskDFJK: Density-Fitted J/K Matrices <==

    J tasked:                  Yes
    K tasked:                  Yes
    wK tasked:                  No
    OpenMP threads:             12
    Integrals threads:          12
    Memory [MiB]:            22888
    Algorithm:                Disk
    Integral Cache:           SAVE
    Schwarz Cutoff:          1E-12
    Fitting Condition:       1E-10

   => Auxiliary Basis Set <=

  Basis Set: (JUN-CC-PVDZ AUX)
    Blend: JUN-CC-PVDZ-JKFIT
    Number of shells: 1890
    Number of basis functions: 5440
    Number of Cartesian functions: 6226
    Spherical Harmonics?: true
    Max angular momentum: 3

  Minimum eigenvalue in the overlap matrix is 8.2440117592E-10.
  Reciprocal condition number of the overlap matrix is 3.6511117457E-11.
    Using canonical orthogonalization.
  Overall, 14 of 1233 possible MOs eliminated.


  ==> Pre-Iterations <==

  SCF Guess: Superposition of Atomic Densities via on-the-fly atomic UHF (no occupation information).

   -------------------------
    Irrep   Nso     Nmo    
   -------------------------
     A       1233    1219 
   -------------------------
    Total    1233    1219
   -------------------------

  ==> Iterations <==

                           Total Energy        Delta E     RMS |[F,P]|

   @DF-RHF iter SAD: -2365.41161484291570   -2.36541e+03   0.00000e+00 
   @DF-RHF iter   1: -2358.20413834407236    7.20748e+00   9.45385e-04 ADIIS/DIIS
   @DF-RHF iter   2: -2359.10052057758912   -8.96382e-01   3.20457e-04 ADIIS/DIIS
   @DF-RHF iter   3: -2359.19065729330669   -9.01367e-02   1.17471e-04 ADIIS/DIIS
   @DF-RHF iter   4: -2359.20361604107302   -1.29587e-02   4.32379e-05 DIIS
   @DF-RHF iter   5: -2359.20543163718867   -1.81560e-03   9.26521e-06 DIIS
   @DF-RHF iter   6: -2359.20560128909892   -1.69652e-04   4.71739e-06 DIIS
   @DF-RHF iter   7: -2359.20566393097761   -6.26419e-05   2.14668e-06 DIIS
   @DF-RHF iter   8: -2359.20568304699054   -1.91160e-05   1.13354e-06 DIIS
   @DF-RHF iter   9: -2359.20568735597317   -4.30898e-06   2.69506e-07 DIIS
   @DF-RHF iter  10: -2359.20568759614343   -2.40170e-07   9.44126e-08 DIIS
   @DF-RHF iter  11: -2359.20568761530603   -1.91626e-08   3.79965e-08 DIIS
   @DF-RHF iter  12: -2359.20568761993536   -4.62933e-09   2.15111e-08 DIIS
   @DF-RHF iter  13: -2359.20568762103539   -1.10003e-09   1.02304e-08 DIIS
   @DF-RHF iter  14: -2359.20568762148469   -4.49290e-10   6.28827e-09 DIIS
  Energy and wave function converged.


  ==> Post-Iterations <==

    Orbital Energies [Eh]
    ---------------------

    Doubly Occupied:                                                      

       1A    -15.815649     2A    -15.815150     3A    -11.509935  
       4A    -11.442999     5A    -11.441442     6A    -11.430383  
       7A    -11.430336     8A    -11.333337     9A    -11.332288  
      10A    -11.331947    11A    -11.331223    12A    -11.330964  
      13A    -11.330591    14A    -11.330231    15A    -11.330181  
      16A    -11.329464    17A    -11.328924    18A    -11.328754  
      19A    -11.327921    20A    -11.327894    21A    -11.327377  
      22A    -11.327344    23A    -11.327225    24A    -11.327221  
      25A    -11.327016    26A    -11.327013    27A    -11.326821  
      28A    -11.326794    29A    -11.326145    30A    -11.326131  
      31A    -11.325602    32A    -11.325061    33A    -11.325056  
      34A    -11.324097    35A    -11.324057    36A    -11.323837  
      37A    -11.323835    38A    -11.323087    39A    -11.323002  
      40A    -11.322632    41A    -11.322586    42A    -11.321747  
      43A    -11.321715    44A    -11.320219    45A    -11.319304  
      46A    -11.319286    47A    -11.319149    48A    -11.319131  
      49A    -11.317715    50A    -11.317696    51A    -11.316894  
      52A    -11.316883    53A    -11.316459    54A    -11.316456  
      55A    -11.315323    56A    -11.315314    57A    -11.314866  
      58A    -11.313626    59A    -11.313615    60A    -11.312170  
      61A    -11.312159    62A     -1.559582    63A     -1.415031  
      64A     -1.314543    65A     -1.288746    66A     -1.288418  
      67A     -1.257338    68A     -1.257324    69A     -1.250059  
      70A     -1.224342    71A     -1.220487    72A     -1.216535  
      73A     -1.204208    74A     -1.204002    75A     -1.179841  
      76A     -1.179811    77A     -1.170343    78A     -1.150554  
      79A     -1.150512    80A     -1.146797    81A     -1.132353  
      82A     -1.132311    83A     -1.106430    84A     -1.099935  
      85A     -1.093082    86A     -1.090742    87A     -1.090565  
      88A     -1.084158    89A     -1.078863    90A     -1.054771  
      91A     -1.054698    92A     -1.028510    93A     -1.028481  
      94A     -1.004407    95A     -0.977903    96A     -0.961398  
      97A     -0.961295    98A     -0.956791    99A     -0.954716  
     100A     -0.954593   101A     -0.949114   102A     -0.949027  
     103A     -0.928455   104A     -0.902751   105A     -0.898204  
     106A     -0.885262   107A     -0.884764   108A     -0.879720  
     109A     -0.879626   110A     -0.860746   111A     -0.860717  
     112A     -0.831865   113A     -0.814825   114A     -0.812726  
     115A     -0.801345   116A     -0.801211   117A     -0.798350  
     118A     -0.798322   119A     -0.798185   120A     -0.793308  
     121A     -0.783636   122A     -0.771914   123A     -0.767536  
     124A     -0.765708   125A     -0.765514   126A     -0.764364  
     127A     -0.760728   128A     -0.760548   129A     -0.727285  
     130A     -0.720470   131A     -0.719052   132A     -0.716106  
     133A     -0.716087   134A     -0.710171   135A     -0.706409  
     136A     -0.705746   137A     -0.705724   138A     -0.698544  
     139A     -0.696961   140A     -0.694778   141A     -0.694761  
     142A     -0.678029   143A     -0.669882   144A     -0.669216  
     145A     -0.666192   146A     -0.666025   147A     -0.661189  
     148A     -0.659130   149A     -0.659068   150A     -0.650305  
     151A     -0.645941   152A     -0.645395   153A     -0.633650  
     154A     -0.633463   155A     -0.632826   156A     -0.632735  
     157A     -0.626172   158A     -0.620630   159A     -0.620524  
     160A     -0.606216   161A     -0.606193   162A     -0.604598  
     163A     -0.604377   164A     -0.597948   165A     -0.596148  
     166A     -0.589460   167A     -0.589344   168A     -0.578022  
     169A     -0.566235   170A     -0.562288   171A     -0.559298  
     172A     -0.555400   173A     -0.552365   174A     -0.548556  
     175A     -0.548402   176A     -0.539611   177A     -0.539344  
     178A     -0.519166   179A     -0.518961   180A     -0.506429  
     181A     -0.505485   182A     -0.505444   183A     -0.473264  
     184A     -0.473256   185A     -0.472079   186A     -0.441394  
     187A     -0.441384   188A     -0.416390   189A     -0.407816  
     190A     -0.406873   191A     -0.406745   192A     -0.377769  
     193A     -0.363356   194A     -0.353073   195A     -0.352971  
     196A     -0.292091   197A     -0.291973  

    Virtual:                                                              

     198A     -0.053256   199A     -0.053151   200A     -0.049616  
     201A     -0.046207   202A     -0.040229   203A     -0.028498  
     204A     -0.018491   205A     -0.017394   206A     -0.014134  
     207A     -0.007087   208A     -0.003823   209A     -0.003585  
     210A     -0.002744   211A     -0.001579   212A      0.001064  
     213A      0.002611   214A      0.003793   215A      0.006137  
     216A      0.007852   217A      0.008774   218A      0.013430  
     219A      0.013943   220A      0.016241   221A      0.018828  
     222A      0.019590   223A      0.021448   224A      0.022255  
     225A      0.023038   226A      0.023505   227A      0.024238  
     228A      0.024853   229A      0.033290   230A      0.034554  
     231A      0.034837   232A      0.037235   233A      0.038357  
     234A      0.038758   235A      0.040645   236A      0.041780  
     237A      0.051246   238A      0.051725   239A      0.053208  
     240A      0.055032   241A      0.055969   242A      0.057425  
     243A      0.057866   244A      0.060584   245A      0.062383  
     246A      0.064475   247A      0.065441   248A      0.066995  
     249A      0.072436   250A      0.074126   251A      0.076544  
     252A      0.077530   253A      0.078657   254A      0.079832  
     255A      0.081035   256A      0.081130   257A      0.085339  
     258A      0.088686   259A      0.090842   260A      0.091719  
     261A      0.095874   262A      0.096612   263A      0.097325  
     264A      0.098514   265A      0.103418   266A      0.103907  
     267A      0.104093   268A      0.105687   269A      0.106536  
     270A      0.114600   271A      0.115315   272A      0.115709  
     273A      0.116830   274A      0.120382   275A      0.121987  
     276A      0.122936   277A      0.125113   278A      0.125968  
     279A      0.126849   280A      0.129221   281A      0.130487  
     282A      0.131530   283A      0.133517   284A      0.136209  
     285A      0.138593   286A      0.139877   287A      0.142671  
     288A      0.143224   289A      0.145783   290A      0.149185  
     291A      0.151800   292A      0.152790   293A      0.153386  
     294A      0.155040   295A      0.155485   296A      0.155883  
     297A      0.156160   298A      0.156187   299A      0.157335  
     300A      0.161970   301A      0.163018   302A      0.164063  
     303A      0.165008   304A      0.167147   305A      0.167636  
     306A      0.169479   307A      0.170511   308A      0.170626  
     309A      0.172706   310A      0.175416   311A      0.176112  
     312A      0.177271   313A      0.177992   314A      0.180042  
     315A      0.180931   316A      0.181805   317A      0.182924  
     318A      0.185378   319A      0.186648   320A      0.189064  
     321A      0.192198   322A      0.193203   323A      0.195059  
     324A      0.196094   325A      0.196769   326A      0.198321  
     327A      0.198651   328A      0.199584   329A      0.200312  
     330A      0.204281   331A      0.205477   332A      0.205653  
     333A      0.208774   334A      0.209612   335A      0.211550  
     336A      0.211710   337A      0.212084   338A      0.213013  
     339A      0.213867   340A      0.218628   341A      0.220731  
     342A      0.221298   343A      0.223201   344A      0.227121  
     345A      0.229519   346A      0.230968   347A      0.233028  
     348A      0.238957   349A      0.240576   350A      0.241096  
     351A      0.242189   352A      0.243814   353A      0.243959  
     354A      0.245896   355A      0.247758   356A      0.248387  
     357A      0.248680   358A      0.249400   359A      0.250294  
     360A      0.251137   361A      0.252545   362A      0.253363  
     363A      0.253911   364A      0.254755   365A      0.256366  
     366A      0.257294   367A      0.257719   368A      0.260154  
     369A      0.260974   370A      0.262842   371A      0.263728  
     372A      0.265256   373A      0.268924   374A      0.269910  
     375A      0.270697   376A      0.271737   377A      0.275986  
     378A      0.276966   379A      0.280233   380A      0.282031  
     381A      0.282978   382A      0.284291   383A      0.284635  
     384A      0.286422   385A      0.288053   386A      0.290784  
     387A      0.290969   388A      0.292900   389A      0.293403  
     390A      0.294400   391A      0.295147   392A      0.298565  
     393A      0.301299   394A      0.302204   395A      0.305470  
     396A      0.305935   397A      0.307121   398A      0.309674  
     399A      0.310485   400A      0.313501   401A      0.314484  
     402A      0.317884   403A      0.319109   404A      0.320386  
     405A      0.321737   406A      0.324655   407A      0.325860  
     408A      0.326747   409A      0.327173   410A      0.328015  
     411A      0.328978   412A      0.330483   413A      0.331309  
     414A      0.333396   415A      0.334586   416A      0.335303  
     417A      0.335933   418A      0.338583   419A      0.340356  
     420A      0.341499   421A      0.343159   422A      0.343380  
     423A      0.345338   424A      0.345485   425A      0.347275  
     426A      0.347528   427A      0.348545   428A      0.350185  
     429A      0.354173   430A      0.355365   431A      0.357858  
     432A      0.359052   433A      0.360120   434A      0.361381  
     435A      0.363447   436A      0.365280   437A      0.368739  
     438A      0.371780   439A      0.372680   440A      0.378669  
     441A      0.379051   442A      0.379599   443A      0.380060  
     444A      0.380695   445A      0.381450   446A      0.387036  
     447A      0.388259   448A      0.390126   449A      0.390812  
     450A      0.391380   451A      0.393481   452A      0.394666  
     453A      0.396704   454A      0.397815   455A      0.399312  
     456A      0.400810   457A      0.402353   458A      0.406040  
     459A      0.408097   460A      0.408770   461A      0.410448  
     462A      0.411891   463A      0.414229   464A      0.417127  
     465A      0.418035   466A      0.419365   467A      0.420598  
     468A      0.421809   469A      0.429384   470A      0.429700  
     471A      0.431639   472A      0.432794   473A      0.433613  
     474A      0.434856   475A      0.435944   476A      0.436780  
     477A      0.438926   478A      0.442221   479A      0.445524  
     480A      0.448364   481A      0.450006   482A      0.450398  
     483A      0.451144   484A      0.454864   485A      0.456420  
     486A      0.461116   487A      0.461654   488A      0.463614  
     489A      0.472090   490A      0.472692   491A      0.474372  
     492A      0.475788   493A      0.479286   494A      0.483160  
     495A      0.483979   496A      0.484593   497A      0.484879  
     498A      0.485746   499A      0.489135   500A      0.491737  
     501A      0.491901   502A      0.493005   503A      0.494979  
     504A      0.496990   505A      0.497487   506A      0.502308  
     507A      0.504610   508A      0.514263   509A      0.518042  
     510A      0.524748   511A      0.526277   512A      0.531188  
     513A      0.531596   514A      0.531952   515A      0.540216  
     516A      0.540572   517A      0.548423   518A      0.549245  
     519A      0.553070   520A      0.555412   521A      0.561390  
     522A      0.561785   523A      0.576685   524A      0.581206  
     525A      0.587256   526A      0.588719   527A      0.600632  
     528A      0.601521   529A      0.603807   530A      0.611119  
     531A      0.611582   532A      0.617175   533A      0.637670  
     534A      0.649784   535A      0.650290   536A      0.659918  
     537A      0.667970   538A      0.674701   539A      0.677610  
     540A      0.678089   541A      0.678983   542A      0.679486  
     543A      0.684830   544A      0.689783   545A      0.691366  
     546A      0.691784   547A      0.696849   548A      0.697489  
     549A      0.708759   550A      0.713570   551A      0.721138  
     552A      0.725050   553A      0.731820   554A      0.732203  
     555A      0.733348   556A      0.737397   557A      0.738293  
     558A      0.743172   559A      0.743998   560A      0.745783  
     561A      0.748742   562A      0.753771   563A      0.758688  
     564A      0.759704   565A      0.762951   566A      0.763761  
     567A      0.765708   568A      0.770686   569A      0.772522  
     570A      0.777241   571A      0.785392   572A      0.790527  
     573A      0.792030   574A      0.792679   575A      0.793118  
     576A      0.798330   577A      0.798497   578A      0.800192  
     579A      0.803281   580A      0.809132   581A      0.811323  
     582A      0.812939   583A      0.813819   584A      0.814655  
     585A      0.819342   586A      0.820434   587A      0.821682  
     588A      0.824762   589A      0.827240   590A      0.827948  
     591A      0.830733   592A      0.833836   593A      0.834420  
     594A      0.838024   595A      0.839550   596A      0.843540  
     597A      0.845671   598A      0.846962   599A      0.848288  
     600A      0.850414   601A      0.851692   602A      0.855786  
     603A      0.856940   604A      0.858518   605A      0.859696  
     606A      0.864842   607A      0.865510   608A      0.868498  
     609A      0.869316   610A      0.872666   611A      0.873933  
     612A      0.876253   613A      0.879760   614A      0.882347  
     615A      0.885170   616A      0.889836   617A      0.891206  
     618A      0.894602   619A      0.895287   620A      0.900153  
     621A      0.903367   622A      0.905737   623A      0.906930  
     624A      0.908473   625A      0.909693   626A      0.910108  
     627A      0.911798   628A      0.914106   629A      0.916008  
     630A      0.917108   631A      0.918567   632A      0.921520  
     633A      0.923721   634A      0.928843   635A      0.930063  
     636A      0.937717   637A      0.939779   638A      0.941007  
     639A      0.945387   640A      0.950461   641A      0.953535  
     642A      0.953632   643A      0.955876   644A      0.955951  
     645A      0.958067   646A      0.963968   647A      0.968585  
     648A      0.969597   649A      0.971117   650A      0.972909  
     651A      0.976583   652A      0.977379   653A      0.978512  
     654A      0.979472   655A      0.980192   656A      0.980838  
     657A      0.981571   658A      0.983084   659A      0.984937  
     660A      0.987585   661A      0.990986   662A      0.992009  
     663A      0.993539   664A      0.993960   665A      0.996205  
     666A      0.997868   667A      1.000799   668A      1.004224  
     669A      1.008317   670A      1.008625   671A      1.011145  
     672A      1.011988   673A      1.015668   674A      1.017730  
     675A      1.020782   676A      1.022368   677A      1.025707  
     678A      1.026352   679A      1.027101   680A      1.034467  
     681A      1.035180   682A      1.038244   683A      1.040993  
     684A      1.041466   685A      1.042488   686A      1.044390  
     687A      1.046869   688A      1.048272   689A      1.050284  
     690A      1.051274   691A      1.053262   692A      1.055659  
     693A      1.058962   694A      1.059529   695A      1.063651  
     696A      1.065337   697A      1.068305   698A      1.069798  
     699A      1.072268   700A      1.072989   701A      1.074047  
     702A      1.074621   703A      1.078007   704A      1.079642  
     705A      1.086799   706A      1.087972   707A      1.091109  
     708A      1.100786   709A      1.102249   710A      1.106998  
     711A      1.110261   712A      1.112043   713A      1.114380  
     714A      1.117232   715A      1.119325   716A      1.120945  
     717A      1.126584   718A      1.130519   719A      1.135749  
     720A      1.137337   721A      1.138334   722A      1.140446  
     723A      1.148201   724A      1.154711   725A      1.155740  
     726A      1.156013   727A      1.157347   728A      1.160901  
     729A      1.163211   730A      1.172762   731A      1.173894  
     732A      1.176194   733A      1.178116   734A      1.178448  
     735A      1.192066   736A      1.194175   737A      1.196157  
     738A      1.197072   739A      1.198728   740A      1.200779  
     741A      1.201103   742A      1.203111   743A      1.204222  
     744A      1.207103   745A      1.213608   746A      1.214087  
     747A      1.228996   748A      1.230051   749A      1.231355  
     750A      1.232785   751A      1.235690   752A      1.237839  
     753A      1.242469   754A      1.245669   755A      1.246090  
     756A      1.246943   757A      1.253178   758A      1.256479  
     759A      1.259852   760A      1.261500   761A      1.263738  
     762A      1.263871   763A      1.266715   764A      1.273311  
     765A      1.278564   766A      1.282116   767A      1.283013  
     768A      1.286370   769A      1.286998   770A      1.287762  
     771A      1.288800   772A      1.294183   773A      1.295657  
     774A      1.299647   775A      1.302990   776A      1.303917  
     777A      1.309400   778A      1.316202   779A      1.325382  
     780A      1.336963   781A      1.337189   782A      1.339415  
     783A      1.341443   784A      1.345432   785A      1.346951  
     786A      1.348123   787A      1.350095   788A      1.352317  
     789A      1.357087   790A      1.360059   791A      1.361668  
     792A      1.363337   793A      1.369566   794A      1.370493  
     795A      1.371892   796A      1.373832   797A      1.373971  
     798A      1.374960   799A      1.375872   800A      1.383362  
     801A      1.384645   802A      1.386469   803A      1.387047  
     804A      1.395556   805A      1.397872   806A      1.400186  
     807A      1.413152   808A      1.413352   809A      1.434738  
     810A      1.452114   811A      1.452518   812A      1.454222  
     813A      1.454342   814A      1.462153   815A      1.469987  
     816A      1.484526   817A      1.500610   818A      1.504559  
     819A      1.512674   820A      1.527914   821A      1.531170  
     822A      1.534111   823A      1.534713   824A      1.540019  
     825A      1.541458   826A      1.542504   827A      1.544099  
     828A      1.545159   829A      1.548316   830A      1.550263  
     831A      1.556052   832A      1.559397   833A      1.566050  
     834A      1.567489   835A      1.574172   836A      1.576053  
     837A      1.576189   838A      1.577417   839A      1.578237  
     840A      1.579153   841A      1.585940   842A      1.592709  
     843A      1.594591   844A      1.594870   845A      1.601051  
     846A      1.607221   847A      1.607720   848A      1.608957  
     849A      1.610951   850A      1.611546   851A      1.617610  
     852A      1.619590   853A      1.619873   854A      1.629626  
     855A      1.630737   856A      1.633086   857A      1.633247  
     858A      1.634207   859A      1.635848   860A      1.635985  
     861A      1.636367   862A      1.647200   863A      1.650556  
     864A      1.651267   865A      1.674456   866A      1.683540  
     867A      1.693769   868A      1.694229   869A      1.695068  
     870A      1.695973   871A      1.696608   872A      1.698863  
     873A      1.710131   874A      1.710511   875A      1.718403  
     876A      1.725321   877A      1.725462   878A      1.737628  
     879A      1.749245   880A      1.751580   881A      1.752510  
     882A      1.754169   883A      1.756237   884A      1.756561  
     885A      1.764345   886A      1.765592   887A      1.766359  
     888A      1.774059   889A      1.775284   890A      1.775492  
     891A      1.782591   892A      1.790405   893A      1.790988  
     894A      1.796713   895A      1.797071   896A      1.798709  
     897A      1.799401   898A      1.800341   899A      1.802669  
     900A      1.806474   901A      1.812134   902A      1.812229  
     903A      1.825009   904A      1.829168   905A      1.829611  
     906A      1.834752   907A      1.835373   908A      1.838162  
     909A      1.839188   910A      1.841554   911A      1.842120  
     912A      1.845085   913A      1.849536   914A      1.850272  
     915A      1.851409   916A      1.852470   917A      1.853152  
     918A      1.854149   919A      1.855474   920A      1.855975  
     921A      1.873477   922A      1.873898   923A      1.878054  
     924A      1.878664   925A      1.880885   926A      1.884108  
     927A      1.884974   928A      1.886987   929A      1.888405  
     930A      1.889326   931A      1.890813   932A      1.891470  
     933A      1.894506   934A      1.903118   935A      1.914991  
     936A      1.916301   937A      1.921576   938A      1.926981  
     939A      1.929852   940A      1.931244   941A      1.933266  
     942A      1.936127   943A      1.936369   944A      1.941363  
     945A      1.944390   946A      1.947861   947A      1.948515  
     948A      1.960497   949A      1.963653   950A      1.964312  
     951A      1.965541   952A      1.966035   953A      1.967024  
     954A      1.970385   955A      1.982598   956A      1.986189  
     957A      1.987686   958A      1.988652   959A      1.991932  
     960A      1.993132   961A      1.996239   962A      1.996466  
     963A      2.002549   964A      2.004781   965A      2.005658  
     966A      2.006820   967A      2.009336   968A      2.012635  
     969A      2.013422   970A      2.019789   971A      2.021391  
     972A      2.022846   973A      2.027522   974A      2.029189  
     975A      2.031151   976A      2.034835   977A      2.034955  
     978A      2.035997   979A      2.042748   980A      2.042943  
     981A      2.043347   982A      2.045143   983A      2.046158  
     984A      2.046560   985A      2.049486   986A      2.051178  
     987A      2.053028   988A      2.053976   989A      2.055190  
     990A      2.055953   991A      2.061984   992A      2.062139  
     993A      2.067380   994A      2.068692   995A      2.070870  
     996A      2.071270   997A      2.076274   998A      2.077458  
     999A      2.078802  1000A      2.090336  1001A      2.092342  
    1002A      2.093187  1003A      2.096183  1004A      2.096285  
    1005A      2.098814  1006A      2.103344  1007A      2.113852  
    1008A      2.115498  1009A      2.124702  1010A      2.125866  
    1011A      2.126132  1012A      2.126526  1013A      2.126818  
    1014A      2.130413  1015A      2.137914  1016A      2.151946  
    1017A      2.152271  1018A      2.152901  1019A      2.154307  
    1020A      2.159728  1021A      2.162342  1022A      2.162610  
    1023A      2.163737  1024A      2.168203  1025A      2.178762  
    1026A      2.179155  1027A      2.180901  1028A      2.181130  
    1029A      2.182847  1030A      2.189213  1031A      2.189592  
    1032A      2.195962  1033A      2.196240  1034A      2.204419  
    1035A      2.204651  1036A      2.207303  1037A      2.207733  
    1038A      2.217634  1039A      2.219874  1040A      2.234991  
    1041A      2.240736  1042A      2.245825  1043A      2.246684  
    1044A      2.250146  1045A      2.254305  1046A      2.256234  
    1047A      2.261833  1048A      2.262086  1049A      2.264443  
    1050A      2.266859  1051A      2.281191  1052A      2.284276  
    1053A      2.285685  1054A      2.286071  1055A      2.287245  
    1056A      2.299199  1057A      2.299458  1058A      2.306232  
    1059A      2.314493  1060A      2.321847  1061A      2.350854  
    1062A      2.356716  1063A      2.356989  1064A      2.357848  
    1065A      2.358796  1066A      2.368804  1067A      2.370726  
    1068A      2.373814  1069A      2.374456  1070A      2.403265  
    1071A      2.408787  1072A      2.409118  1073A      2.419917  
    1074A      2.420323  1075A      2.435744  1076A      2.454163  
    1077A      2.463296  1078A      2.464371  1079A      2.473947  
    1080A      2.479104  1081A      2.480626  1082A      2.480966  
    1083A      2.486111  1084A      2.490638  1085A      2.491135  
    1086A      2.493446  1087A      2.493519  1088A      2.495232  
    1089A      2.506083  1090A      2.506162  1091A      2.511131  
    1092A      2.511491  1093A      2.519594  1094A      2.520323  
    1095A      2.520851  1096A      2.521153  1097A      2.523653  
    1098A      2.527399  1099A      2.541954  1100A      2.558750  
    1101A      2.559096  1102A      2.560137  1103A      2.564506  
    1104A      2.565289  1105A      2.576277  1106A      2.576625  
    1107A      2.586476  1108A      2.587435  1109A      2.591490  
    1110A      2.602658  1111A      2.615771  1112A      2.617527  
    1113A      2.618088  1114A      2.623428  1115A      2.633073  
    1116A      2.633523  1117A      2.635287  1118A      2.645199  
    1119A      2.645379  1120A      2.651186  1121A      2.651386  
    1122A      2.655759  1123A      2.657111  1124A      2.670779  
    1125A      2.675112  1126A      2.687949  1127A      2.689698  
    1128A      2.690919  1129A      2.709651  1130A      2.713719  
    1131A      2.726506  1132A      2.727952  1133A      2.735044  
    1134A      2.735816  1135A      2.737023  1136A      2.752527  
    1137A      2.758660  1138A      2.760752  1139A      2.764184  
    1140A      2.778212  1141A      2.786347  1142A      2.786801  
    1143A      2.787498  1144A      2.789111  1145A      2.793362  
    1146A      2.793921  1147A      2.803392  1148A      2.836412  
    1149A      2.853797  1150A      2.854149  1151A      2.859250  
    1152A      2.869603  1153A      2.869860  1154A      2.884353  
    1155A      2.885348  1156A      2.898003  1157A      2.935800  
    1158A      2.942728  1159A      2.944439  1160A      2.947477  
    1161A      2.964696  1162A      2.995834  1163A      2.996333  
    1164A      3.001939  1165A      3.004111  1166A      3.004396  
    1167A      3.044476  1168A      3.046231  1169A      3.063376  
    1170A      3.063970  1171A      3.064452  1172A      3.071687  
    1173A      3.071963  1174A      3.080226  1175A      3.080790  
    1176A      3.082743  1177A      3.083912  1178A      3.084806  
    1179A      3.086129  1180A      3.093640  1181A      3.095320  
    1182A      3.101123  1183A      3.101628  1184A      3.126957  
    1185A      3.146659  1186A      3.152483  1187A      3.172431  
    1188A      3.206443  1189A      3.209973  1190A      3.210221  
    1191A      3.216680  1192A      3.217320  1193A      3.348968  
    1194A      3.349721  1195A      3.370518  1196A      3.414165  
    1197A      3.417007  1198A      3.463787  1199A      3.481207  
    1200A      3.509437  1201A      3.511165  1202A      3.525747  
    1203A      3.548989  1204A      3.559698  1205A      3.562385  
    1206A      3.596528  1207A      3.603802  1208A      3.701756  
    1209A      3.715300  1210A      3.716447  1211A      3.804868  
    1212A      3.805004  1213A      3.846958  1214A      3.847062  
    1215A      3.908645  1216A      3.942520  1217A      3.964179  
    1218A      3.982953  1219A      4.015948  

    Final Occupation by Irrep:
              A 
    DOCC [   197 ]
    NA   [   197 ]
    NB   [   197 ]

  @DF-RHF Final Energy: -2359.20568762148469

   => Energetics <=

    Nuclear Repulsion Energy =           8036.6618248923550709
    One-Electron Energy =              -19175.9421775331538811
    Two-Electron Energy =                8780.0746650193141249
    Total Energy =                      -2359.2056876214846852

Computation Completed


Properties will be evaluated at   0.000000,   0.000000,   0.000000 [a0]

Properties computed using the SCF density matrix


 Multipole Moments:

 ------------------------------------------------------------------------------------
     Multipole            Electronic (a.u.)      Nuclear  (a.u.)        Total (a.u.)
 ------------------------------------------------------------------------------------

 L = 1.  Multiply by 2.5417464519 to convert [e a0] to [Debye]
 Dipole X            :         -0.0020562            0.0006313           -0.0014249
 Dipole Y            :         -5.7868644            7.4856329            1.6987685
 Dipole Z            :         20.3828747          -28.3467295           -7.9638548
 Magnitude           :                                                    8.1430215

 ------------------------------------------------------------------------------------

*** tstop() called on d-18-8-4 at Mon Jan 22 22:26:28 2024
Module time:
	user time   =    4904.12 seconds =      81.74 minutes
	system time =     360.30 seconds =       6.00 minutes
	total time  =       1068 seconds =      17.80 minutes
Total time:
	user time   =    4904.12 seconds =      81.74 minutes
	system time =     360.30 seconds =       6.00 minutes
	total time  =       1068 seconds =      17.80 minutes

  //>>>>>>>>>>>>>>>>>>>>>>>>>>>>>>>>>>>//
  //            Monomer A HF           //
  //<<<<<<<<<<<<<<<<<<<<<<<<<<<<<<<<<<<//

   => Libint2 <=

    Primary   basis highest AM E, G, H:  7, 7, 4
    Auxiliary basis highest AM E, G, H:  7, 7, 5
    Onebody   basis highest AM E, G, H:  7, 7, 5
    Solid Harmonics ordering:            gaussian

*** tstart() called on d-18-8-4
*** at Mon Jan 22 22:26:28 2024

   => Loading Basis Set <=

    Name: JUN-CC-PVDZ
    Role: ORBITAL
    Keyword: BASIS
    atoms 1-2, 4-5, 10, 17-70 entry C          line   164 file /home/gridsan/tfroembgen/.conda/envs/psi4test/share/psi4/basis/jun-cc-pvdz.gbs 
    atoms 3, 6                entry N          line   198 file /home/gridsan/tfroembgen/.conda/envs/psi4test/share/psi4/basis/jun-cc-pvdz.gbs 
    atoms 7-9, 11-16, 71-88   entry H          line    36 file /home/gridsan/tfroembgen/.conda/envs/psi4test/share/psi4/basis/jun-cc-pvdz.gbs 


         ---------------------------------------------------------
                                   SCF
               by Justin Turney, Rob Parrish, Andy Simmonett
                          and Daniel G. A. Smith
                              RHF Reference
                       12 Threads,  30517 MiB Core
         ---------------------------------------------------------

  ==> Geometry <==

    Molecular point group: c1
    Full point group: C1

    Geometry (in Angstrom), charge = 1, multiplicity = 1:

       Center              X                  Y                   Z               Mass       
    ------------   -----------------  -----------------  -----------------  -----------------
         C            0.680066520158     1.235968212970    -6.278206857420    12.000000000000
         C           -0.680504479842     1.237996212970    -6.277822857420    12.000000000000
         N           -1.085635479842     1.238994212970    -4.959498857420    14.003074004430
         C            0.000107520158     1.242270212970    -4.178097857420    12.000000000000
         C           -2.477365479842     1.288400212970    -4.491519857420    12.000000000000
         N            1.085221520158     1.238994212970    -4.959498857420    14.003074004430
         H            1.385145520158     1.228140212970    -7.095645857420     1.007825032230
         H           -1.385302479842     1.237806212970    -7.095491857420     1.007825032230
         H           -0.000009479842     1.244017212970    -3.097008857420     1.007825032230
         C            2.478116520158     1.222102212970    -4.494400857420    12.000000000000
         H            2.490591520158     1.249447212970    -3.404147857420     1.007825032230
         H            2.967027520158     0.308656212970    -4.841576857420     1.007825032230
         H            3.001427520158     2.097585212970    -4.885872857420     1.007825032230
         H           -2.857359479842     2.310471212970    -4.571478857420     1.007825032230
         H           -3.082679479842     0.618316212970    -5.104583857420     1.007825032230
         H           -2.518128479842     0.961416212970    -3.451571857420     1.007825032230
      Gh(C)           1.225311895423     0.526248873889     0.743859769864    12.000000000000
      Gh(C)           1.225323856051    -0.888828309601     0.731528960293    12.000000000000
      Gh(C)          -0.000006153932     1.233676499060     0.730995336772    12.000000000000
      Gh(C)           2.456448753949     1.237038472148     0.746746627263    12.000000000000
      Gh(C)           0.000010827279    -1.596265913665     0.741194894097    12.000000000000
      Gh(C)          -1.225300948908     0.526255958954     0.746111290186    12.000000000000
      Gh(C)           2.456437755320    -1.599612718911     0.729283803436    12.000000000000
      Gh(C)          -0.000001332978     2.655511616251     0.728591786638    12.000000000000
      Gh(C)           3.681826697470     0.528028540971     0.729632593234    12.000000000000
      Gh(C)           2.455120048865     2.652934246459     0.729530036273    12.000000000000
      Gh(C)           3.681821105219    -0.890623254459     0.745705077253    12.000000000000
      Gh(C)          -1.225313598688    -0.888816930574     0.732601721720    12.000000000000
      Gh(C)           1.226699581202     3.362180068964     0.745889109183    12.000000000000
      Gh(C)           0.000004784858    -3.018071554266     0.746043061718    12.000000000000
      Gh(C)          -2.456436032848     1.237027503255     0.746146686032    12.000000000000
      Gh(C)           2.455123417779    -3.015519443619     0.745553168885    12.000000000000
      Gh(C)          -1.226714364589     3.362179648720     0.745992442403    12.000000000000
      Gh(C)           4.914517295202     1.245883457459     0.736113276264    12.000000000000
      Gh(C)           3.693150191476     3.361505877515     0.736163075900    12.000000000000
      Gh(C)          -2.456437600068    -1.599602695869     0.729258765312    12.000000000000
      Gh(C)           1.226704841943    -3.724763656937     0.729918978434    12.000000000000
      Gh(C)          -2.455125398508     2.652927247604     0.729536412620    12.000000000000
      Gh(C)           4.914524380782    -1.608476324974     0.739086018998    12.000000000000
      Gh(C)           1.221424613699     4.788844650230     0.739224453258    12.000000000000
      Gh(C)           4.893008229321     2.643898584996     0.737329944622    12.000000000000
      Gh(C)          -1.226697008489    -3.724760412107     0.730186182843    12.000000000000
      Gh(C)          -3.681818976526     0.528035551702     0.729645273714    12.000000000000
      Gh(C)           3.693147101150    -3.724090756421     0.739203909559    12.000000000000
      Gh(C)          -1.221432251994     4.788838882833     0.739407948631    12.000000000000
      Gh(C)           6.134770972926     0.499258532075     0.736883050813    12.000000000000
      Gh(C)           3.656788880610     4.791663828537     0.737071713683    12.000000000000
      Gh(C)          -2.455126907733    -3.015504508091     0.745308811087    12.000000000000
      Gh(C)          -3.681819179061    -0.890615118499     0.745822698831    12.000000000000
      Gh(C)           4.893012617914    -3.006489520662     0.737941096518    12.000000000000
      Gh(C)          -0.000001073113     5.469157951002     0.738176639924    12.000000000000
      Gh(C)           6.134775112332    -0.861844269105     0.738148371329    12.000000000000
      Gh(C)           2.478131482856     5.472287336301     0.738360493332    12.000000000000
      Gh(C)           1.221422404738    -5.151416469963     0.736424956235    12.000000000000
      Gh(C)          -3.693162383965     3.361507539162     0.736328583359    12.000000000000
      Gh(C)          -1.221428520945    -5.151407718626     0.736312194403    12.000000000000
      Gh(C)          -4.914521807942     1.245886031965     0.736190221271    12.000000000000
      Gh(C)           3.656787019679    -5.154244641269     0.738522214217    12.000000000000
      Gh(C)          -2.478138530106     5.472285007498     0.738645018341    12.000000000000
      Gh(C)          -3.693141738564    -3.724079634009     0.739087783403    12.000000000000
      Gh(C)          -4.914512483053    -1.608470415058     0.739120716172    12.000000000000
      Gh(C)          -0.000006008926    -5.831727702044     0.737781135803    12.000000000000
      Gh(C)          -4.893020484101     2.643899183889     0.737319862762    12.000000000000
      Gh(C)           2.478125993298    -5.834862958919     0.737431613424    12.000000000000
      Gh(C)          -3.656798710258     4.791666767011     0.737248394057    12.000000000000
      Gh(C)          -4.892999478856    -3.006481182090     0.737787060820    12.000000000000
      Gh(C)          -2.478128498083    -5.834855585037     0.737156425777    12.000000000000
      Gh(C)          -6.134770503331     0.499259351226     0.736857499111    12.000000000000
      Gh(C)          -3.656788833189    -5.154233438001     0.738307926400    12.000000000000
      Gh(C)          -6.134765042913    -0.861843330512     0.738127895534    12.000000000000
      Gh(H)           5.835288495816     3.187986479924     0.741689270285     1.007825032230
      Gh(H)           7.073859172747     1.046927833869     0.737344694207     1.007825032230
      Gh(H)           4.600663264174     5.331091387423     0.737576914435     1.007825032230
      Gh(H)           5.835283387305    -3.550595471759     0.733486629203     1.007825032230
      Gh(H)          -0.000012151306     6.557241259106     0.733827394916     1.007825032230
      Gh(H)           7.073861171831    -1.409516357774     0.737639633235     1.007825032230
      Gh(H)           2.473313731799     6.559394876364     0.737893772402     1.007825032230
      Gh(H)           4.600668491381    -5.693665544206     0.738112217048     1.007825032230
      Gh(H)          -2.473318680537     6.559392304576     0.738195119027     1.007825032230
      Gh(H)          -0.000010268228    -6.919817591482     0.742310820787     1.007825032230
      Gh(H)          -5.835301914343     3.187981535266     0.741825292433     1.007825032230
      Gh(H)           2.473307923831    -6.921974789459     0.738001943849     1.007825032230
      Gh(H)          -4.600674841208     5.331088611573     0.737742242758     1.007825032230
      Gh(H)          -5.835279506835    -3.550578378810     0.733207323322     1.007825032230
      Gh(H)          -2.473300347440    -6.921968493170     0.737552627305     1.007825032230
      Gh(H)          -7.073857766768     1.046931057810     0.737260702726     1.007825032230
      Gh(H)          -4.600673786085    -5.693652084817     0.737939909025     1.007825032230
      Gh(H)          -7.073856934409    -1.409510047007     0.737544776769     1.007825032230

  Running in c1 symmetry.

  Rotational constants: A =      0.00158  B =      0.00158  C =      0.00107 [cm^-1]
  Rotational constants: A =     47.37950  B =     47.23702  C =     32.14692 [MHz]
  Nuclear repulsion =  306.774908447733083

  Charge       = 1
  Multiplicity = 1
  Electrons    = 52
  Nalpha       = 26
  Nbeta        = 26

  ==> Algorithm <==

  SCF Algorithm Type is DF.
  DIIS enabled.
  MOM disabled.
  Fractional occupation disabled.
  Guess Type is SAD.
  Energy threshold   = 1.00e-08
  Density threshold  = 1.00e-08
  Integral threshold = 1.00e-12

  ==> Primary Basis <==

  Basis Set: JUN-CC-PVDZ
    Blend: JUN-CC-PVDZ
    Number of shells: 569
    Number of basis functions: 1233
    Number of Cartesian functions: 1294
    Spherical Harmonics?: true
    Max angular momentum: 2

   => Loading Basis Set <=

    Name: (JUN-CC-PVDZ AUX)
    Role: JKFIT
    Keyword: DF_BASIS_SCF
    atoms 1-2, 4-5, 10, 17-70 entry C          line   146 file /home/gridsan/tfroembgen/.conda/envs/psi4test/share/psi4/basis/jun-cc-pvdz-jkfit.gbs 
    atoms 3, 6                entry N          line   202 file /home/gridsan/tfroembgen/.conda/envs/psi4test/share/psi4/basis/jun-cc-pvdz-jkfit.gbs 
    atoms 7-9, 11-16, 71-88   entry H          line    70 file /home/gridsan/tfroembgen/.conda/envs/psi4test/share/psi4/basis/jun-cc-pvdz-jkfit.gbs 

  ==> Integral Setup <==

  ==> DiskDFJK: Density-Fitted J/K Matrices <==

    J tasked:                  Yes
    K tasked:                  Yes
    wK tasked:                  No
    OpenMP threads:             12
    Integrals threads:          12
    Memory [MiB]:            22888
    Algorithm:                Disk
    Integral Cache:           LOAD
    Schwarz Cutoff:          1E-12
    Fitting Condition:       1E-10

   => Auxiliary Basis Set <=

  Basis Set: (JUN-CC-PVDZ AUX)
    Blend: JUN-CC-PVDZ-JKFIT
    Number of shells: 1890
    Number of basis functions: 5440
    Number of Cartesian functions: 6226
    Spherical Harmonics?: true
    Max angular momentum: 3

  Minimum eigenvalue in the overlap matrix is 8.2440117592E-10.
  Reciprocal condition number of the overlap matrix is 3.6511117457E-11.
    Using canonical orthogonalization.
  Overall, 14 of 1233 possible MOs eliminated.


  ==> Pre-Iterations <==

  SCF Guess: Superposition of Atomic Densities via on-the-fly atomic UHF (no occupation information).

   -------------------------
    Irrep   Nso     Nmo    
   -------------------------
     A       1233    1219 
   -------------------------
    Total    1233    1219
   -------------------------

  ==> Iterations <==

                           Total Energy        Delta E     RMS |[F,P]|

   @DF-RHF iter SAD:  -303.36534801544497   -3.03365e+02   0.00000e+00 
   @DF-RHF iter   1:  -303.16962967612517    1.95718e-01   3.44290e-04 ADIIS/DIIS
   @DF-RHF iter   2:  -303.28399276140578   -1.14363e-01   1.15924e-04 ADIIS/DIIS
   @DF-RHF iter   3:  -303.29545816289061   -1.14654e-02   4.53767e-05 DIIS
   @DF-RHF iter   4:  -303.29736611503432   -1.90795e-03   9.91116e-06 DIIS
   @DF-RHF iter   5:  -303.29747223724252   -1.06122e-04   2.41847e-06 DIIS
   @DF-RHF iter   6:  -303.29748154737842   -9.31014e-06   6.54893e-07 DIIS
   @DF-RHF iter   7:  -303.29748262333749   -1.07596e-06   3.33036e-07 DIIS
   @DF-RHF iter   8:  -303.29748287760589   -2.54268e-07   1.34021e-07 DIIS
   @DF-RHF iter   9:  -303.29748292641960   -4.88137e-08   3.37198e-08 DIIS
   @DF-RHF iter  10:  -303.29748292925024   -2.83063e-09   1.26197e-08 DIIS
   @DF-RHF iter  11:  -303.29748292949688   -2.46644e-10   2.95566e-09 DIIS
  Energy and wave function converged.


  ==> Post-Iterations <==

    Orbital Energies [Eh]
    ---------------------

    Doubly Occupied:                                                      

       1A    -15.834623     2A    -15.834094     3A    -11.529467  
       4A    -11.459810     5A    -11.458254     6A    -11.449636  
       7A    -11.449530     8A     -1.578102     9A     -1.433703  
      10A     -1.238551    11A     -1.189222    12A     -1.118795  
      13A     -1.022421    14A     -0.996849    15A     -0.916953  
      16A     -0.850442    17A     -0.816162    18A     -0.813085  
      19A     -0.790024    20A     -0.786164    21A     -0.781663  
      22A     -0.729641    23A     -0.725724    24A     -0.717061  
      25A     -0.596205    26A     -0.523768  

    Virtual:                                                              

      27A     -0.077359    28A     -0.072252    29A     -0.060527  
      30A     -0.052069    31A     -0.039092    32A     -0.038943  
      33A     -0.038069    34A     -0.034810    35A     -0.033635  
      36A     -0.027000    37A     -0.026005    38A     -0.015952  
      39A     -0.015152    40A     -0.014507    41A     -0.012952  
      42A     -0.010691    43A     -0.007892    44A     -0.006435  
      45A     -0.006250    46A      0.001260    47A      0.003582  
      48A      0.006149    49A      0.009508    50A      0.012510  
      51A      0.014311    52A      0.015839    53A      0.017639  
      54A      0.019454    55A      0.020913    56A      0.026532  
      57A      0.027648    58A      0.033954    59A      0.034184  
      60A      0.034835    61A      0.035425    62A      0.035750  
      63A      0.041267    64A      0.043905    65A      0.045700  
      66A      0.047251    67A      0.048346    68A      0.050180  
      69A      0.052728    70A      0.056077    71A      0.057789  
      72A      0.058574    73A      0.059478    74A      0.059645  
      75A      0.064342    76A      0.065242    77A      0.066361  
      78A      0.068050    79A      0.070123    80A      0.073125  
      81A      0.075701    82A      0.075838    83A      0.076638  
      84A      0.079474    85A      0.082653    86A      0.082946  
      87A      0.085181    88A      0.085770    89A      0.086131  
      90A      0.087287    91A      0.089012    92A      0.091638  
      93A      0.092369    94A      0.093269    95A      0.093874  
      96A      0.097629    97A      0.099493    98A      0.100271  
      99A      0.103971   100A      0.105892   101A      0.107623  
     102A      0.109183   103A      0.110548   104A      0.110595  
     105A      0.112550   106A      0.115751   107A      0.115902  
     108A      0.116422   109A      0.118239   110A      0.119222  
     111A      0.120317   112A      0.123911   113A      0.124415  
     114A      0.126018   115A      0.129276   116A      0.129799  
     117A      0.132937   118A      0.133310   119A      0.134349  
     120A      0.135281   121A      0.136816   122A      0.139059  
     123A      0.141693   124A      0.142930   125A      0.143663  
     126A      0.144694   127A      0.147673   128A      0.149153  
     129A      0.149924   130A      0.151282   131A      0.151932  
     132A      0.154596   133A      0.158313   134A      0.158808  
     135A      0.160000   136A      0.160266   137A      0.162849  
     138A      0.163507   139A      0.163998   140A      0.165070  
     141A      0.165488   142A      0.167292   143A      0.170191  
     144A      0.172192   145A      0.173609   146A      0.175469  
     147A      0.176016   148A      0.176800   149A      0.179014  
     150A      0.180509   151A      0.181663   152A      0.183099  
     153A      0.183691   154A      0.184784   155A      0.187275  
     156A      0.189141   157A      0.189685   158A      0.190408  
     159A      0.194062   160A      0.197398   161A      0.198799  
     162A      0.201064   163A      0.205213   164A      0.207224  
     165A      0.208921   166A      0.209460   167A      0.211100  
     168A      0.212892   169A      0.213604   170A      0.215117  
     171A      0.217103   172A      0.217413   173A      0.218033  
     174A      0.218501   175A      0.219293   176A      0.223534  
     177A      0.223829   178A      0.227210   179A      0.227361  
     180A      0.229507   181A      0.230357   182A      0.230831  
     183A      0.232477   184A      0.234362   185A      0.235562  
     186A      0.240546   187A      0.240798   188A      0.241721  
     189A      0.242852   190A      0.243300   191A      0.245480  
     192A      0.245733   193A      0.249759   194A      0.254894  
     195A      0.259652   196A      0.261748   197A      0.263655  
     198A      0.264387   199A      0.267970   200A      0.269053  
     201A      0.269238   202A      0.271067   203A      0.271681  
     204A      0.278103   205A      0.278527   206A      0.280766  
     207A      0.282154   208A      0.283836   209A      0.284779  
     210A      0.286507   211A      0.288592   212A      0.289656  
     213A      0.290125   214A      0.292341   215A      0.294542  
     216A      0.294762   217A      0.295800   218A      0.298168  
     219A      0.298404   220A      0.299564   221A      0.305242  
     222A      0.306171   223A      0.307116   224A      0.309067  
     225A      0.311100   226A      0.312389   227A      0.313927  
     228A      0.315972   229A      0.318886   230A      0.319629  
     231A      0.325619   232A      0.329826   233A      0.330955  
     234A      0.331249   235A      0.335462   236A      0.337801  
     237A      0.342272   238A      0.345616   239A      0.348166  
     240A      0.348856   241A      0.352267   242A      0.352900  
     243A      0.353780   244A      0.359457   245A      0.360870  
     246A      0.362074   247A      0.364088   248A      0.364359  
     249A      0.364896   250A      0.367600   251A      0.371010  
     252A      0.372338   253A      0.374163   254A      0.377791  
     255A      0.379623   256A      0.380557   257A      0.382285  
     258A      0.384079   259A      0.385943   260A      0.386532  
     261A      0.389268   262A      0.390008   263A      0.392576  
     264A      0.393349   265A      0.398059   266A      0.399261  
     267A      0.401013   268A      0.401989   269A      0.404005  
     270A      0.404420   271A      0.405325   272A      0.407856  
     273A      0.408854   274A      0.410368   275A      0.410688  
     276A      0.412280   277A      0.417298   278A      0.417730  
     279A      0.419046   280A      0.420699   281A      0.421565  
     282A      0.423000   283A      0.425486   284A      0.429410  
     285A      0.430004   286A      0.432573   287A      0.434253  
     288A      0.437586   289A      0.442268   290A      0.443450  
     291A      0.444682   292A      0.445688   293A      0.450257  
     294A      0.454401   295A      0.456236   296A      0.458453  
     297A      0.461053   298A      0.461809   299A      0.463051  
     300A      0.464434   301A      0.466653   302A      0.467425  
     303A      0.468678   304A      0.471209   305A      0.472632  
     306A      0.478294   307A      0.479012   308A      0.479601  
     309A      0.480685   310A      0.482893   311A      0.485017  
     312A      0.487471   313A      0.491562   314A      0.496638  
     315A      0.498692   316A      0.501489   317A      0.501994  
     318A      0.507003   319A      0.508954   320A      0.509639  
     321A      0.511383   322A      0.512530   323A      0.513417  
     324A      0.517717   325A      0.518489   326A      0.522098  
     327A      0.525418   328A      0.529115   329A      0.531007  
     330A      0.531541   331A      0.534239   332A      0.541406  
     333A      0.542616   334A      0.543379   335A      0.548115  
     336A      0.548564   337A      0.550443   338A      0.551765  
     339A      0.553819   340A      0.556925   341A      0.559176  
     342A      0.562444   343A      0.566379   344A      0.568230  
     345A      0.569402   346A      0.573356   347A      0.574473  
     348A      0.576726   349A      0.580227   350A      0.581538  
     351A      0.585107   352A      0.585574   353A      0.587209  
     354A      0.594876   355A      0.599203   356A      0.602725  
     357A      0.604828   358A      0.606867   359A      0.611308  
     360A      0.612613   361A      0.613400   362A      0.614954  
     363A      0.616772   364A      0.619632   365A      0.622141  
     366A      0.623262   367A      0.627281   368A      0.627923  
     369A      0.632117   370A      0.632324   371A      0.634320  
     372A      0.635578   373A      0.636609   374A      0.640199  
     375A      0.642953   376A      0.644243   377A      0.653970  
     378A      0.655392   379A      0.657069   380A      0.666349  
     381A      0.673847   382A      0.678105   383A      0.681502  
     384A      0.683664   385A      0.686563   386A      0.688058  
     387A      0.689653   388A      0.692625   389A      0.694155  
     390A      0.695575   391A      0.697641   392A      0.698903  
     393A      0.699342   394A      0.700223   395A      0.700728  
     396A      0.701337   397A      0.704095   398A      0.705496  
     399A      0.706137   400A      0.709645   401A      0.710783  
     402A      0.716202   403A      0.718298   404A      0.720158  
     405A      0.722913   406A      0.724197   407A      0.725105  
     408A      0.726849   409A      0.729299   410A      0.732949  
     411A      0.733757   412A      0.737202   413A      0.740155  
     414A      0.741224   415A      0.744873   416A      0.747124  
     417A      0.749429   418A      0.752994   419A      0.765681  
     420A      0.775181   421A      0.777169   422A      0.779129  
     423A      0.781006   424A      0.782473   425A      0.783843  
     426A      0.784979   427A      0.792814   428A      0.796877  
     429A      0.798966   430A      0.804339   431A      0.811518  
     432A      0.812225   433A      0.817560   434A      0.819712  
     435A      0.820921   436A      0.825304   437A      0.830521  
     438A      0.830707   439A      0.837731   440A      0.837962  
     441A      0.848570   442A      0.852846   443A      0.854182  
     444A      0.859225   445A      0.866454   446A      0.877445  
     447A      0.879198   448A      0.887740   449A      0.891394  
     450A      0.891880   451A      0.900252   452A      0.900842  
     453A      0.909476   454A      0.920510   455A      0.924619  
     456A      0.932781   457A      0.934204   458A      0.935833  
     459A      0.937618   460A      0.939830   461A      0.955780  
     462A      0.956082   463A      0.969702   464A      0.970198  
     465A      0.980667   466A      0.990473   467A      0.995958  
     468A      0.996206   469A      0.999460   470A      0.999594  
     471A      1.005270   472A      1.013992   473A      1.021691  
     474A      1.028923   475A      1.034522   476A      1.035645  
     477A      1.036941   478A      1.055068   479A      1.068806  
     480A      1.084006   481A      1.084353   482A      1.090253  
     483A      1.091925   484A      1.096063   485A      1.107157  
     486A      1.109397   487A      1.111229   488A      1.114782  
     489A      1.114797   490A      1.126965   491A      1.127332  
     492A      1.127515   493A      1.135457   494A      1.149731  
     495A      1.150421   496A      1.151185   497A      1.152006  
     498A      1.156180   499A      1.158019   500A      1.159971  
     501A      1.194170   502A      1.216648   503A      1.225116  
     504A      1.225235   505A      1.234336   506A      1.235832  
     507A      1.236374   508A      1.253307   509A      1.253594  
     510A      1.256805   511A      1.258358   512A      1.295902  
     513A      1.299810   514A      1.300069   515A      1.313329  
     516A      1.335097   517A      1.351245   518A      1.359095  
     519A      1.369409   520A      1.371895   521A      1.374078  
     522A      1.388677   523A      1.390731   524A      1.393902  
     525A      1.395532   526A      1.396164   527A      1.397922  
     528A      1.414615   529A      1.415778   530A      1.437021  
     531A      1.470944   532A      1.474981   533A      1.483678  
     534A      1.484228   535A      1.484978   536A      1.489658  
     537A      1.492392   538A      1.500065   539A      1.509496  
     540A      1.527146   541A      1.555454   542A      1.565789  
     543A      1.567445   544A      1.569722   545A      1.577898  
     546A      1.580874   547A      1.588306   548A      1.593354  
     549A      1.593592   550A      1.612256   551A      1.613197  
     552A      1.615550   553A      1.621669   554A      1.626933  
     555A      1.632530   556A      1.638624   557A      1.671115  
     558A      1.673931   559A      1.674560   560A      1.676596  
     561A      1.678190   562A      1.679351   563A      1.682809  
     564A      1.684759   565A      1.690453   566A      1.691058  
     567A      1.695436   568A      1.698744   569A      1.709076  
     570A      1.710803   571A      1.715001   572A      1.720837  
     573A      1.723181   574A      1.723511   575A      1.729079  
     576A      1.737927   577A      1.738386   578A      1.739760  
     579A      1.741702   580A      1.749475   581A      1.754132  
     582A      1.754383   583A      1.757272   584A      1.757438  
     585A      1.761264   586A      1.761499   587A      1.763943  
     588A      1.766147   589A      1.767408   590A      1.767911  
     591A      1.777595   592A      1.780938   593A      1.781909  
     594A      1.784737   595A      1.786511   596A      1.791017  
     597A      1.791492   598A      1.793144   599A      1.798478  
     600A      1.808099   601A      1.814212   602A      1.814994  
     603A      1.815931   604A      1.816421   605A      1.820009  
     606A      1.820719   607A      1.822244   608A      1.825643  
     609A      1.827743   610A      1.829314   611A      1.832252  
[...]
     802A      1.680068   803A      1.682667   804A      1.685421  
     805A      1.687558   806A      1.692350   807A      1.696486  
     808A      1.699025   809A      1.699550   810A      1.700299  
     811A      1.703586   812A      1.705038   813A      1.705128  
     814A      1.716531   815A      1.719283   816A      1.741899  
     817A      1.747012   818A      1.751729   819A      1.760807  
     820A      1.761152   821A      1.761500   822A      1.762080  
     823A      1.768723   824A      1.777178   825A      1.777578  
     826A      1.791979   827A      1.792151   828A      1.802828  
     829A      1.817040   830A      1.817407   831A      1.817986  
     832A      1.819224   833A      1.824981   834A      1.825114  
     835A      1.831518   836A      1.832068   837A      1.838961  
     838A      1.842484   839A      1.843416   840A      1.847931  
     841A      1.857791   842A      1.862455   843A      1.863496  
     844A      1.864378   845A      1.864617   846A      1.868632  
     847A      1.869660   848A      1.873796   849A      1.880114  
     850A      1.880489   851A      1.883834   852A      1.893519  
     853A      1.896315   854A      1.897000   855A      1.898809  
     856A      1.902920   857A      1.903882   858A      1.908255  
     859A      1.909596   860A      1.911337   861A      1.913765  
     862A      1.918147   863A      1.918445   864A      1.919204  
     865A      1.920736   866A      1.921402   867A      1.922319  
     868A      1.924900   869A      1.931859   870A      1.938884  
     871A      1.942101   872A      1.943201   873A      1.944520  
     874A      1.946454   875A      1.949007   876A      1.949118  
     877A      1.954247   878A      1.956540   879A      1.957479  
     880A      1.958123   881A      1.958497   882A      1.961720  
     883A      1.972736   884A      1.984945   885A      1.985300  
     886A      1.993278   887A      1.997595   888A      2.000279  
     889A      2.000828   890A      2.006001   891A      2.008883  
     892A      2.012480   893A      2.014026   894A      2.025749  
     895A      2.028191   896A      2.029056   897A      2.031158  
     898A      2.031627   899A      2.031967   900A      2.032625  
     901A      2.035898   902A      2.048530   903A      2.049678  
     904A      2.050170   905A      2.052604   906A      2.053884  
     907A      2.059570   908A      2.060234   909A      2.062767  
     910A      2.063259   911A      2.065015   912A      2.067662  
     913A      2.072739   914A      2.073806   915A      2.076020  
     916A      2.078618   917A      2.080064   918A      2.083144  
     919A      2.083997   920A      2.086158   921A      2.088941  
     922A      2.091998   923A      2.093070   924A      2.095961  
     925A      2.096822   926A      2.100227   927A      2.101340  
     928A      2.104531   929A      2.108251   930A      2.109699  
     931A      2.110455   932A      2.111438   933A      2.113536  
     934A      2.114722   935A      2.116696   936A      2.117677  
     937A      2.119799   938A      2.121205   939A      2.121891  
     940A      2.123532   941A      2.125503   942A      2.128291  
     943A      2.130702   944A      2.133909   945A      2.135225  
     946A      2.136584   947A      2.137861   948A      2.138834  
     949A      2.143439   950A      2.143920   951A      2.145782  
     952A      2.156547   953A      2.158480   954A      2.161322  
     955A      2.163387   956A      2.163678   957A      2.171838  
     958A      2.174096   959A      2.180021   960A      2.180717  
     961A      2.187059   962A      2.191474   963A      2.192613  
     964A      2.193533   965A      2.194461   966A      2.196005  
     967A      2.196439   968A      2.200240   969A      2.209023  
     970A      2.219644   971A      2.220417   972A      2.220813  
     973A      2.221462   974A      2.227236   975A      2.228603  
     976A      2.229700   977A      2.234730   978A      2.236949  
     979A      2.240125   980A      2.244350   981A      2.244669  
     982A      2.246110   983A      2.246730   984A      2.249271  
     985A      2.260952   986A      2.261317   987A      2.270874  
     988A      2.270993   989A      2.272672   990A      2.273028  
     991A      2.280081   992A      2.282164   993A      2.296925  
     994A      2.301205   995A      2.306815   996A      2.309132  
     997A      2.314342   998A      2.315576   999A      2.320386  
    1000A      2.323195  1001A      2.324655  1002A      2.331313  
    1003A      2.331409  1004A      2.332661  1005A      2.335665  
    1006A      2.346548  1007A      2.352411  1008A      2.352763  
    1009A      2.353781  1010A      2.354173  1011A      2.366293  
    1012A      2.367049  1013A      2.369103  1014A      2.378544  
    1015A      2.380830  1016A      2.391766  1017A      2.413119  
    1018A      2.416682  1019A      2.424203  1020A      2.424746  
    1021A      2.424814  1022A      2.436596  1023A      2.441639  
    1024A      2.441930  1025A      2.465760  1026A      2.471758  
    1027A      2.474595  1028A      2.474975  1029A      2.475609  
    1030A      2.477891  1031A      2.487277  1032A      2.487859  
    1033A      2.492880  1034A      2.493928  1035A      2.502723  
    1036A      2.520309  1037A      2.530396  1038A      2.531616  
    1039A      2.541916  1040A      2.544673  1041A      2.547073  
    1042A      2.547350  1043A      2.555058  1044A      2.555403  
    1045A      2.557339  1046A      2.560148  1047A      2.560399  
    1048A      2.573278  1049A      2.573327  1050A      2.576029  
    1051A      2.576177  1052A      2.586135  1053A      2.586483  
    1054A      2.587909  1055A      2.589973  1056A      2.591928  
    1057A      2.596831  1058A      2.607663  1059A      2.624451  
    1060A      2.624887  1061A      2.625841  1062A      2.632256  
    1063A      2.632989  1064A      2.641824  1065A      2.642609  
    1066A      2.647079  1067A      2.652376  1068A      2.652989  
    1069A      2.656671  1070A      2.664491  1071A      2.669700  
    1072A      2.677402  1073A      2.684571  1074A      2.685589  
    1075A      2.687706  1076A      2.688337  1077A      2.690573  
    1078A      2.702493  1079A      2.703094  1080A      2.713283  
    1081A      2.713355  1082A      2.719006  1083A      2.719083  
    1084A      2.723656  1085A      2.724179  1086A      2.739458  
    1087A      2.752283  1088A      2.754847  1089A      2.755491  
    1090A      2.762106  1091A      2.775030  1092A      2.779637  
    1093A      2.795489  1094A      2.796404  1095A      2.817546  
    1096A      2.827799  1097A      2.828961  1098A      2.844957  
    1099A      2.853223  1100A      2.854733  1101A      2.856375  
    1102A      2.858516  1103A      2.859258  1104A      2.861045  
    1105A      2.864620  1106A      2.871279  1107A      2.900589  
    1108A      2.910914  1109A      2.918259  1110A      2.919089  
    1111A      2.923816  1112A      2.934107  1113A      2.935524  
    1114A      2.936453  1115A      2.941456  1116A      2.950830  
    1117A      2.952811  1118A      2.963802  1119A      2.968819  
    1120A      2.990133  1121A      3.011151  1122A      3.012094  
    1123A      3.012444  1124A      3.027026  1125A      3.030111  
    1126A      3.040436  1127A      3.064709  1128A      3.064902  
    1129A      3.069390  1130A      3.071779  1131A      3.074887  
    1132A      3.110604  1133A      3.112580  1134A      3.129887  
    1135A      3.130145  1136A      3.130797  1137A      3.137718  
    1138A      3.146988  1139A      3.147168  1140A      3.147922  
    1141A      3.149158  1142A      3.150422  1143A      3.157130  
    1144A      3.159623  1145A      3.160156  1146A      3.167049  
    1147A      3.167353  1148A      3.192105  1149A      3.211661  
    1150A      3.220369  1151A      3.239025  1152A      3.275072  
    1153A      3.277568  1154A      3.277920  1155A      3.283472  
    1156A      3.283613  1157A      3.291866  1158A      3.323032  
    1159A      3.351008  1160A      3.417216  1161A      3.418214  
    1162A      3.433477  1163A      3.444099  1164A      3.483276  
    1165A      3.486212  1166A      3.531617  1167A      3.550939  
    1168A      3.577782  1169A      3.580038  1170A      3.589186  
    1171A      3.595973  1172A      3.627140  1173A      3.629888  
    1174A      3.648673  1175A      3.663644  1176A      3.671009  
    1177A      3.760163  1178A      3.769659  1179A      3.784032  
    1180A      3.785340  1181A      3.820379  1182A      3.871026  
    1183A      3.871058  1184A      3.871571  1185A      3.913799  
    1186A      3.914004  1187A      3.977079  1188A      3.978208  
    1189A      4.011277  1190A      4.035457  1191A      4.053994  
    1192A      4.088014  1193A      4.213661  1194A      4.218780  
    1195A      4.374999  1196A      4.375669  1197A      4.496725  
    1198A      4.756557  1199A      4.804775  1200A      4.837771  
    1201A      4.855056  1202A      4.945462  1203A      5.062879  
    1204A      5.066480  1205A      5.075526  1206A      5.118642  
    1207A      5.169117  1208A      5.399636  1209A      5.427942  
    1210A      5.741807  1211A      5.768904  1212A      6.071487  
    1213A     18.200890  1214A     18.464353  1215A     18.481394  
    1216A     18.566796  1217A     18.837527  1218A     25.344637  
    1219A     25.380321  

    Final Occupation by Irrep:
              A 
    DOCC [   171 ]
    NA   [   171 ]
    NB   [   171 ]

  @DF-RHF Final Energy: -2055.89320864247293

   => Energetics <=

    Nuclear Repulsion Energy =           6452.5568002797781446
    One-Electron Energy =              -15636.4757940500639961
    Two-Electron Energy =                7128.0257851278138332
    Total Energy =                      -2055.8932086424729277

Computation Completed


Properties will be evaluated at   0.000000,   0.000000,   0.000000 [a0]

Properties computed using the SCF density matrix


 Multipole Moments:

 ------------------------------------------------------------------------------------
     Multipole            Electronic (a.u.)      Nuclear  (a.u.)        Total (a.u.)
 ------------------------------------------------------------------------------------

 L = 1.  Multiply by 2.5417464519 to convert [e a0] to [Debye]
 Dipole X            :          0.0001919           -0.0000085            0.0001834
 Dipole Y            :        117.1691676         -117.1648546            0.0043130
 Dipole Z            :       -476.7703043          476.7782967            0.0079924
 Magnitude           :                                                    0.0090837

 ------------------------------------------------------------------------------------

*** tstop() called on d-18-8-4 at Mon Jan 22 23:02:58 2024
Module time:
	user time   =    2697.02 seconds =      44.95 minutes
	system time =     151.99 seconds =       2.53 minutes
	total time  =       1769 seconds =      29.48 minutes
Total time:
	user time   =    9351.65 seconds =     155.86 minutes
	system time =     673.00 seconds =      11.22 minutes
	total time  =       3258 seconds =      54.30 minutes
  Constructing Basis Sets for SAPT...

   => Loading Basis Set <=

    Name: (JUN-CC-PVDZ AUX)
    Role: RIFIT
    Keyword: DF_BASIS_SAPT
    atoms 1-2, 4-5, 10, 17-70 entry C          line   100 file /home/gridsan/tfroembgen/.conda/envs/psi4test/share/psi4/basis/jun-cc-pvdz-ri.gbs 
    atoms 3, 6                entry N          line   144 file /home/gridsan/tfroembgen/.conda/envs/psi4test/share/psi4/basis/jun-cc-pvdz-ri.gbs 
    atoms 7-9, 11-16, 71-88   entry H          line    30 file /home/gridsan/tfroembgen/.conda/envs/psi4test/share/psi4/basis/jun-cc-pvdz-ri.gbs 

   => Loading Basis Set <=

    Name: (JUN-CC-PVDZ AUX)
    Role: JKFIT
    Keyword: DF_BASIS_ELST
    atoms 1-2, 4-5, 10, 17-70 entry C          line   146 file /home/gridsan/tfroembgen/.conda/envs/psi4test/share/psi4/basis/jun-cc-pvdz-jkfit.gbs 
    atoms 3, 6                entry N          line   202 file /home/gridsan/tfroembgen/.conda/envs/psi4test/share/psi4/basis/jun-cc-pvdz-jkfit.gbs 
    atoms 7-9, 11-16, 71-88   entry H          line    70 file /home/gridsan/tfroembgen/.conda/envs/psi4test/share/psi4/basis/jun-cc-pvdz-jkfit.gbs 


  //>>>>>>>>>>>>>>>>>>>>>>>>>>>>>>>>>>>//
  //               SSAPT0              //
  //<<<<<<<<<<<<<<<<<<<<<<<<<<<<<<<<<<<//


*** tstart() called on d-18-8-4
*** at Mon Jan 22 23:02:59 2024

        SAPT0  
    Ed Hohenstein
     6 June 2009

      Orbital Information
  --------------------------
    NSO        =      1233
    NMO        =      1219
    NRI        =      4343
    NRI (Elst) =      5440
    NOCC A     =        26
    NOCC B     =       171
    FOCC A     =         7
    FOCC B     =        54
    NVIR A     =      1193
    NVIR B     =      1048

    Elst10,r            =    -0.009860878607 [Eh]
    Exch10              =     0.000094403358 [Eh]
    Exch10 (S^2)        =     0.000094399448 [Eh]

    Iter     Energy [mEh]          dE [mEh]         Residual      Time [s]
       1      -0.03874286       0.038742857       1.806123023           266
       2      -0.03690909      -0.001833764       0.470358323           423
       3      -0.04039130       0.003482210       0.130539233           607
       4      -0.04058861       0.000197303       0.057275295           706
       5      -0.04042919      -0.000159412       0.018858685           803
       6      -0.04042975       0.000000556       0.006143009          1167
       7      -0.04044227       0.000012523       0.001980219          1436
       8      -0.04044446       0.000002185       0.000531965          1757
       9      -0.04044389      -0.000000564       0.000190459          1833
      10      -0.04044363      -0.000000267       0.000048923          2128
      11      -0.04044365       0.000000022       0.000013863          2461
      12      -0.04044366       0.000000016       0.000004479          2666
      13      -0.04044367       0.000000001       0.000001477          2883
      14      -0.04044366      -0.000000002       0.000000329          3072

    CHF Iterations converged


    Iter     Energy [mEh]          dE [mEh]         Residual      Time [s]
       1      -7.11078914       7.110789142      43.763978564           279
       2      -4.85336632      -2.257422820       5.761140988           446
       3      -4.85504610       0.001679780       2.062343543           542
       4      -4.97450429       0.119458184       0.527464700           605
       5      -4.98162715       0.007122867       0.190442652           713
       6      -4.97781789      -0.003809260       0.115336010           747
       7      -4.97660876      -0.001209129       0.058381541           773
       8      -4.97741432       0.000805554       0.039362891           794
       9      -4.97783556       0.000421239       0.023618477           816
      10      -4.97765080      -0.000184753       0.015501619           922
      11      -4.97751633      -0.000134473       0.005910612          1050
      12      -4.97754284       0.000026505       0.002579530          1070
      13      -4.97756000       0.000017164       0.001152956          1094
      14      -4.97756070       0.000000699       0.000541199          1202
      15      -4.97755628      -0.000004419       0.000293668          1224
      16      -4.97755520      -0.000001082       0.000125661          1245
      17      -4.97755648       0.000001282       0.000055132          1278
      18      -4.97755663       0.000000147       0.000025928          1306
      19      -4.97755644      -0.000000193       0.000012995          1561
      20      -4.97755639      -0.000000045       0.000004651          1805
      21      -4.97755641       0.000000023       0.000001946          1955
      22      -4.97755643       0.000000012       0.000000758          1977

    CHF Iterations converged

    Ind20,r (A<-B)      =    -0.000040443664 [Eh]
    Ind20,r (B<-A)      =    -0.004977556426 [Eh]
    Ind20,r             =    -0.005018000090 [Eh]
    Exch-Ind20,r (A<-B) =     0.000001906903 [Eh]
    Exch-Ind20,r (B<-A) =     0.000018732836 [Eh]
    Exch-Ind20,r        =     0.000020639738 [Eh]
    Disp20              =    -0.004156250775 [Eh]
    Disp20 (SS)         =    -0.002078125387 [Eh]
    Disp20 (OS)         =    -0.002078125387 [Eh]
    Exch-Disp20         =     0.000012948647 [Eh]
    Exch-Disp20 (SS)    =     0.000008697959 [Eh]
    Exch-Disp20 (OS)    =     0.000004250688 [Eh]

    SAPT Results 
  --------------------------------------------------------------------------------------------------------
    Electrostatics                 -9.86087861 [mEh]      -6.18779475 [kcal/mol]     -25.88973321 [kJ/mol]
      Elst10,r                     -9.86087861 [mEh]      -6.18779475 [kcal/mol]     -25.88973321 [kJ/mol]

    Exchange                        0.09440336 [mEh]       0.05923900 [kcal/mol]       0.24785598 [kJ/mol]
      Exch10                        0.09440336 [mEh]       0.05923900 [kcal/mol]       0.24785598 [kJ/mol]
      Exch10(S^2)                   0.09439945 [mEh]       0.05923655 [kcal/mol]       0.24784572 [kJ/mol]

    Induction                      -5.22957427 [mEh]      -3.28160740 [kcal/mol]     -13.73024534 [kJ/mol]
      Ind20,r                      -5.01800009 [mEh]      -3.14884260 [kcal/mol]     -13.17475742 [kJ/mol]
      Exch-Ind20,r                  0.02063974 [mEh]       0.01295163 [kcal/mol]       0.05418963 [kJ/mol]
      delta HF,r (2)               -0.23221392 [mEh]      -0.14571643 [kcal/mol]      -0.60967755 [kJ/mol]

    Dispersion                     -4.14330213 [mEh]      -2.59996134 [kcal/mol]     -10.87823824 [kJ/mol]
      Disp20                       -4.15625077 [mEh]      -2.60808674 [kcal/mol]     -10.91223491 [kJ/mol]
      Exch-Disp20                   0.01294865 [mEh]       0.00812540 [kcal/mol]       0.03399667 [kJ/mol]
      Disp20 (SS)                  -2.07812539 [mEh]      -1.30404337 [kcal/mol]      -5.45611745 [kJ/mol]
      Disp20 (OS)                  -2.07812539 [mEh]      -1.30404337 [kcal/mol]      -5.45611745 [kJ/mol]
      Exch-Disp20 (SS)              0.00869796 [mEh]       0.00545805 [kcal/mol]       0.02283649 [kJ/mol]
      Exch-Disp20 (OS)              0.00425069 [mEh]       0.00266735 [kcal/mol]       0.01116018 [kJ/mol]

  Total HF                        -14.99604952 [mEh]      -9.41016314 [kcal/mol]     -39.37212258 [kJ/mol]
  Total SAPT0                     -19.13935164 [mEh]     -12.01012448 [kcal/mol]     -50.25036081 [kJ/mol]

  Special recipe for scaled SAPT0 (see Manual):
    Electrostatics sSAPT0          -9.86087861 [mEh]      -6.18779475 [kcal/mol]     -25.88973321 [kJ/mol]
    Exchange sSAPT0                 0.09440336 [mEh]       0.05923900 [kcal/mol]       0.24785598 [kJ/mol]
    Induction sSAPT0               -5.22957170 [mEh]      -3.28160579 [kcal/mol]     -13.73023861 [kJ/mol]
    Dispersion sSAPT0              -4.14330052 [mEh]      -2.59996033 [kcal/mol]     -10.87823401 [kJ/mol]
  Total sSAPT0                    -19.13934747 [mEh]     -12.01012186 [kcal/mol]     -50.25034986 [kJ/mol]
  --------------------------------------------------------------------------------------------------------

*** tstop() called on d-18-8-4 at Tue Jan 23 01:18:34 2024
Module time:
	user time   =    8896.12 seconds =     148.27 minutes
	system time =    1258.17 seconds =      20.97 minutes
	total time  =       8135 seconds =     135.58 minutes
Total time:
	user time   =   18249.02 seconds =     304.15 minutes
	system time =    1931.18 seconds =      32.19 minutes
	total time  =      11394 seconds =     189.90 minutes

    Psi4 stopped on: Tuesday, 23 January 2024 01:18AM
    Psi4 wall time for execution: 3:09:55.52

*** Psi4 exiting successfully. Buy a developer a beer!
