
    -----------------------------------------------------------------------
          Psi4: An Open-Source Ab Initio Electronic Structure Package
                               Psi4 1.9 release

                         Git: Rev {} zzzzzzz 


    D. G. A. Smith, L. A. Burns, A. C. Simmonett, R. M. Parrish,
    M. C. Schieber, R. Galvelis, P. Kraus, H. Kruse, R. Di Remigio,
    A. Alenaizan, A. M. James, S. Lehtola, J. P. Misiewicz, M. Scheurer,
    R. A. Shaw, J. B. Schriber, Y. Xie, Z. L. Glick, D. A. Sirianni,
    J. S. O'Brien, J. M. Waldrop, A. Kumar, E. G. Hohenstein,
    B. P. Pritchard, B. R. Brooks, H. F. Schaefer III, A. Yu. Sokolov,
    K. Patkowski, A. E. DePrince III, U. Bozkaya, R. A. King,
    F. A. Evangelista, J. M. Turney, T. D. Crawford, C. D. Sherrill,
    J. Chem. Phys. 152(18) 184108 (2020). https://doi.org/10.1063/5.0006002

                            Additional Code Authors
    E. T. Seidl, C. L. Janssen, E. F. Valeev, M. L. Leininger,
    J. F. Gonthier, R. M. Richard, H. R. McAlexander, M. Saitow, X. Wang,
    P. Verma, M. H. Lechner, A. Jiang, S. Behnle, A. G. Heide,
    M. F. Herbst, and D. L. Poole

             Previous Authors, Complete List of Code Contributors,
                       and Citations for Specific Modules
    https://github.com/psi4/psi4/blob/master/codemeta.json
    https://github.com/psi4/psi4/graphs/contributors
    http://psicode.org/psi4manual/master/introduction.html#citing-psifour

    -----------------------------------------------------------------------


    Psi4 started on: Monday, 22 January 2024 04:54PM

    Process ID: 1556941
    Host:       d-17-1-1
    PSIDATADIR: /home/gridsan/tfroembgen/.conda/envs/psi4test/share/psi4
    Memory:     500.0 MiB
    Threads:    12
    
  ==> Input File <==

--------------------------------------------------------------------------
memory 32 GB # how much memory is available ! Depends on the nodes/cores !

molecule dimer {
# monomer A
+1 1    # Charge and multiplicity
C  0.680067 -1.215929 5.208042
C -0.680504 -1.215545 5.206014
N -1.085635  0.102779 5.205016
C  0.000108  0.884180 5.201740
C -2.477365  0.570758 5.155610
N  1.085222  0.102779 5.205016
H  1.385146 -2.033368 5.215870
H -1.385302 -2.033214 5.206204
H -0.000009  1.965269 5.199993
C  2.478117  0.567877 5.221908
H  2.490592  1.658130 5.194563
H  2.967028  0.220701 6.135354
H  3.001428  0.176405 4.346425
H -2.857359  0.490799 4.133539
H -3.082679 -0.042306 5.825694
H -2.518128  1.610706 5.482594
--
# monomer B
0 1     # Charge and multiplicity
C   1.22531237526482      0.70753866091955      0.00613762728373
C   1.22532433589282     -0.70753852257020     -0.00619318228664
C   -0.00000567409046      1.41496628609039     -0.00672680580738
C   2.45644923379077      1.41832825917820      0.00902448468363
C   0.00001130712078     -1.41497612663474      0.00347275151708
C   -1.22530046906674      0.70754574598412      0.00838914760619
C   2.45643823516184     -1.41832293188077     -0.00843833914343
C   -0.00000085313587      2.83680140328112     -0.00913035594137
C   3.68182717731192      0.70931832800114     -0.00808954934571
C   2.45512052870677      2.83422403348893     -0.00819210630633
C   3.68182158506039     -0.70933346742900      0.00798293467272
C   -1.22531311884624     -0.70752714354401     -0.00512042085974
C   1.22670006104402      3.54346985599427      0.00816696660346
C   0.00000526469929     -2.83678176723568      0.00832091913869
C   -2.45643555300670      1.41831729028492      0.00842454345199
C   2.45512389762097     -2.83422965658853      0.00783102630520
C   -1.22671388474763      3.54346943575023      0.00827029982280
C   4.91451777504333      1.42717324448953     -0.00160886631602
C   3.69315067131765      3.54279566454522     -0.00155906667985
C   -2.45643712022637     -1.41831290883911     -0.00846337726810
C   1.22670532178455     -3.54347386990643     -0.00780316414624
C   -2.45512491866593      2.83421703463423     -0.00818572995999
C   4.91452486062398     -1.42718653794377      0.00136387641845
C   1.22142509354026      4.97013443726031      0.00150231067809
C   4.89300870916237      2.82518837202648     -0.00039219795739
C   -1.22669652864725     -3.54347062507680     -0.00753595973677
C   -3.68181849668397      0.70932533873199     -0.00807686886569
C   3.69314758099218     -3.54280096939050      0.00148176697923
C   -1.22143177215231      4.97012866986289      0.00168580605083
C   6.13477145276790      0.68054831910577     -0.00083909176631
C   3.65678936045204      4.97295361556775     -0.00065042889723
C   -2.45512642789169     -2.83421472106065      0.00758666850712
C   -3.68181869921921     -0.70932533146830      0.00810055625144
C   4.89301309775526     -2.82519973363176      0.00021895393805
C   -0.00000059327114      5.65044773803267      0.00045449734393
C   6.13477559217374     -0.68055448207492      0.00042622874941
C   2.47813196269732      5.65357712333155      0.00063835075260
C   1.22142288457925     -4.97012668293268     -0.00129718634452
C   -3.69316190412301      3.54279732619245     -0.00139355922051
C   -1.22142804110313     -4.97011793159564     -0.00140994817719
C   -4.91452132810043      1.42717581899491     -0.00153192130862
C   3.65678749952045     -4.97295485423912      0.00080007163680
C   -2.47813805026426      5.65357479452875      0.00092287576113
C   -3.69314125872231     -3.54278984697859      0.00136564082345
C   -4.91451200321153     -1.42718062802730      0.00139857359209
C   -0.00000552908399     -5.65043791501335      0.00005899322272
C   -4.89302000425900      2.82518897091939     -0.00040227981744
C   2.47812647313991     -5.65357317188818     -0.00029052915548
C   -3.65679823041642      4.97295655404175     -0.00047374852278
C   -4.89299899901461     -2.82519139505969      0.00006491824035
C   -2.47812801824129     -5.65356579800621     -0.00056571680280
C   -6.13477002348955      0.68054913825639     -0.00086464346868
C   -3.65678835334731     -4.97294365097028      0.00058578382008
C   -6.13476456307132     -0.68055354348201      0.00040575295444
H   5.83528897565761      3.36927626695423      0.00396712770529
H   7.07385965258860      1.22821762089947     -0.00037744837300
H   4.60066374401555      5.51238117445323     -0.00014522814529
H   5.83528386714679     -3.36930568472863     -0.00423551337640
H   -0.00001167146422      6.73853104613662     -0.00389474766392
H   7.07386165167227     -1.22822657074368     -0.00008250934481
H   2.47331421164041      6.74068466339473      0.00017162982210
H   4.60066897122302     -5.51237575717576      0.00039007446835
H   -2.47331820069565      6.74068209160650      0.00047297644710
H   -0.00000978838621     -6.73852780445195      0.00458867820736
H   -5.83530143450167      3.36927132229595      0.00410314985360
H   2.47330840367253     -6.74068500242887      0.00027980126949
H   -4.60067436136587      5.51237839860371      0.00002010017831
H   -5.83527902699321     -3.36928859177951     -0.00451481925734
H   -2.47329986759855     -6.74067870613986     -0.00016951527498
H   -7.07385728692578      1.22822084484047     -0.00046143985387
H   -4.60067330624313     -5.51236229778631      0.00021776644566
H   -7.07385645456741     -1.22822025997701     -0.00017736581114

    units angstrom      # Angstroms are the default
    no_reorient         # Geometry fixed, default
    symmetry c1         # C1 symmetry, default
}

set {
    scf_type DF         # Density fitting, faster than exact integrals
    freeze_core True    # Freeze core electrons
    basis jun-cc-pVDZ   # Jun-cc-pVDZ basis set, recommended for sSAPT0 in https://doi.org/10.1063/1.4867135
}

energy('ssapt0')        # Compute sSAPT0 energy, includes also SAPT0
--------------------------------------------------------------------------

  Memory set to  29.802 GiB by Python driver.

Scratch directory: /state/partition1/slurm_tmp/24798246.4294967291.0/
   => Loading Basis Set <=

    Name: JUN-CC-PVDZ
    Role: ORBITAL
    Keyword: BASIS
    atoms 1-2, 4-5, 10, 17-70 entry C          line   164 file /home/gridsan/tfroembgen/.conda/envs/psi4test/share/psi4/basis/jun-cc-pvdz.gbs 
    atoms 3, 6                entry N          line   198 file /home/gridsan/tfroembgen/.conda/envs/psi4test/share/psi4/basis/jun-cc-pvdz.gbs 
    atoms 7-9, 11-16, 71-88   entry H          line    36 file /home/gridsan/tfroembgen/.conda/envs/psi4test/share/psi4/basis/jun-cc-pvdz.gbs 

   => Loading Basis Set <=

    Name: JUN-CC-PVDZ
    Role: ORBITAL
    Keyword: BASIS
    atoms 1-2, 4-5, 10, 17-70 entry C          line   164 file /home/gridsan/tfroembgen/.conda/envs/psi4test/share/psi4/basis/jun-cc-pvdz.gbs 
    atoms 3, 6                entry N          line   198 file /home/gridsan/tfroembgen/.conda/envs/psi4test/share/psi4/basis/jun-cc-pvdz.gbs 
    atoms 7-9, 11-16, 71-88   entry H          line    36 file /home/gridsan/tfroembgen/.conda/envs/psi4test/share/psi4/basis/jun-cc-pvdz.gbs 


  //>>>>>>>>>>>>>>>>>>>>>>>>>>>>>>>>>>>//
  //              Dimer HF             //
  //<<<<<<<<<<<<<<<<<<<<<<<<<<<<<<<<<<<//

   => Libint2 <=

    Primary   basis highest AM E, G, H:  7, 7, 4
    Auxiliary basis highest AM E, G, H:  7, 7, 5
    Onebody   basis highest AM E, G, H:  7, 7, 5
    Solid Harmonics ordering:            gaussian

*** tstart() called on d-17-1-1
*** at Mon Jan 22 16:54:22 2024

   => Loading Basis Set <=

    Name: JUN-CC-PVDZ
    Role: ORBITAL
    Keyword: BASIS
    atoms 1-2, 4-5, 10, 17-70 entry C          line   164 file /home/gridsan/tfroembgen/.conda/envs/psi4test/share/psi4/basis/jun-cc-pvdz.gbs 
    atoms 3, 6                entry N          line   198 file /home/gridsan/tfroembgen/.conda/envs/psi4test/share/psi4/basis/jun-cc-pvdz.gbs 
    atoms 7-9, 11-16, 71-88   entry H          line    36 file /home/gridsan/tfroembgen/.conda/envs/psi4test/share/psi4/basis/jun-cc-pvdz.gbs 


         ---------------------------------------------------------
                                   SCF
               by Justin Turney, Rob Parrish, Andy Simmonett
                          and Daniel G. A. Smith
                              RHF Reference
                       12 Threads,  30517 MiB Core
         ---------------------------------------------------------

  ==> Geometry <==

    Molecular point group: c1
    Full point group: C1

    Geometry (in Angstrom), charge = 1, multiplicity = 1:

       Center              X                  Y                   Z               Mass       
    ------------   -----------------  -----------------  -----------------  -----------------
         C            0.680066520158    -1.215933861162     4.546636086235    12.000000000000
         C           -0.680504479842    -1.215549861162     4.544608086235    12.000000000000
         N           -1.085635479842     0.102774138838     4.543610086235    14.003074004430
         C            0.000107520158     0.884175138838     4.540334086235    12.000000000000
         C           -2.477365479842     0.570753138838     4.494204086235    12.000000000000
         N            1.085221520158     0.102774138838     4.543610086235    14.003074004430
         H            1.385145520158    -2.033372861162     4.554464086235     1.007825032230
         H           -1.385302479842    -2.033218861162     4.544798086235     1.007825032230
         H           -0.000009479842     1.965264138838     4.538587086235     1.007825032230
         C            2.478116520158     0.567872138838     4.560502086235    12.000000000000
         H            2.490591520158     1.658125138838     4.533157086235     1.007825032230
         H            2.967027520158     0.220696138838     5.473948086235     1.007825032230
         H            3.001427520158     0.176400138838     3.685019086235     1.007825032230
         H           -2.857359479842     0.490794138838     3.472133086235     1.007825032230
         H           -3.082679479842    -0.042310861162     5.164288086235     1.007825032230
         H           -2.518128479842     1.610701138838     4.821188086235     1.007825032230
         C            1.225311895423     0.707533799757    -0.655268286482    12.000000000000
         C            1.225323856051    -0.707543383733    -0.667599096052    12.000000000000
         C           -0.000006153932     1.414961424928    -0.668132719573    12.000000000000
         C            2.456448753949     1.418323398016    -0.652381429082    12.000000000000
         C            0.000010827279    -1.414980987797    -0.657933162248    12.000000000000
         C           -1.225300948908     0.707540884822    -0.653016766159    12.000000000000
         C            2.456437755320    -1.418327793043    -0.669844252909    12.000000000000
         C           -0.000001332978     2.836796542119    -0.670536269707    12.000000000000
         C            3.681826697470     0.709313466839    -0.669495463111    12.000000000000
         C            2.455120048865     2.834219172327    -0.669598020072    12.000000000000
         C            3.681821105219    -0.709338328591    -0.653422979093    12.000000000000
         C           -1.225313598688    -0.707532004706    -0.666526334625    12.000000000000
         C            1.226699581202     3.543464994832    -0.653238947162    12.000000000000
         C            0.000004784858    -2.836786628398    -0.653084994627    12.000000000000
         C           -2.456436032848     1.418312429123    -0.652981370313    12.000000000000
         C            2.455123417779    -2.834234517751    -0.653574887460    12.000000000000
         C           -1.226714364589     3.543464574588    -0.653135613943    12.000000000000
         C            4.914517295202     1.427168383327    -0.663014780081    12.000000000000
         C            3.693150191476     3.542790803383    -0.662964980445    12.000000000000
         C           -2.456437600068    -1.418317770001    -0.669869291033    12.000000000000
         C            1.226704841943    -3.543478731069    -0.669209077912    12.000000000000
         C           -2.455125398508     2.834212173472    -0.669591643725    12.000000000000
         C            4.914524380782    -1.427191399106    -0.660042037347    12.000000000000
         C            1.221424613699     4.970129576098    -0.659903603087    12.000000000000
         C            4.893008229321     2.825183510864    -0.661798111723    12.000000000000
         C           -1.226697008489    -3.543475486239    -0.668941873502    12.000000000000
         C           -3.681818976526     0.709320477570    -0.669482782631    12.000000000000
         C            3.693147101150    -3.542805830553    -0.659924146786    12.000000000000
         C           -1.221432251994     4.970123808701    -0.659720107715    12.000000000000
         C            6.134770972926     0.680543457943    -0.662245005532    12.000000000000
         C            3.656788880610     4.972948754405    -0.662056342663    12.000000000000
         C           -2.455126907733    -2.834219582223    -0.653819245258    12.000000000000
         C           -3.681819179061    -0.709330192631    -0.653305357514    12.000000000000
         C            4.893012617914    -2.825204594794    -0.661186959827    12.000000000000
         C           -0.000001073113     5.650442876870    -0.660951416421    12.000000000000
         C            6.134775112332    -0.680559343237    -0.660979685016    12.000000000000
         C            2.478131482856     5.653572262169    -0.660767563013    12.000000000000
         C            1.221422404738    -4.970131544095    -0.662703100110    12.000000000000
         C           -3.693162383965     3.542792465030    -0.662799472986    12.000000000000
         C           -1.221428520945    -4.970122792758    -0.662815861943    12.000000000000
         C           -4.914521807942     1.427170957833    -0.662937835074    12.000000000000
         C            3.656787019679    -4.972959715401    -0.660605842129    12.000000000000
         C           -2.478138530106     5.653569933366    -0.660483038004    12.000000000000
         C           -3.693141738564    -3.542794708141    -0.660040272942    12.000000000000
         C           -4.914512483053    -1.427185489190    -0.660007340173    12.000000000000
         C           -0.000006008926    -5.650442776176    -0.661346920543    12.000000000000
         C           -4.893020484101     2.825184109757    -0.661808193583    12.000000000000
         C            2.478125993298    -5.653578033051    -0.661696442921    12.000000000000
         C           -3.656798710258     4.972951692879    -0.661879662288    12.000000000000
         C           -4.892999478856    -2.825196256222    -0.661340995525    12.000000000000
         C           -2.478128498083    -5.653570659169    -0.661971630568    12.000000000000
         C           -6.134770503331     0.680544277094    -0.662270557234    12.000000000000
         C           -3.656788833189    -4.972948512133    -0.660820129945    12.000000000000
         C           -6.134765042913    -0.680558404644    -0.661000160811    12.000000000000
         H            5.835288495816     3.369271405792    -0.657438786060     1.007825032230
         H            7.073859172747     1.228212759737    -0.661783362138     1.007825032230
         H            4.600663264174     5.512376313291    -0.661551141911     1.007825032230
         H            5.835283387305    -3.369310545891    -0.665641427142     1.007825032230
         H           -0.000012151306     6.738526184974    -0.665300661429     1.007825032230
         H            7.073861171831    -1.228231431906    -0.661488423110     1.007825032230
         H            2.473313731799     6.740679802232    -0.661234283943     1.007825032230
         H            4.600668491381    -5.512380618338    -0.661015839297     1.007825032230
         H           -2.473318680537     6.740677230444    -0.660932937318     1.007825032230
         H           -0.000010268228    -6.738532665614    -0.656817235558     1.007825032230
         H           -5.835301914343     3.369266461134    -0.657302763912     1.007825032230
         H            2.473307923831    -6.740689863591    -0.661126112496     1.007825032230
         H           -4.600674841208     5.512373537441    -0.661385813587     1.007825032230
         H           -5.835279506835    -3.369293452942    -0.665920733023     1.007825032230
         H           -2.473300347440    -6.740683567302    -0.661575429040     1.007825032230
         H           -7.073857766768     1.228215983678    -0.661867353619     1.007825032230
         H           -4.600673786085    -5.512367158949    -0.661188147320     1.007825032230
         H           -7.073856934409    -1.228225121139    -0.661583279576     1.007825032230

  Running in c1 symmetry.

  Rotational constants: A =      0.00169  B =      0.00166  C =      0.00109 [cm^-1]
  Rotational constants: A =     50.70378  B =     49.84534  C =     32.56832 [MHz]
  Nuclear repulsion = 8122.487511338982586

  Charge       = 1
  Multiplicity = 1
  Electrons    = 394
  Nalpha       = 197
  Nbeta        = 197

  ==> Algorithm <==

  SCF Algorithm Type is DF.
  DIIS enabled.
  MOM disabled.
  Fractional occupation disabled.
  Guess Type is SAD.
  Energy threshold   = 1.00e-08
  Density threshold  = 1.00e-08
  Integral threshold = 1.00e-12

  ==> Primary Basis <==

  Basis Set: JUN-CC-PVDZ
    Blend: JUN-CC-PVDZ
    Number of shells: 569
    Number of basis functions: 1233
    Number of Cartesian functions: 1294
    Spherical Harmonics?: true
    Max angular momentum: 2

   => Loading Basis Set <=

    Name: (JUN-CC-PVDZ AUX)
    Role: JKFIT
    Keyword: DF_BASIS_SCF
    atoms 1-2, 4-5, 10, 17-70 entry C          line   146 file /home/gridsan/tfroembgen/.conda/envs/psi4test/share/psi4/basis/jun-cc-pvdz-jkfit.gbs 
    atoms 3, 6                entry N          line   202 file /home/gridsan/tfroembgen/.conda/envs/psi4test/share/psi4/basis/jun-cc-pvdz-jkfit.gbs 
    atoms 7-9, 11-16, 71-88   entry H          line    70 file /home/gridsan/tfroembgen/.conda/envs/psi4test/share/psi4/basis/jun-cc-pvdz-jkfit.gbs 

  ==> Integral Setup <==

  ==> DiskDFJK: Density-Fitted J/K Matrices <==

    J tasked:                  Yes
    K tasked:                  Yes
    wK tasked:                  No
    OpenMP threads:             12
    Integrals threads:          12
    Memory [MiB]:            22888
    Algorithm:                Disk
    Integral Cache:           SAVE
    Schwarz Cutoff:          1E-12
    Fitting Condition:       1E-10

   => Auxiliary Basis Set <=

  Basis Set: (JUN-CC-PVDZ AUX)
    Blend: JUN-CC-PVDZ-JKFIT
    Number of shells: 1890
    Number of basis functions: 5440
    Number of Cartesian functions: 6226
    Spherical Harmonics?: true
    Max angular momentum: 3

  Minimum eigenvalue in the overlap matrix is 8.2045854954E-10.
  Reciprocal condition number of the overlap matrix is 3.6052048550E-11.
    Using canonical orthogonalization.
  Overall, 14 of 1233 possible MOs eliminated.


  ==> Pre-Iterations <==

  SCF Guess: Superposition of Atomic Densities via on-the-fly atomic UHF (no occupation information).

   -------------------------
    Irrep   Nso     Nmo    
   -------------------------
     A       1233    1219 
   -------------------------
    Total    1233    1219
   -------------------------

  ==> Iterations <==

                           Total Energy        Delta E     RMS |[F,P]|

   @DF-RHF iter SAD: -2365.41179654563894   -2.36541e+03   0.00000e+00 
   @DF-RHF iter   1: -2358.20268440907103    7.20911e+00   9.46582e-04 ADIIS/DIIS
   @DF-RHF iter   2: -2359.09790275784826   -8.95218e-01   3.24508e-04 ADIIS/DIIS
   @DF-RHF iter   3: -2359.18991705942517   -9.20143e-02   1.20027e-04 ADIIS/DIIS
   @DF-RHF iter   4: -2359.20336049816660   -1.34434e-02   4.45320e-05 DIIS
   @DF-RHF iter   5: -2359.20529438834819   -1.93389e-03   1.05070e-05 DIIS
   @DF-RHF iter   6: -2359.20547642130077   -1.82033e-04   5.20494e-06 DIIS
   @DF-RHF iter   7: -2359.20554717261302   -7.07513e-05   2.29176e-06 DIIS
   @DF-RHF iter   8: -2359.20556801461180   -2.08420e-05   1.13390e-06 DIIS
   @DF-RHF iter   9: -2359.20557322335435   -5.20874e-06   2.70397e-07 DIIS
   @DF-RHF iter  10: -2359.20557347963404   -2.56280e-07   9.03303e-08 DIIS
   @DF-RHF iter  11: -2359.20557349809042   -1.84564e-08   3.63094e-08 DIIS
   @DF-RHF iter  12: -2359.20557350162471   -3.53430e-09   2.06920e-08 DIIS
   @DF-RHF iter  13: -2359.20557350233321   -7.08496e-10   6.51406e-09 DIIS
  Energy and wave function converged.


  ==> Post-Iterations <==

    Orbital Energies [Eh]
    ---------------------

    Doubly Occupied:                                                      

       1A    -15.815046     2A    -15.814509     3A    -11.510064  
       4A    -11.440490     5A    -11.438937     6A    -11.430918  
       7A    -11.430483     8A    -11.332823     9A    -11.332320  
      10A    -11.332185    11A    -11.331278    12A    -11.331247  
      13A    -11.330660    14A    -11.329836    15A    -11.329730  
      16A    -11.329633    17A    -11.329260    18A    -11.329191  
      19A    -11.328544    20A    -11.327766    21A    -11.327665  
      22A    -11.327597    23A    -11.327495    24A    -11.326996  
      25A    -11.326924    26A    -11.326923    27A    -11.326847  
      28A    -11.326764    29A    -11.326693    30A    -11.326334  
      31A    -11.326311    32A    -11.326257    33A    -11.326210  
      34A    -11.326083    35A    -11.325989    36A    -11.325964  
      37A    -11.325912    38A    -11.325824    39A    -11.325752  
      40A    -11.325453    41A    -11.325429    42A    -11.324931  
      43A    -11.324922    44A    -11.319256    45A    -11.319167  
      46A    -11.318979    47A    -11.318633    48A    -11.318612  
      49A    -11.318046    50A    -11.318029    51A    -11.317997  
      52A    -11.317989    53A    -11.317963    54A    -11.316982  
      55A    -11.316969    56A    -11.316610    57A    -11.316562  
      58A    -11.316553    59A    -11.316527    60A    -11.315540  
      61A    -11.315528    62A     -1.558417    63A     -1.414132  
      64A     -1.315029    65A     -1.289620    66A     -1.289277  
      67A     -1.258345    68A     -1.258306    69A     -1.250740  
      70A     -1.225427    71A     -1.219061    72A     -1.217543  
      73A     -1.205000    74A     -1.204719    75A     -1.180921  
      76A     -1.180893    77A     -1.169931    78A     -1.151414  
      79A     -1.151397    80A     -1.147568    81A     -1.133429  
      82A     -1.133420    83A     -1.107424    84A     -1.099732  
      85A     -1.093926    86A     -1.091439    87A     -1.091268  
      88A     -1.085326    89A     -1.079921    90A     -1.055727  
      91A     -1.055642    92A     -1.029560    93A     -1.029536  
      94A     -1.003009    95A     -0.977487    96A     -0.962221  
      97A     -0.962139    98A     -0.957421    99A     -0.955566  
     100A     -0.955381   101A     -0.950168   102A     -0.950095  
     103A     -0.929498   104A     -0.903855   105A     -0.897801  
     106A     -0.886082   107A     -0.885610   108A     -0.880724  
     109A     -0.880585   110A     -0.861794   111A     -0.861780  
     112A     -0.830806   113A     -0.815653   114A     -0.813551  
     115A     -0.802092   116A     -0.801905   117A     -0.799389  
     118A     -0.799309   119A     -0.797069   120A     -0.793725  
     121A     -0.784585   122A     -0.770822   123A     -0.766895  
     124A     -0.766686   125A     -0.766488   126A     -0.762550  
     127A     -0.761700   128A     -0.761500   129A     -0.728237  
     130A     -0.721234   131A     -0.719877   132A     -0.717156  
     133A     -0.717111   134A     -0.710876   135A     -0.707035  
     136A     -0.706813   137A     -0.706703   138A     -0.697838  
     139A     -0.697775   140A     -0.695672   141A     -0.695636  
     142A     -0.678424   143A     -0.670946   144A     -0.670176  
     145A     -0.667061   146A     -0.666820   147A     -0.662023  
     148A     -0.660280   149A     -0.660103   150A     -0.651288  
     151A     -0.646896   152A     -0.646334   153A     -0.634448  
     154A     -0.634275   155A     -0.633973   156A     -0.633899  
     157A     -0.626980   158A     -0.621647   159A     -0.621477  
     160A     -0.607339   161A     -0.607266   162A     -0.605494  
     163A     -0.605468   164A     -0.598518   165A     -0.597335  
     166A     -0.590515   167A     -0.590313   168A     -0.576639  
     169A     -0.567193   170A     -0.563458   171A     -0.560278  
     172A     -0.556488   173A     -0.553381   174A     -0.549508  
     175A     -0.549439   176A     -0.540397   177A     -0.539968  
     178A     -0.520089   179A     -0.519892   180A     -0.506635  
     181A     -0.506621   182A     -0.504081   183A     -0.474211  
     184A     -0.474160   185A     -0.472805   186A     -0.442599  
     187A     -0.442528   188A     -0.417485   189A     -0.408583  
     190A     -0.407556   191A     -0.407247   192A     -0.379005  
     193A     -0.364486   194A     -0.354009   195A     -0.353957  
     196A     -0.293124   197A     -0.293031  

    Virtual:                                                              

     198A     -0.054965   199A     -0.054246   200A     -0.054013  
     201A     -0.041813   202A     -0.040798   203A     -0.035158  
     204A     -0.020024   205A     -0.016203   206A     -0.013480  
     207A     -0.010358   208A     -0.004778   209A     -0.004467  
     210A     -0.004284   211A     -0.002336   212A      0.000403  
     213A      0.001264   214A      0.002567   215A      0.003029  
     216A      0.006262   217A      0.011532   218A      0.016172  
     219A      0.017188   220A      0.017539   221A      0.018357  
     222A      0.019232   223A      0.019871   224A      0.020941  
     225A      0.021669   226A      0.021996   227A      0.022186  
     228A      0.023323   229A      0.029799   230A      0.034110  
     231A      0.034694   232A      0.037277   233A      0.037388  
     234A      0.041047   235A      0.041372   236A      0.047029  
     237A      0.050422   238A      0.050916   239A      0.052416  
     240A      0.052981   241A      0.053935   242A      0.056249  
     243A      0.056547   244A      0.056886   245A      0.059638  
     246A      0.060435   247A      0.064584   248A      0.068109  
     249A      0.068733   250A      0.074475   251A      0.075599  
     252A      0.077812   253A      0.079284   254A      0.079994  
     255A      0.080236   256A      0.081222   257A      0.081984  
     258A      0.086255   259A      0.089693   260A      0.091453  
     261A      0.092148   262A      0.094458   263A      0.097302  
     264A      0.098121   265A      0.101028   266A      0.102849  
     267A      0.103372   268A      0.104980   269A      0.107977  
     270A      0.111181   271A      0.114035   272A      0.116396  
     273A      0.117198   274A      0.118105   275A      0.118482  
     276A      0.121659   277A      0.122815   278A      0.125328  
     279A      0.127023   280A      0.127428   281A      0.128646  
     282A      0.129346   283A      0.131956   284A      0.132288  
     285A      0.133759   286A      0.136886   287A      0.140692  
     288A      0.141687   289A      0.142048   290A      0.145910  
     291A      0.150935   292A      0.151727   293A      0.152432  
     294A      0.152863   295A      0.153410   296A      0.154687  
     297A      0.154846   298A      0.155032   299A      0.155971  
     300A      0.160146   301A      0.161087   302A      0.163154  
     303A      0.163815   304A      0.164787   305A      0.167872  
     306A      0.168401   307A      0.169136   308A      0.171191  
     309A      0.173265   310A      0.174418   311A      0.175273  
     312A      0.175809   313A      0.178034   314A      0.180727  
     315A      0.181004   316A      0.184044   317A      0.185212  
     318A      0.186215   319A      0.190132   320A      0.190439  
     321A      0.194012   322A      0.194417   323A      0.194563  
     324A      0.195632   325A      0.197584   326A      0.197728  
     327A      0.198662   328A      0.202967   329A      0.203987  
     330A      0.204625   331A      0.204756   332A      0.207918  
     333A      0.210475   334A      0.210630   335A      0.211553  
     336A      0.212168   337A      0.212710   338A      0.214235  
     339A      0.214957   340A      0.216337   341A      0.218741  
     342A      0.224376   343A      0.225906   344A      0.227055  
     345A      0.229736   346A      0.233509   347A      0.235528  
     348A      0.235915   349A      0.237719   350A      0.239577  
     351A      0.240438   352A      0.241350   353A      0.243895  
     354A      0.245025   355A      0.247298   356A      0.247664  
     357A      0.248355   358A      0.249716   359A      0.251286  
     360A      0.251784   361A      0.251946   362A      0.253823  
     363A      0.255988   364A      0.256671   365A      0.257813  
     366A      0.259424   367A      0.260028   368A      0.260589  
     369A      0.265168   370A      0.266753   371A      0.269689  
     372A      0.270635   373A      0.271895   374A      0.272439  
     375A      0.275061   376A      0.275961   377A      0.277105  
     378A      0.279772   379A      0.280858   380A      0.282858  
     381A      0.285498   382A      0.288895   383A      0.289513  
     384A      0.290014   385A      0.290547   386A      0.292270  
     387A      0.292473   388A      0.295426   389A      0.295786  
     390A      0.297266   391A      0.300511   392A      0.302131  
     393A      0.302447   394A      0.304095   395A      0.305630  
     396A      0.307880   397A      0.309324   398A      0.310096  
     399A      0.311834   400A      0.313073   401A      0.315043  
     402A      0.318525   403A      0.320960   404A      0.322643  
     405A      0.324273   406A      0.324791   407A      0.325049  
     408A      0.326527   409A      0.327952   410A      0.328482  
     411A      0.330719   412A      0.332541   413A      0.333281  
     414A      0.333847   415A      0.334022   416A      0.335159  
     417A      0.337160   418A      0.339437   419A      0.340406  
     420A      0.342322   421A      0.342705   422A      0.343620  
     423A      0.343995   424A      0.344319   425A      0.344629  
     426A      0.348971   427A      0.349486   428A      0.353058  
     429A      0.353591   430A      0.354433   431A      0.356468  
     432A      0.358841   433A      0.359393   434A      0.363362  
     435A      0.365281   436A      0.365783   437A      0.371622  
     438A      0.373096   439A      0.375229   440A      0.375878  
     441A      0.377835   442A      0.378762   443A      0.380095  
     444A      0.380693   445A      0.384409   446A      0.385178  
     447A      0.386956   448A      0.388809   449A      0.389532  
     450A      0.390406   451A      0.391344   452A      0.392800  
     453A      0.393894   454A      0.394361   455A      0.395052  
     456A      0.401574   457A      0.402128   458A      0.405104  
     459A      0.407270   460A      0.408472   461A      0.408992  
     462A      0.411628   463A      0.414537   464A      0.414902  
     465A      0.418145   466A      0.419703   467A      0.423658  
     468A      0.427428   469A      0.428889   470A      0.429949  
     471A      0.431323   472A      0.432324   473A      0.433503  
     474A      0.433870   475A      0.435112   476A      0.436864  
     477A      0.441126   478A      0.445334   479A      0.446229  
     480A      0.447240   481A      0.448383   482A      0.449646  
     483A      0.453321   484A      0.453651   485A      0.454570  
     486A      0.457518   487A      0.461154   488A      0.463435  
     489A      0.471281   490A      0.471876   491A      0.475005  
     492A      0.477105   493A      0.481594   494A      0.482704  
     495A      0.483804   496A      0.484123   497A      0.484425  
     498A      0.485156   499A      0.487153   500A      0.489290  
     501A      0.490996   502A      0.491539   503A      0.492615  
     504A      0.496039   505A      0.496648   506A      0.503416  
     507A      0.505378   508A      0.506024   509A      0.521816  
     510A      0.524498   511A      0.526866   512A      0.529782  
     513A      0.530912   514A      0.531020   515A      0.541047  
     516A      0.543370   517A      0.548564   518A      0.549925  
     519A      0.554831   520A      0.556824   521A      0.560394  
     522A      0.560670   523A      0.576072   524A      0.582769  
     525A      0.585795   526A      0.586789   527A      0.599861  
     528A      0.602304   529A      0.602903   530A      0.610501  
     531A      0.610626   532A      0.618459   533A      0.644126  
     534A      0.649418   535A      0.649629   536A      0.668865  
     537A      0.672706   538A      0.673884   539A      0.676747  
     540A      0.677510   541A      0.678499   542A      0.680669  
     543A      0.689639   544A      0.690308   545A      0.690617  
     546A      0.695250   547A      0.698970   548A      0.706067  
     549A      0.708946   550A      0.711750   551A      0.722928  
     552A      0.724375   553A      0.729469   554A      0.731209  
     555A      0.732591   556A      0.740358   557A      0.742171  
     558A      0.747346   559A      0.748036   560A      0.751686  
     561A      0.754416   562A      0.758031   563A      0.760213  
     564A      0.761381   565A      0.761762   566A      0.767918  
     567A      0.769199   568A      0.771009   569A      0.777739  
     570A      0.782715   571A      0.785881   572A      0.788283  
     573A      0.791724   574A      0.792876   575A      0.797900  
     576A      0.798406   577A      0.802914   578A      0.804532  
     579A      0.806362   580A      0.808986   581A      0.812262  
     582A      0.812427   583A      0.814674   584A      0.818258  
     585A      0.821280   586A      0.822922   587A      0.824561  
     588A      0.827543   589A      0.832200   590A      0.833379  
     591A      0.835282   592A      0.837880   593A      0.839058  
     594A      0.843513   595A      0.846155   596A      0.849159  
     597A      0.850039   598A      0.851489   599A      0.852654  
     600A      0.855401   601A      0.857897   602A      0.860515  
     603A      0.861021   604A      0.862900   605A      0.864693  
     606A      0.866475   607A      0.870756   608A      0.871398  
     609A      0.871917   610A      0.876811   611A      0.878488  
     612A      0.881284   613A      0.882774   614A      0.886175  
     615A      0.886664   616A      0.891871   617A      0.893718  
     618A      0.898983   619A      0.902528   620A      0.904229  
     621A      0.905745   622A      0.905973   623A      0.907256  
     624A      0.908710   625A      0.910360   626A      0.911179  
     627A      0.914931   628A      0.916225   629A      0.918990  
     630A      0.921478   631A      0.923998   632A      0.928351  
     633A      0.929724   634A      0.930972   635A      0.932896  
     636A      0.935433   637A      0.939425   638A      0.940868  
     639A      0.941586   640A      0.945590   641A      0.951138  
     642A      0.952423   643A      0.953851   644A      0.954501  
     645A      0.956014   646A      0.957050   647A      0.966764  
     648A      0.968591   649A      0.970850   650A      0.973154  
     651A      0.975594   652A      0.975726   653A      0.977447  
     654A      0.978562   655A      0.978953   656A      0.979845  
     657A      0.981247   658A      0.981755   659A      0.983074  
     660A      0.984263   661A      0.986469   662A      0.991255  
     663A      0.991953   664A      0.994368   665A      0.995571  
     666A      1.000552   667A      1.001429   668A      1.005834  
     669A      1.006314   670A      1.010076   671A      1.012471  
     672A      1.014387   673A      1.016247   674A      1.016620  
     675A      1.021726   676A      1.023640   677A      1.024635  
     678A      1.027495   679A      1.030728   680A      1.034359  
     681A      1.036168   682A      1.038289   683A      1.038836  
     684A      1.040408   685A      1.042189   686A      1.044482  
     687A      1.047143   688A      1.049285   689A      1.049846  
     690A      1.050892   691A      1.052335   692A      1.054731  
     693A      1.058946   694A      1.061328   695A      1.062136  
     696A      1.065532   697A      1.068309   698A      1.070984  
     699A      1.071513   700A      1.072860   701A      1.073602  
     702A      1.076150   703A      1.078457   704A      1.079723  
     705A      1.091049   706A      1.095395   707A      1.096800  
     708A      1.101378   709A      1.103618   710A      1.106409  
     711A      1.110036   712A      1.114996   713A      1.116439  
     714A      1.117115   715A      1.117993   716A      1.121786  
     717A      1.126575   718A      1.131102   719A      1.131922  
     720A      1.134078   721A      1.137906   722A      1.148023  
     723A      1.150249   724A      1.153622   725A      1.154487  
     726A      1.155487   727A      1.156750   728A      1.159012  
     729A      1.166195   730A      1.173118   731A      1.175387  
     732A      1.177458   733A      1.180876   734A      1.189854  
     735A      1.193885   736A      1.195306   737A      1.196215  
     738A      1.196553   739A      1.200400   740A      1.200956  
     741A      1.202401   742A      1.203802   743A      1.205165  
     744A      1.207619   745A      1.213247   746A      1.222914  
     747A      1.229491   748A      1.230387   749A      1.231368  
     750A      1.232032   751A      1.235934   752A      1.237857  
     753A      1.244355   754A      1.245892   755A      1.246493  
     756A      1.249373   757A      1.253915   758A      1.257200  
     759A      1.260462   760A      1.261655   761A      1.262826  
     762A      1.263162   763A      1.267475   764A      1.274588  
     765A      1.279017   766A      1.281334   767A      1.283262  
     768A      1.283743   769A      1.286107   770A      1.286817  
     771A      1.291602   772A      1.296619   773A      1.297328  
     774A      1.298026   775A      1.300040   776A      1.311772  
     777A      1.314305   778A      1.315706   779A      1.324429  
     780A      1.337129   781A      1.338298   782A      1.339630  
     783A      1.340976   784A      1.341516   785A      1.343948  
     786A      1.348714   787A      1.351508   788A      1.354227  
     789A      1.357876   790A      1.360175   791A      1.363615  
     792A      1.364381   793A      1.368074   794A      1.372192  
     795A      1.372406   796A      1.373360   797A      1.374279  
     798A      1.376310   799A      1.380330   800A      1.383817  
     801A      1.385261   802A      1.386337   803A      1.390874  
     804A      1.398612   805A      1.401160   806A      1.404423  
     807A      1.405653   808A      1.415321   809A      1.422015  
     810A      1.451417   811A      1.452351   812A      1.453385  
     813A      1.453690   814A      1.467337   815A      1.470703  
     816A      1.483485   817A      1.505508   818A      1.512930  
     819A      1.517057   820A      1.531836   821A      1.532281  
     822A      1.533212   823A      1.534319   824A      1.540726  
     825A      1.541080   826A      1.542580   827A      1.542744  
     828A      1.544573   829A      1.548753   830A      1.553346  
     831A      1.555252   832A      1.557998   833A      1.566226  
     834A      1.568255   835A      1.573637   836A      1.574284  
     837A      1.574967   838A      1.575694   839A      1.577259  
     840A      1.579833   841A      1.585353   842A      1.593896  
     843A      1.594241   844A      1.599707   845A      1.600423  
     846A      1.606897   847A      1.607152   848A      1.607931  
     849A      1.610132   850A      1.610533   851A      1.616764  
     852A      1.618672   853A      1.619309   854A      1.629132  
     855A      1.629938   856A      1.631559   857A      1.631734  
     858A      1.632962   859A      1.634854   860A      1.635075  
     861A      1.643082   862A      1.649548   863A      1.649783  
     864A      1.657688   865A      1.673507   866A      1.682911  
     867A      1.694370   868A      1.694596   869A      1.695066  
     870A      1.696088   871A      1.697758   872A      1.708642  
     873A      1.709741   874A      1.713406   875A      1.723461  
     876A      1.724621   877A      1.728692   878A      1.732282  
     879A      1.750129   880A      1.750749   881A      1.751606  
     882A      1.753109   883A      1.755597   884A      1.755731  
     885A      1.762372   886A      1.764490   887A      1.769457  
     888A      1.773498   889A      1.774182   890A      1.776367  
     891A      1.782779   892A      1.792131   893A      1.793997  
     894A      1.796794   895A      1.797568   896A      1.798466  
     897A      1.802422   898A      1.804743   899A      1.806297  
     900A      1.806979   901A      1.811230   902A      1.811456  
     903A      1.816479   904A      1.828729   905A      1.829092  
     906A      1.834180   907A      1.837385   908A      1.837563  
     909A      1.839987   910A      1.841403   911A      1.844010  
     912A      1.849403   913A      1.849941   914A      1.850429  
     915A      1.850686   916A      1.852091   917A      1.854012  
     918A      1.854601   919A      1.856885   920A      1.860067  
     921A      1.871943   922A      1.877643   923A      1.877882  
     924A      1.878668   925A      1.884190   926A      1.885034  
     927A      1.885751   928A      1.887384   929A      1.887917  
     930A      1.888512   931A      1.889162   932A      1.890038  
     933A      1.905134   934A      1.909707   935A      1.912390  
     936A      1.916062   937A      1.918264   938A      1.926750  
     939A      1.928924   940A      1.929562   941A      1.930369  
     942A      1.933752   943A      1.935291   944A      1.941500  
     945A      1.943800   946A      1.947749   947A      1.948479  
     948A      1.959752   949A      1.962476   950A      1.963752  
     951A      1.964909   952A      1.965441   953A      1.966765  
     954A      1.967439   955A      1.981031   956A      1.982694  
     957A      1.985765   958A      1.986432   959A      1.991031  
     960A      1.992840   961A      1.994507   962A      1.996646  
     963A      2.002716   964A      2.004761   965A      2.006233  
     966A      2.006933   967A      2.008560   968A      2.012378  
     969A      2.014114   970A      2.015306   971A      2.021200  
     972A      2.022114   973A      2.027352   974A      2.028220  
     975A      2.029570   976A      2.032270   977A      2.033431  
     978A      2.034057   979A      2.041695   980A      2.041891  
     981A      2.043521   982A      2.045053   983A      2.045443  
     984A      2.045844   985A      2.049069   986A      2.050361  
     987A      2.053042   988A      2.053361   989A      2.053668  
     990A      2.054753   991A      2.060791   992A      2.062860  
     993A      2.066539   994A      2.067236   995A      2.069865  
     996A      2.070074   997A      2.073935   998A      2.076825  
     999A      2.078374  1000A      2.089525  1001A      2.092101  
    1002A      2.092799  1003A      2.095021  1004A      2.095392  
    1005A      2.102293  1006A      2.109301  1007A      2.115592  
    1008A      2.117558  1009A      2.123845  1010A      2.124539  
    1011A      2.125756  1012A      2.125832  1013A      2.126369  
    1014A      2.129122  1015A      2.133121  1016A      2.136943  
    1017A      2.151239  1018A      2.151326  1019A      2.152027  
    1020A      2.158549  1021A      2.160664  1022A      2.161907  
    1023A      2.166705  1024A      2.172565  1025A      2.177217  
    1026A      2.178982  1027A      2.179137  1028A      2.179631  
    1029A      2.181676  1030A      2.186942  1031A      2.194878  
    1032A      2.195103  1033A      2.202930  1034A      2.203391  
    1035A      2.204235  1036A      2.206156  1037A      2.206692  
    1038A      2.216235  1039A      2.230629  1040A      2.234565  
    1041A      2.239789  1042A      2.244176  1043A      2.246249  
    1044A      2.251081  1045A      2.253980  1046A      2.256374  
    1047A      2.261141  1048A      2.261233  1049A      2.263134  
    1050A      2.266603  1051A      2.281694  1052A      2.282907  
    1053A      2.284940  1054A      2.285324  1055A      2.286962  
    1056A      2.298058  1057A      2.298636  1058A      2.305911  
    1059A      2.314605  1060A      2.327766  1061A      2.349368  
    1062A      2.353426  1063A      2.356025  1064A      2.356752  
    1065A      2.356891  1066A      2.364757  1067A      2.369637  
    1068A      2.373690  1069A      2.373943  1070A      2.402541  
    1071A      2.406670  1072A      2.407468  1073A      2.419324  
    1074A      2.419345  1075A      2.434765  1076A      2.453106  
    1077A      2.462187  1078A      2.463284  1079A      2.466764  
    1080A      2.479004  1081A      2.479730  1082A      2.480033  
    1083A      2.485437  1084A      2.489274  1085A      2.489694  
    1086A      2.491212  1087A      2.492336  1088A      2.492712  
    1089A      2.505018  1090A      2.505061  1091A      2.509656  
    1092A      2.510052  1093A      2.519059  1094A      2.519147  
    1095A      2.519368  1096A      2.522765  1097A      2.526526  
    1098A      2.531940  1099A      2.541649  1100A      2.557811  
    1101A      2.558451  1102A      2.559889  1103A      2.563718  
    1104A      2.564354  1105A      2.575266  1106A      2.575713  
    1107A      2.585936  1108A      2.586280  1109A      2.590350  
    1110A      2.602712  1111A      2.615191  1112A      2.615801  
    1113A      2.617274  1114A      2.622343  1115A      2.632416  
    1116A      2.633232  1117A      2.637330  1118A      2.644298  
    1119A      2.644546  1120A      2.650224  1121A      2.650601  
    1122A      2.656167  1123A      2.656276  1124A      2.668916  
    1125A      2.673935  1126A      2.686291  1127A      2.687093  
    1128A      2.688250  1129A      2.703874  1130A      2.707972  
    1131A      2.711579  1132A      2.726995  1133A      2.727260  
    1134A      2.731484  1135A      2.744738  1136A      2.750414  
    1137A      2.759218  1138A      2.761954  1139A      2.773390  
    1140A      2.781973  1141A      2.785942  1142A      2.786243  
    1143A      2.786504  1144A      2.788351  1145A      2.792986  
    1146A      2.793537  1147A      2.802733  1148A      2.818332  
    1149A      2.853242  1150A      2.853590  1151A      2.858238  
    1152A      2.867509  1153A      2.868893  1154A      2.883549  
    1155A      2.883789  1156A      2.897309  1157A      2.944470  
    1158A      2.945532  1159A      2.946594  1160A      2.963157  
    1161A      2.963758  1162A      2.995476  1163A      2.995520  
    1164A      3.002875  1165A      3.003504  1166A      3.007750  
    1167A      3.043760  1168A      3.045174  1169A      3.062520  
    1170A      3.063555  1171A      3.063948  1172A      3.069622  
    1173A      3.070755  1174A      3.080128  1175A      3.080566  
    1176A      3.080972  1177A      3.082518  1178A      3.083652  
    1179A      3.084417  1180A      3.092739  1181A      3.093055  
    1182A      3.100126  1183A      3.100762  1184A      3.125915  
    1185A      3.145361  1186A      3.151267  1187A      3.171324  
    1188A      3.206316  1189A      3.209324  1190A      3.209382  
    1191A      3.215257  1192A      3.215311  1193A      3.348024  
    1194A      3.348813  1195A      3.370058  1196A      3.413101  
    1197A      3.415453  1198A      3.467669  1199A      3.481186  
    1200A      3.508297  1201A      3.510654  1202A      3.525691  
    1203A      3.557321  1204A      3.559180  1205A      3.561048  
    1206A      3.595294  1207A      3.603316  1208A      3.701161  
    1209A      3.714243  1210A      3.715413  1211A      3.803973  
    1212A      3.804283  1213A      3.845922  1214A      3.846141  
    1215A      3.907801  1216A      3.941693  1217A      3.967282  
    1218A      3.978748  1219A      4.015262  

    Final Occupation by Irrep:
              A 
    DOCC [   197 ]
    NA   [   197 ]
    NB   [   197 ]

  @DF-RHF Final Energy: -2359.20557350233321

   => Energetics <=

    Nuclear Repulsion Energy =           8122.4875113389825856
    One-Electron Energy =              -19347.3136242469554418
    Two-Electron Energy =                8865.6205394056396472
    Total Energy =                      -2359.2055735023332090

Computation Completed


Properties will be evaluated at   0.000000,   0.000000,   0.000000 [a0]

Properties computed using the SCF density matrix


 Multipole Moments:

 ------------------------------------------------------------------------------------
     Multipole            Electronic (a.u.)      Nuclear  (a.u.)        Total (a.u.)
 ------------------------------------------------------------------------------------

 L = 1.  Multiply by 2.5417464519 to convert [e a0] to [Debye]
 Dipole X            :          0.0036930            0.0006313            0.0043243
 Dipole Y            :         -1.5491716            1.8864948            0.3373232
 Dipole Z            :        -19.6002932           27.0500018            7.4497086
 Magnitude           :                                                    7.4573429

 ------------------------------------------------------------------------------------

*** tstop() called on d-17-1-1 at Mon Jan 22 17:06:34 2024
Module time:
	user time   =    4309.29 seconds =      71.82 minutes
	system time =     268.70 seconds =       4.48 minutes
	total time  =        732 seconds =      12.20 minutes
Total time:
	user time   =    4309.29 seconds =      71.82 minutes
	system time =     268.70 seconds =       4.48 minutes
	total time  =        732 seconds =      12.20 minutes

  //>>>>>>>>>>>>>>>>>>>>>>>>>>>>>>>>>>>//
  //            Monomer A HF           //
  //<<<<<<<<<<<<<<<<<<<<<<<<<<<<<<<<<<<//

   => Libint2 <=

    Primary   basis highest AM E, G, H:  7, 7, 4
    Auxiliary basis highest AM E, G, H:  7, 7, 5
    Onebody   basis highest AM E, G, H:  7, 7, 5
    Solid Harmonics ordering:            gaussian

*** tstart() called on d-17-1-1
*** at Mon Jan 22 17:06:34 2024

   => Loading Basis Set <=

    Name: JUN-CC-PVDZ
    Role: ORBITAL
    Keyword: BASIS
    atoms 1-2, 4-5, 10, 17-70 entry C          line   164 file /home/gridsan/tfroembgen/.conda/envs/psi4test/share/psi4/basis/jun-cc-pvdz.gbs 
    atoms 3, 6                entry N          line   198 file /home/gridsan/tfroembgen/.conda/envs/psi4test/share/psi4/basis/jun-cc-pvdz.gbs 
    atoms 7-9, 11-16, 71-88   entry H          line    36 file /home/gridsan/tfroembgen/.conda/envs/psi4test/share/psi4/basis/jun-cc-pvdz.gbs 


         ---------------------------------------------------------
                                   SCF
               by Justin Turney, Rob Parrish, Andy Simmonett
                          and Daniel G. A. Smith
                              RHF Reference
                       12 Threads,  30517 MiB Core
         ---------------------------------------------------------

  ==> Geometry <==

    Molecular point group: c1
    Full point group: C1

    Geometry (in Angstrom), charge = 1, multiplicity = 1:

       Center              X                  Y                   Z               Mass       
    ------------   -----------------  -----------------  -----------------  -----------------
         C            0.680066520158    -1.215933861162     4.546636086235    12.000000000000
         C           -0.680504479842    -1.215549861162     4.544608086235    12.000000000000
         N           -1.085635479842     0.102774138838     4.543610086235    14.003074004430
         C            0.000107520158     0.884175138838     4.540334086235    12.000000000000
         C           -2.477365479842     0.570753138838     4.494204086235    12.000000000000
         N            1.085221520158     0.102774138838     4.543610086235    14.003074004430
         H            1.385145520158    -2.033372861162     4.554464086235     1.007825032230
         H           -1.385302479842    -2.033218861162     4.544798086235     1.007825032230
         H           -0.000009479842     1.965264138838     4.538587086235     1.007825032230
         C            2.478116520158     0.567872138838     4.560502086235    12.000000000000
         H            2.490591520158     1.658125138838     4.533157086235     1.007825032230
         H            2.967027520158     0.220696138838     5.473948086235     1.007825032230
         H            3.001427520158     0.176400138838     3.685019086235     1.007825032230
         H           -2.857359479842     0.490794138838     3.472133086235     1.007825032230
         H           -3.082679479842    -0.042310861162     5.164288086235     1.007825032230
         H           -2.518128479842     1.610701138838     4.821188086235     1.007825032230
      Gh(C)           1.225311895423     0.707533799757    -0.655268286482    12.000000000000
      Gh(C)           1.225323856051    -0.707543383733    -0.667599096052    12.000000000000
      Gh(C)          -0.000006153932     1.414961424928    -0.668132719573    12.000000000000
      Gh(C)           2.456448753949     1.418323398016    -0.652381429082    12.000000000000
      Gh(C)           0.000010827279    -1.414980987797    -0.657933162248    12.000000000000
      Gh(C)          -1.225300948908     0.707540884822    -0.653016766159    12.000000000000
      Gh(C)           2.456437755320    -1.418327793043    -0.669844252909    12.000000000000
      Gh(C)          -0.000001332978     2.836796542119    -0.670536269707    12.000000000000
      Gh(C)           3.681826697470     0.709313466839    -0.669495463111    12.000000000000
      Gh(C)           2.455120048865     2.834219172327    -0.669598020072    12.000000000000
      Gh(C)           3.681821105219    -0.709338328591    -0.653422979093    12.000000000000
      Gh(C)          -1.225313598688    -0.707532004706    -0.666526334625    12.000000000000
      Gh(C)           1.226699581202     3.543464994832    -0.653238947162    12.000000000000
      Gh(C)           0.000004784858    -2.836786628398    -0.653084994627    12.000000000000
      Gh(C)          -2.456436032848     1.418312429123    -0.652981370313    12.000000000000
      Gh(C)           2.455123417779    -2.834234517751    -0.653574887460    12.000000000000
      Gh(C)          -1.226714364589     3.543464574588    -0.653135613943    12.000000000000
      Gh(C)           4.914517295202     1.427168383327    -0.663014780081    12.000000000000
      Gh(C)           3.693150191476     3.542790803383    -0.662964980445    12.000000000000
      Gh(C)          -2.456437600068    -1.418317770001    -0.669869291033    12.000000000000
      Gh(C)           1.226704841943    -3.543478731069    -0.669209077912    12.000000000000
      Gh(C)          -2.455125398508     2.834212173472    -0.669591643725    12.000000000000
      Gh(C)           4.914524380782    -1.427191399106    -0.660042037347    12.000000000000
      Gh(C)           1.221424613699     4.970129576098    -0.659903603087    12.000000000000
      Gh(C)           4.893008229321     2.825183510864    -0.661798111723    12.000000000000
      Gh(C)          -1.226697008489    -3.543475486239    -0.668941873502    12.000000000000
      Gh(C)          -3.681818976526     0.709320477570    -0.669482782631    12.000000000000
      Gh(C)           3.693147101150    -3.542805830553    -0.659924146786    12.000000000000
      Gh(C)          -1.221432251994     4.970123808701    -0.659720107715    12.000000000000
      Gh(C)           6.134770972926     0.680543457943    -0.662245005532    12.000000000000
      Gh(C)           3.656788880610     4.972948754405    -0.662056342663    12.000000000000
      Gh(C)          -2.455126907733    -2.834219582223    -0.653819245258    12.000000000000
      Gh(C)          -3.681819179061    -0.709330192631    -0.653305357514    12.000000000000
      Gh(C)           4.893012617914    -2.825204594794    -0.661186959827    12.000000000000
      Gh(C)          -0.000001073113     5.650442876870    -0.660951416421    12.000000000000
      Gh(C)           6.134775112332    -0.680559343237    -0.660979685016    12.000000000000
      Gh(C)           2.478131482856     5.653572262169    -0.660767563013    12.000000000000
      Gh(C)           1.221422404738    -4.970131544095    -0.662703100110    12.000000000000
      Gh(C)          -3.693162383965     3.542792465030    -0.662799472986    12.000000000000
      Gh(C)          -1.221428520945    -4.970122792758    -0.662815861943    12.000000000000
      Gh(C)          -4.914521807942     1.427170957833    -0.662937835074    12.000000000000
      Gh(C)           3.656787019679    -4.972959715401    -0.660605842129    12.000000000000
      Gh(C)          -2.478138530106     5.653569933366    -0.660483038004    12.000000000000
      Gh(C)          -3.693141738564    -3.542794708141    -0.660040272942    12.000000000000
      Gh(C)          -4.914512483053    -1.427185489190    -0.660007340173    12.000000000000
      Gh(C)          -0.000006008926    -5.650442776176    -0.661346920543    12.000000000000
      Gh(C)          -4.893020484101     2.825184109757    -0.661808193583    12.000000000000
      Gh(C)           2.478125993298    -5.653578033051    -0.661696442921    12.000000000000
      Gh(C)          -3.656798710258     4.972951692879    -0.661879662288    12.000000000000
      Gh(C)          -4.892999478856    -2.825196256222    -0.661340995525    12.000000000000
      Gh(C)          -2.478128498083    -5.653570659169    -0.661971630568    12.000000000000
      Gh(C)          -6.134770503331     0.680544277094    -0.662270557234    12.000000000000
      Gh(C)          -3.656788833189    -4.972948512133    -0.660820129945    12.000000000000
      Gh(C)          -6.134765042913    -0.680558404644    -0.661000160811    12.000000000000
      Gh(H)           5.835288495816     3.369271405792    -0.657438786060     1.007825032230
      Gh(H)           7.073859172747     1.228212759737    -0.661783362138     1.007825032230
      Gh(H)           4.600663264174     5.512376313291    -0.661551141911     1.007825032230
      Gh(H)           5.835283387305    -3.369310545891    -0.665641427142     1.007825032230
      Gh(H)          -0.000012151306     6.738526184974    -0.665300661429     1.007825032230
      Gh(H)           7.073861171831    -1.228231431906    -0.661488423110     1.007825032230
      Gh(H)           2.473313731799     6.740679802232    -0.661234283943     1.007825032230
      Gh(H)           4.600668491381    -5.512380618338    -0.661015839297     1.007825032230
      Gh(H)          -2.473318680537     6.740677230444    -0.660932937318     1.007825032230
      Gh(H)          -0.000010268228    -6.738532665614    -0.656817235558     1.007825032230
      Gh(H)          -5.835301914343     3.369266461134    -0.657302763912     1.007825032230
      Gh(H)           2.473307923831    -6.740689863591    -0.661126112496     1.007825032230
      Gh(H)          -4.600674841208     5.512373537441    -0.661385813587     1.007825032230
      Gh(H)          -5.835279506835    -3.369293452942    -0.665920733023     1.007825032230
      Gh(H)          -2.473300347440    -6.740683567302    -0.661575429040     1.007825032230
      Gh(H)          -7.073857766768     1.228215983678    -0.661867353619     1.007825032230
      Gh(H)          -4.600673786085    -5.512367158949    -0.661188147320     1.007825032230
      Gh(H)          -7.073856934409    -1.228225121139    -0.661583279576     1.007825032230

  Running in c1 symmetry.

  Rotational constants: A =      0.00169  B =      0.00166  C =      0.00109 [cm^-1]
  Rotational constants: A =     50.70378  B =     49.84534  C =     32.56832 [MHz]
  Nuclear repulsion =  306.774908447733026

  Charge       = 1
  Multiplicity = 1
  Electrons    = 52
  Nalpha       = 26
  Nbeta        = 26

  ==> Algorithm <==

  SCF Algorithm Type is DF.
  DIIS enabled.
  MOM disabled.
  Fractional occupation disabled.
  Guess Type is SAD.
  Energy threshold   = 1.00e-08
  Density threshold  = 1.00e-08
  Integral threshold = 1.00e-12

  ==> Primary Basis <==

  Basis Set: JUN-CC-PVDZ
    Blend: JUN-CC-PVDZ
    Number of shells: 569
    Number of basis functions: 1233
    Number of Cartesian functions: 1294
    Spherical Harmonics?: true
    Max angular momentum: 2

   => Loading Basis Set <=

    Name: (JUN-CC-PVDZ AUX)
    Role: JKFIT
    Keyword: DF_BASIS_SCF
    atoms 1-2, 4-5, 10, 17-70 entry C          line   146 file /home/gridsan/tfroembgen/.conda/envs/psi4test/share/psi4/basis/jun-cc-pvdz-jkfit.gbs 
    atoms 3, 6                entry N          line   202 file /home/gridsan/tfroembgen/.conda/envs/psi4test/share/psi4/basis/jun-cc-pvdz-jkfit.gbs 
    atoms 7-9, 11-16, 71-88   entry H          line    70 file /home/gridsan/tfroembgen/.conda/envs/psi4test/share/psi4/basis/jun-cc-pvdz-jkfit.gbs 

  ==> Integral Setup <==

  ==> DiskDFJK: Density-Fitted J/K Matrices <==

    J tasked:                  Yes
    K tasked:                  Yes
    wK tasked:                  No
    OpenMP threads:             12
    Integrals threads:          12
    Memory [MiB]:            22888
    Algorithm:                Disk
    Integral Cache:           LOAD
    Schwarz Cutoff:          1E-12
    Fitting Condition:       1E-10

   => Auxiliary Basis Set <=

  Basis Set: (JUN-CC-PVDZ AUX)
    Blend: JUN-CC-PVDZ-JKFIT
    Number of shells: 1890
    Number of basis functions: 5440
    Number of Cartesian functions: 6226
    Spherical Harmonics?: true
    Max angular momentum: 3

  Minimum eigenvalue in the overlap matrix is 8.2045854954E-10.
  Reciprocal condition number of the overlap matrix is 3.6052048550E-11.
    Using canonical orthogonalization.
  Overall, 14 of 1233 possible MOs eliminated.


  ==> Pre-Iterations <==

  SCF Guess: Superposition of Atomic Densities via on-the-fly atomic UHF (no occupation information).

   -------------------------
    Irrep   Nso     Nmo    
   -------------------------
     A       1233    1219 
   -------------------------
    Total    1233    1219
   -------------------------

  ==> Iterations <==

                           Total Energy        Delta E     RMS |[F,P]|

   @DF-RHF iter SAD:  -303.36534988682354   -3.03365e+02   0.00000e+00 
   @DF-RHF iter   1:  -303.16985429306425    1.95496e-01   3.44319e-04 ADIIS/DIIS
   @DF-RHF iter   2:  -303.28421171562769   -1.14357e-01   1.15931e-04 ADIIS/DIIS
   @DF-RHF iter   3:  -303.29568004665407   -1.14683e-02   4.53772e-05 DIIS
   @DF-RHF iter   4:  -303.29758878962821   -1.90874e-03   9.91538e-06 DIIS
   @DF-RHF iter   5:  -303.29769513831354   -1.06349e-04   2.42362e-06 DIIS
   @DF-RHF iter   6:  -303.29770451522933   -9.37692e-06   6.57127e-07 DIIS
   @DF-RHF iter   7:  -303.29770560156476   -1.08634e-06   3.34368e-07 DIIS
   @DF-RHF iter   8:  -303.29770585791016   -2.56345e-07   1.34473e-07 DIIS
   @DF-RHF iter   9:  -303.29770590711678   -4.92066e-08   3.39741e-08 DIIS
   @DF-RHF iter  10:  -303.29770590998635   -2.86957e-09   1.27349e-08 DIIS
   @DF-RHF iter  11:  -303.29770591023430   -2.47951e-10   3.00271e-09 DIIS
  Energy and wave function converged.


  ==> Post-Iterations <==

    Orbital Energies [Eh]
    ---------------------

    Doubly Occupied:                                                      

       1A    -15.834550     2A    -15.834022     3A    -11.529422  
       4A    -11.459785     5A    -11.458230     6A    -11.449603  
       7A    -11.449486     8A     -1.578002     9A     -1.433612  
      10A     -1.238450    11A     -1.189148    12A     -1.118739  
      13A     -1.022331    14A     -0.996760    15A     -0.916875  
      16A     -0.850412    17A     -0.816085    18A     -0.812993  
      19A     -0.789950    20A     -0.786137    21A     -0.781604  
      22A     -0.729581    23A     -0.725673    24A     -0.717042  
      25A     -0.596118    26A     -0.523728  

    Virtual:                                                              

      27A     -0.077469    28A     -0.068973    29A     -0.061336  
      30A     -0.058941    31A     -0.040693    32A     -0.039913  
      33A     -0.037524    34A     -0.037118    35A     -0.034141  
      36A     -0.031896    37A     -0.022772    38A     -0.016646  
      39A     -0.015688    40A     -0.013388    41A     -0.012153  
      42A     -0.011689    43A     -0.009518    44A     -0.008954  
      45A     -0.004186    46A      0.000498    47A      0.003748  
      48A      0.006022    49A      0.007152    50A      0.010715  
      51A      0.010966    52A      0.013668    53A      0.019949  
      54A      0.020794    55A      0.020929    56A      0.025277  
      57A      0.028460    58A      0.031237    59A      0.032855  
      60A      0.032911    61A      0.036661    62A      0.039877  
      63A      0.040527    64A      0.042876    65A      0.044718  
      66A      0.045334    67A      0.046162    68A      0.047688  
      69A      0.051731    70A      0.053276    71A      0.054522  
      72A      0.056275    73A      0.056535    74A      0.059487  
      75A      0.064219    76A      0.065248    77A      0.065790  
      78A      0.068479    79A      0.070535    80A      0.071268  
      81A      0.074880    82A      0.075406    83A      0.077027  
      84A      0.078533    85A      0.080654    86A      0.081425  
      87A      0.082796    88A      0.083853    89A      0.084226  
      90A      0.084556    91A      0.088914    92A      0.089972  
      93A      0.091488    94A      0.092656    95A      0.093174  
      96A      0.095393    97A      0.098110    98A      0.102162  
      99A      0.102833   100A      0.105255   101A      0.105627  
     102A      0.108129   103A      0.108217   104A      0.110610  
     105A      0.112623   106A      0.112705   107A      0.114041  
     108A      0.114830   109A      0.116675   110A      0.117943  
     111A      0.118596   112A      0.120299   113A      0.120652  
     114A      0.123522   115A      0.123848   116A      0.128055  
     117A      0.129677   118A      0.132476   119A      0.132777  
     120A      0.133148   121A      0.135052   122A      0.137022  
     123A      0.140356   124A      0.142426   125A      0.143389  
     126A      0.143597   127A      0.145561   128A      0.149399  
     129A      0.150900   130A      0.152765   131A      0.154954  
     132A      0.156903   133A      0.158462   134A      0.159719  
     135A      0.160649   136A      0.161002   137A      0.161028  
     138A      0.163661   139A      0.163861   140A      0.164452  
     141A      0.168038   142A      0.171279   143A      0.172296  
     144A      0.173150   145A      0.174386   146A      0.177009  
     147A      0.178139   148A      0.179509   149A      0.179955  
     150A      0.181167   151A      0.181987   152A      0.182960  
     153A      0.183647   154A      0.183989   155A      0.186404  
     156A      0.188975   157A      0.189382   158A      0.191064  
     159A      0.194998   160A      0.197909   161A      0.199624  
     162A      0.203702   163A      0.205501   164A      0.207027  
     165A      0.207769   166A      0.208021   167A      0.210422  
     168A      0.211473   169A      0.214967   170A      0.215881  
     171A      0.216400   172A      0.216710   173A      0.217605  
     174A      0.218326   175A      0.223689   176A      0.225415  
     177A      0.226144   178A      0.226451   179A      0.227278  
     180A      0.228409   181A      0.229796   182A      0.230702  
     183A      0.233074   184A      0.233968   185A      0.236411  
     186A      0.237957   187A      0.239810   188A      0.241277  
     189A      0.243848   190A      0.244215   191A      0.246422  
     192A      0.248068   193A      0.254499   194A      0.256373  
     195A      0.260405   196A      0.260881   197A      0.262679  
     198A      0.266367   199A      0.267329   200A      0.267619  
     201A      0.269023   202A      0.270196   203A      0.273389  
     204A      0.274203   205A      0.278995   206A      0.279822  
     207A      0.282417   208A      0.282735   209A      0.284777  
     210A      0.286401   211A      0.288381   212A      0.288570  
     213A      0.289286   214A      0.290063   215A      0.294007  
     216A      0.296403   217A      0.296900   218A      0.298435  
     219A      0.299745   220A      0.301478   221A      0.302037  
     222A      0.303236   223A      0.308822   224A      0.308915  
     225A      0.311144   226A      0.316388   227A      0.317123  
     228A      0.317419   229A      0.318675   230A      0.324195  
     231A      0.325781   232A      0.328756   233A      0.330330  
     234A      0.335274   235A      0.336392   236A      0.339969  
     237A      0.347282   238A      0.348136   239A      0.349674  
     240A      0.352193   241A      0.353270   242A      0.356588  
     243A      0.359845   244A      0.360882   245A      0.362000  
     246A      0.362956   247A      0.363154   248A      0.366104  
     249A      0.368738   250A      0.369863   251A      0.370857  
     252A      0.372723   253A      0.375957   254A      0.376606  
     255A      0.378451   256A      0.380502   257A      0.382099  
     258A      0.384324   259A      0.386664   260A      0.388796  
     261A      0.390079   262A      0.390244   263A      0.390593  
     264A      0.391242   265A      0.393364   266A      0.393927  
     267A      0.402023   268A      0.402733   269A      0.403346  
     270A      0.404434   271A      0.405180   272A      0.408046  
     273A      0.408769   274A      0.410495   275A      0.411305  
     276A      0.411956   277A      0.415745   278A      0.417444  
     279A      0.418845   280A      0.421157   281A      0.422437  
     282A      0.423702   283A      0.427043   284A      0.429337  
     285A      0.430101   286A      0.430322   287A      0.434827  
     288A      0.437742   289A      0.443785   290A      0.447650  
     291A      0.450587   292A      0.455203   293A      0.456813  
     294A      0.457991   295A      0.458443   296A      0.459454  
     297A      0.461635   298A      0.462431   299A      0.465091  
     300A      0.465246   301A      0.466376   302A      0.466936  
     303A      0.470497   304A      0.473560   305A      0.477548  
     306A      0.478765   307A      0.479196   308A      0.480338  
     309A      0.481810   310A      0.484749   311A      0.491588  
     312A      0.496523   313A      0.497830   314A      0.499341  
     315A      0.501028   316A      0.503650   317A      0.506215  
     318A      0.507577   319A      0.508452   320A      0.509207  
     321A      0.511454   322A      0.512000   323A      0.518636  
     324A      0.521573   325A      0.521705   326A      0.521896  
     327A      0.524647   328A      0.526559   329A      0.528688  
     330A      0.531532   331A      0.531651   332A      0.534171  
     333A      0.539331   334A      0.542333   335A      0.543476  
     336A      0.549098   337A      0.549561   338A      0.551271  
     339A      0.555028   340A      0.558731   341A      0.559001  
     342A      0.560084   343A      0.563828   344A      0.566533  
     345A      0.569346   346A      0.569592   347A      0.573928  
     348A      0.577229   349A      0.578163   350A      0.580244  
     351A      0.584817   352A      0.586237   353A      0.588954  
     354A      0.595402   355A      0.597505   356A      0.603087  
     357A      0.607780   358A      0.608699   359A      0.609099  
     360A      0.611127   361A      0.611955   362A      0.615950  
     363A      0.619040   364A      0.621009   365A      0.621965  
     366A      0.625937   367A      0.626448   368A      0.628829  
     369A      0.633309   370A      0.634423   371A      0.634776  
     372A      0.636539   373A      0.638721   374A      0.639356  
     375A      0.642062   376A      0.653424   377A      0.654055  
     378A      0.656341   379A      0.662052   380A      0.669773  
     381A      0.670516   382A      0.680049   383A      0.681340  
     384A      0.687130   385A      0.690588   386A      0.691767  
     387A      0.692062   388A      0.693328   389A      0.693986  
     390A      0.695213   391A      0.697162   392A      0.697880  
     393A      0.698462   394A      0.700468   395A      0.702933  
     396A      0.703819   397A      0.705213   398A      0.706063  
     399A      0.706877   400A      0.712634   401A      0.716282  
     402A      0.716811   403A      0.718499   404A      0.722025  
     405A      0.723091   406A      0.725417   407A      0.725731  
     408A      0.728974   409A      0.731080   410A      0.732235  
     411A      0.737756   412A      0.738457   413A      0.739745  
     414A      0.742343   415A      0.750677   416A      0.753589  
     417A      0.771398   418A      0.776814   419A      0.778368  
     420A      0.778610   421A      0.780720   422A      0.782091  
     423A      0.784005   424A      0.785247   425A      0.790578  
     426A      0.794188   427A      0.797960   428A      0.803955  
     429A      0.806359   430A      0.811393   431A      0.812020  
     432A      0.815024   433A      0.816829   434A      0.818784  
     435A      0.823238   436A      0.826398   437A      0.829303  
     438A      0.829918   439A      0.833646   440A      0.836507  
     441A      0.849281   442A      0.852431   443A      0.853854  
     444A      0.858910   445A      0.865366   446A      0.875244  
     447A      0.878319   448A      0.880788   449A      0.890760  
     450A      0.891091   451A      0.898846   452A      0.899232  
     453A      0.908590   454A      0.914537   455A      0.922852  
     456A      0.927796   457A      0.932626   458A      0.932684  
     459A      0.935400   460A      0.939333   461A      0.955348  
     462A      0.955390   463A      0.968850   464A      0.969346  
     465A      0.987862   466A      0.996049   467A      0.996400  
     468A      0.996824   469A      0.997290   470A      1.002183  
     471A      1.008169   472A      1.010762   473A      1.023769  
     474A      1.027839   475A      1.034062   476A      1.034521  
     477A      1.036098   478A      1.057152   479A      1.076995  
     480A      1.082198   481A      1.083175   482A      1.085721  
     483A      1.090875   484A      1.091205   485A      1.105301  
     486A      1.109417   487A      1.113529   488A      1.113835  
     489A      1.122314   490A      1.126456   491A      1.127052  
     492A      1.127351   493A      1.142251   494A      1.149362  
     495A      1.149506   496A      1.150094   497A      1.157272  
     498A      1.158555   499A      1.171342   500A      1.174079  
     501A      1.211500   502A      1.215960   503A      1.224756  
     504A      1.224995   505A      1.234548   506A      1.235125  
     507A      1.235569   508A      1.251823   509A      1.252408  
     510A      1.256159   511A      1.257903   512A      1.294079  
     513A      1.298816   514A      1.299147   515A      1.323097  
     516A      1.347528   517A      1.351070   518A      1.363617  
     519A      1.370030   520A      1.371830   521A      1.378875  
     522A      1.390105   523A      1.391569   524A      1.391846  
     525A      1.395309   526A      1.395729   527A      1.397256  
     528A      1.412181   529A      1.413807   530A      1.442833  
     531A      1.471230   532A      1.479039   533A      1.483628  
     534A      1.486792   535A      1.487480   536A      1.488226  
     537A      1.494857   538A      1.498658   539A      1.512845  
     540A      1.530828   541A      1.555197   542A      1.564754  
     543A      1.567286   544A      1.574898   545A      1.576663  
     546A      1.580430   547A      1.587616   548A      1.591348  
     549A      1.596870   550A      1.612330   551A      1.613172  
     552A      1.618528   553A      1.620775   554A      1.628322  
     555A      1.632352   556A      1.635102   557A      1.675147  
     558A      1.675771   559A      1.677177   560A      1.677633  
     561A      1.679332   562A      1.679414   563A      1.680587  
     564A      1.687696   565A      1.691845   566A      1.693889  
     567A      1.695164   568A      1.702205   569A      1.703549  
     570A      1.710121   571A      1.716021   572A      1.721539  
     573A      1.723376   574A      1.723806   575A      1.726817  
     576A      1.737643   577A      1.742003   578A      1.742551  
     579A      1.745344   580A      1.752500   581A      1.753856  
     582A      1.756465   583A      1.756988   584A      1.758255  
     585A      1.760421   586A      1.761057   587A      1.761971  
     588A      1.764246   589A      1.767729   590A      1.773402  
     591A      1.778151   592A      1.779987   593A      1.782279  
     594A      1.783111   595A      1.789882   596A      1.790106  
     597A      1.790342   598A      1.790964   599A      1.794688  
     600A      1.809873   601A      1.812530   602A      1.814802  
     603A      1.815430   604A      1.816477   605A      1.821058  
     606A      1.822003   607A      1.825209   608A      1.828098  
     609A      1.829922   610A      1.832036   611A      1.835560  
     612A      1.836149   613A      1.836792   614A      1.838594  
[...]
     802A      1.677863   803A      1.684237   804A      1.687071  
     805A      1.687896   806A      1.692539   807A      1.696543  
     808A      1.699265   809A      1.699833   810A      1.700755  
     811A      1.702385   812A      1.705166   813A      1.705314  
     814A      1.716346   815A      1.716706   816A      1.741927  
     817A      1.751990   818A      1.752832   819A      1.761088  
     820A      1.761461   821A      1.762046   822A      1.764729  
     823A      1.775681   824A      1.777343   825A      1.778108  
     826A      1.791865   827A      1.792593   828A      1.812023  
     829A      1.814902   830A      1.817334   831A      1.817504  
     832A      1.817986   833A      1.824986   834A      1.825131  
     835A      1.830651   836A      1.832213   837A      1.835922  
     838A      1.840967   839A      1.842411   840A      1.844258  
     841A      1.859199   842A      1.861974   843A      1.864214  
     844A      1.865492   845A      1.867718   846A      1.868656  
     847A      1.870785   848A      1.872409   849A      1.879535  
     850A      1.880589   851A      1.881663   852A      1.886881  
     853A      1.896953   854A      1.897229   855A      1.900391  
     856A      1.903236   857A      1.903744   858A      1.907364  
     859A      1.910212   860A      1.912619   861A      1.916560  
     862A      1.918406   863A      1.918523   864A      1.919764  
     865A      1.922782   866A      1.922828   867A      1.923647  
     868A      1.935526   869A      1.941666   870A      1.944045  
     871A      1.944952   872A      1.945887   873A      1.948322  
     874A      1.950985   875A      1.955579   876A      1.956670  
     877A      1.956727   878A      1.957978   879A      1.958268  
     880A      1.960378   881A      1.966371   882A      1.972505  
     883A      1.976736   884A      1.984612   885A      1.985379  
     886A      1.995660   887A      1.997476   888A      2.001289  
     889A      2.001923   890A      2.007267   891A      2.009581  
     892A      2.013199   893A      2.014218   894A      2.018052  
     895A      2.027926   896A      2.030235   897A      2.030652  
     898A      2.031623   899A      2.032917   900A      2.033685  
     901A      2.034445   902A      2.049530   903A      2.053365  
     904A      2.053797   905A      2.056143   906A      2.059578  
     907A      2.060901   908A      2.061475   909A      2.063598  
     910A      2.066260   911A      2.068955   912A      2.073272  
     913A      2.074743   914A      2.076688   915A      2.077529  
     916A      2.079655   917A      2.080502   918A      2.082326  
     919A      2.083601   920A      2.088421   921A      2.090684  
     922A      2.095203   923A      2.095462   924A      2.097647  
     925A      2.099342   926A      2.101160   927A      2.101247  
     928A      2.108193   929A      2.109317   930A      2.110725  
     931A      2.111433   932A      2.113722   933A      2.114540  
     934A      2.117318   935A      2.119253   936A      2.119863  
     937A      2.120911   938A      2.121533   939A      2.122735  
     940A      2.127180   941A      2.131166   942A      2.133349  
     943A      2.134033   944A      2.135117   945A      2.136875  
     946A      2.138341   947A      2.142095   948A      2.143696  
     949A      2.147128   950A      2.156629   951A      2.157820  
     952A      2.159881   953A      2.161539   954A      2.163399  
     955A      2.163766   956A      2.164831   957A      2.168035  
     958A      2.172436   959A      2.177609   960A      2.182469  
     961A      2.186481   962A      2.191106   963A      2.191981  
     964A      2.192779   965A      2.194534   966A      2.195943  
     967A      2.196431   968A      2.205960   969A      2.207459  
     970A      2.219949   971A      2.220843   972A      2.220933  
     973A      2.224538   974A      2.228004   975A      2.229108  
     976A      2.231625   977A      2.233376   978A      2.244227  
     979A      2.244486   980A      2.244932   981A      2.245948  
     982A      2.247599   983A      2.260061   984A      2.260944  
     985A      2.262934   986A      2.269548   987A      2.270765  
     988A      2.272336   989A      2.272675   990A      2.273236  
     991A      2.281212   992A      2.287464   993A      2.300691  
     994A      2.305654   995A      2.306880   996A      2.313419  
     997A      2.314324   998A      2.321674   999A      2.323765  
    1000A      2.328992  1001A      2.331344  1002A      2.331520  
    1003A      2.332042  1004A      2.336315  1005A      2.338787  
    1006A      2.348979  1007A      2.351993  1008A      2.352175  
    1009A      2.353949  1010A      2.356569  1011A      2.361539  
    1012A      2.367285  1013A      2.367911  1014A      2.376971  
    1015A      2.384512  1016A      2.388165  1017A      2.413395  
    1018A      2.417679  1019A      2.424323  1020A      2.424674  
    1021A      2.424764  1022A      2.436612  1023A      2.441972  
    1024A      2.442905  1025A      2.470464  1026A      2.471287  
    1027A      2.474943  1028A      2.475014  1029A      2.478874  
    1030A      2.482923  1031A      2.487665  1032A      2.491747  
    1033A      2.502486  1034A      2.505259  1035A      2.509941  
    1036A      2.520386  1037A      2.530263  1038A      2.531568  
    1039A      2.536141  1040A      2.546400  1041A      2.546628  
    1042A      2.547555  1043A      2.555169  1044A      2.555708  
    1045A      2.555944  1046A      2.560231  1047A      2.560603  
    1048A      2.573271  1049A      2.573307  1050A      2.575429  
    1051A      2.576142  1052A      2.586081  1053A      2.586549  
    1054A      2.587551  1055A      2.590352  1056A      2.592144  
    1057A      2.593488  1058A      2.608232  1059A      2.624356  
    1060A      2.625242  1061A      2.628794  1062A      2.632153  
    1063A      2.632810  1064A      2.641721  1065A      2.642242  
    1066A      2.651136  1067A      2.652846  1068A      2.654366  
    1069A      2.657910  1070A      2.667549  1071A      2.675611  
    1072A      2.683383  1073A      2.684378  1074A      2.685155  
    1075A      2.687540  1076A      2.694319  1077A      2.702931  
    1078A      2.703053  1079A      2.713124  1080A      2.713492  
    1081A      2.716349  1082A      2.719077  1083A      2.719137  
    1084A      2.723885  1085A      2.724553  1086A      2.740384  
    1087A      2.750627  1088A      2.754455  1089A      2.758710  
    1090A      2.775314  1091A      2.779579  1092A      2.795789  
    1093A      2.796111  1094A      2.797943  1095A      2.817720  
    1096A      2.828221  1097A      2.830320  1098A      2.846668  
    1099A      2.852415  1100A      2.855209  1101A      2.856271  
    1102A      2.858338  1103A      2.858589  1104A      2.861612  
    1105A      2.864420  1106A      2.870705  1107A      2.896170  
    1108A      2.915078  1109A      2.919519  1110A      2.920111  
    1111A      2.925167  1112A      2.934488  1113A      2.935547  
    1114A      2.937345  1115A      2.945179  1116A      2.950483  
    1117A      2.951584  1118A      2.964129  1119A      2.968879  
    1120A      3.007316  1121A      3.012070  1122A      3.013152  
    1123A      3.017590  1124A      3.030082  1125A      3.048752  
    1126A      3.054891  1127A      3.064965  1128A      3.065104  
    1129A      3.071661  1130A      3.072036  1131A      3.098821  
    1132A      3.111251  1133A      3.112603  1134A      3.130279  
    1135A      3.130827  1136A      3.131237  1137A      3.137818  
    1138A      3.147880  1139A      3.147903  1140A      3.148067  
    1141A      3.150101  1142A      3.150625  1143A      3.158301  
    1144A      3.160072  1145A      3.167495  1146A      3.167868  
    1147A      3.185423  1148A      3.192232  1149A      3.211563  
    1150A      3.220090  1151A      3.238864  1152A      3.275715  
    1153A      3.277417  1154A      3.277758  1155A      3.283147  
    1156A      3.283443  1157A      3.299333  1158A      3.323815  
    1159A      3.337736  1160A      3.417344  1161A      3.418259  
    1162A      3.425684  1163A      3.443789  1164A      3.483238  
    1165A      3.485655  1166A      3.533209  1167A      3.551189  
    1168A      3.578642  1169A      3.579737  1170A      3.587703  
    1171A      3.597910  1172A      3.627746  1173A      3.629502  
    1174A      3.650151  1175A      3.663551  1176A      3.671445  
    1177A      3.762310  1178A      3.770188  1179A      3.783711  
    1180A      3.785343  1181A      3.822400  1182A      3.871232  
    1183A      3.871428  1184A      3.873136  1185A      3.913854  
    1186A      3.914052  1187A      3.967972  1188A      3.977200  
    1189A      4.011231  1190A      4.039005  1191A      4.050647  
    1192A      4.087335  1193A      4.222489  1194A      4.225755  
    1195A      4.392676  1196A      4.416862  1197A      4.503025  
    1198A      4.747677  1199A      4.791094  1200A      4.844541  
    1201A      4.868423  1202A      4.951046  1203A      5.060599  
    1204A      5.069526  1205A      5.076807  1206A      5.122677  
    1207A      5.138659  1208A      5.396643  1209A      5.428898  
    1210A      5.749167  1211A      5.758815  1212A      6.072725  
    1213A     18.209547  1214A     18.460697  1215A     18.478928  
    1216A     18.568263  1217A     18.848589  1218A     25.352227  
    1219A     25.385387  

    Final Occupation by Irrep:
              A 
    DOCC [   171 ]
    NA   [   171 ]
    NB   [   171 ]

  @DF-RHF Final Energy: -2055.89344120024452

   => Energetics <=

    Nuclear Repulsion Energy =           6452.5568002797772351
    One-Electron Energy =              -15636.4829680333350552
    Two-Electron Energy =                7128.0327265533132959
    Total Energy =                      -2055.8934412002445242

Computation Completed


Properties will be evaluated at   0.000000,   0.000000,   0.000000 [a0]

Properties computed using the SCF density matrix


 Multipole Moments:

 ------------------------------------------------------------------------------------
     Multipole            Electronic (a.u.)      Nuclear  (a.u.)        Total (a.u.)
 ------------------------------------------------------------------------------------

 L = 1.  Multiply by 2.5417464519 to convert [e a0] to [Debye]
 Dipole X            :         -0.0001466           -0.0000085           -0.0001551
 Dipole Y            :          0.0030654           -0.0028843            0.0001811
 Dipole Z            :        427.4480649         -427.4590469           -0.0109820
 Magnitude           :                                                    0.0109846

 ------------------------------------------------------------------------------------

*** tstop() called on d-17-1-1 at Mon Jan 22 17:23:07 2024
Module time:
	user time   =    2716.27 seconds =      45.27 minutes
	system time =     177.56 seconds =       2.96 minutes
	total time  =        447 seconds =       7.45 minutes
Total time:
	user time   =    8797.90 seconds =     146.63 minutes
	system time =     667.51 seconds =      11.13 minutes
	total time  =       1725 seconds =      28.75 minutes
  Constructing Basis Sets for SAPT...

   => Loading Basis Set <=

    Name: (JUN-CC-PVDZ AUX)
    Role: RIFIT
    Keyword: DF_BASIS_SAPT
    atoms 1-2, 4-5, 10, 17-70 entry C          line   100 file /home/gridsan/tfroembgen/.conda/envs/psi4test/share/psi4/basis/jun-cc-pvdz-ri.gbs 
    atoms 3, 6                entry N          line   144 file /home/gridsan/tfroembgen/.conda/envs/psi4test/share/psi4/basis/jun-cc-pvdz-ri.gbs 
    atoms 7-9, 11-16, 71-88   entry H          line    30 file /home/gridsan/tfroembgen/.conda/envs/psi4test/share/psi4/basis/jun-cc-pvdz-ri.gbs 

   => Loading Basis Set <=

    Name: (JUN-CC-PVDZ AUX)
    Role: JKFIT
    Keyword: DF_BASIS_ELST
    atoms 1-2, 4-5, 10, 17-70 entry C          line   146 file /home/gridsan/tfroembgen/.conda/envs/psi4test/share/psi4/basis/jun-cc-pvdz-jkfit.gbs 
    atoms 3, 6                entry N          line   202 file /home/gridsan/tfroembgen/.conda/envs/psi4test/share/psi4/basis/jun-cc-pvdz-jkfit.gbs 
    atoms 7-9, 11-16, 71-88   entry H          line    70 file /home/gridsan/tfroembgen/.conda/envs/psi4test/share/psi4/basis/jun-cc-pvdz-jkfit.gbs 


  //>>>>>>>>>>>>>>>>>>>>>>>>>>>>>>>>>>>//
  //               SSAPT0              //
  //<<<<<<<<<<<<<<<<<<<<<<<<<<<<<<<<<<<//


*** tstart() called on d-17-1-1
*** at Mon Jan 22 17:23:08 2024

        SAPT0  
    Ed Hohenstein
     6 June 2009

      Orbital Information
  --------------------------
    NSO        =      1233
    NMO        =      1219
    NRI        =      4343
    NRI (Elst) =      5440
    NOCC A     =        26
    NOCC B     =       171
    FOCC A     =         7
    FOCC B     =        54
    NVIR A     =      1193
    NVIR B     =      1048

    Elst10,r            =    -0.010182498042 [Eh]
    Exch10              =     0.000052287095 [Eh]
    Exch10 (S^2)        =     0.000052286763 [Eh]

    Iter     Energy [mEh]          dE [mEh]         Residual      Time [s]
       1      -0.03413417       0.034134165       1.520250287           286
       2      -0.03177554      -0.002358622       0.325617918           483
       3      -0.03418566       0.002410115       0.062997807           526
       4      -0.03416990      -0.000015754       0.024415779           557
       5      -0.03411302      -0.000056885       0.004975239           576
       6      -0.03411503       0.000002014       0.002649630           603
       7      -0.03411742       0.000002385       0.001091563           620
       8      -0.03411724      -0.000000173       0.000422354           640
       9      -0.03411697      -0.000000272       0.000127385           663
      10      -0.03411695      -0.000000021       0.000028668           751
      11      -0.03411697       0.000000022       0.000009898          1058
      12      -0.03411698       0.000000002       0.000003218          1523
      13      -0.03411697      -0.000000002       0.000001248          1937
      14      -0.03411697      -0.000000000       0.000000442          2200

    CHF Iterations converged


    Iter     Energy [mEh]          dE [mEh]         Residual      Time [s]
       1      -5.92245735       5.922457350      40.132093927           405
       2      -4.03584773      -1.886609619       5.122910719           643
       3      -4.03970781       0.003860076       1.834575594           730
       4      -4.13644681       0.096739004       0.420157496           783
       5      -4.14135312       0.004906305       0.115398899           815
       6      -4.13964050      -0.001712615       0.056421983           844
       7      -4.13891863      -0.000721871       0.024104447           867
       8      -4.13919381       0.000275181       0.015989661           890
       9      -4.13933648       0.000142666       0.008856719           914
      10      -4.13928315      -0.000053324       0.006881240           947
      11      -4.13923853      -0.000044628       0.003090253           970
      12      -4.13924926       0.000010732       0.001319945           998
      13      -4.13925709       0.000007831       0.000601871          1033
      14      -4.13925719       0.000000099       0.000301829          1057
      15      -4.13925527      -0.000001914       0.000176849          1103
      16      -4.13925462      -0.000000657       0.000073987          1137
      17      -4.13925533       0.000000712       0.000026064          1157
      18      -4.13925533       0.000000001       0.000010752          1175
      19      -4.13925526      -0.000000074       0.000005712          1253
      20      -4.13925524      -0.000000013       0.000002248          1278
      21      -4.13925526       0.000000016       0.000001052          1299
      22      -4.13925526       0.000000002       0.000000464          1444

    CHF Iterations converged

    Ind20,r (A<-B)      =    -0.000034116974 [Eh]
    Ind20,r (B<-A)      =    -0.004139255261 [Eh]
    Ind20,r             =    -0.004173372235 [Eh]
    Exch-Ind20,r (A<-B) =     0.000003063755 [Eh]
    Exch-Ind20,r (B<-A) =     0.000009033729 [Eh]
    Exch-Ind20,r        =     0.000012097485 [Eh]
    Disp20              =    -0.005057943710 [Eh]
    Disp20 (SS)         =    -0.002528971855 [Eh]
    Disp20 (OS)         =    -0.002528971855 [Eh]
    Exch-Disp20         =     0.000012936003 [Eh]
    Exch-Disp20 (SS)    =     0.000008858002 [Eh]
    Exch-Disp20 (OS)    =     0.000004078000 [Eh]

    SAPT Results 
  --------------------------------------------------------------------------------------------------------
    Electrostatics                -10.18249804 [mEh]      -6.38961399 [kcal/mol]     -26.73414492 [kJ/mol]
      Elst10,r                    -10.18249804 [mEh]      -6.38961399 [kcal/mol]     -26.73414492 [kJ/mol]

    Exchange                        0.05228710 [mEh]       0.03281065 [kcal/mol]       0.13727975 [kJ/mol]
      Exch10                        0.05228710 [mEh]       0.03281065 [kcal/mol]       0.13727975 [kJ/mol]
      Exch10(S^2)                   0.05228676 [mEh]       0.03281044 [kcal/mol]       0.13727888 [kJ/mol]

    Induction                      -4.29618091 [mEh]      -2.69589422 [kcal/mol]     -11.27962142 [kJ/mol]
      Ind20,r                      -4.17337223 [mEh]      -2.61883061 [kcal/mol]     -10.95718729 [kJ/mol]
      Exch-Ind20,r                  0.01209748 [mEh]       0.00759129 [kcal/mol]       0.03176194 [kJ/mol]
      delta HF,r (2)               -0.13490616 [mEh]      -0.08465489 [kcal/mol]      -0.35419607 [kJ/mol]

    Dispersion                     -5.04500771 [mEh]      -3.16579013 [kcal/mol]     -13.24566591 [kJ/mol]
      Disp20                       -5.05794371 [mEh]      -3.17390760 [kcal/mol]     -13.27962938 [kJ/mol]
      Exch-Disp20                   0.01293600 [mEh]       0.00811746 [kcal/mol]       0.03396347 [kJ/mol]
      Disp20 (SS)                  -2.52897186 [mEh]      -1.58695380 [kcal/mol]      -6.63981469 [kJ/mol]
      Disp20 (OS)                  -2.52897186 [mEh]      -1.58695380 [kcal/mol]      -6.63981469 [kJ/mol]
      Exch-Disp20 (SS)              0.00885800 [mEh]       0.00555848 [kcal/mol]       0.02325668 [kJ/mol]
      Exch-Disp20 (OS)              0.00407800 [mEh]       0.00255898 [kcal/mol]       0.01070679 [kJ/mol]

  Total HF                        -14.42639185 [mEh]      -9.05269756 [kcal/mol]     -37.87648660 [kJ/mol]
  Total SAPT0                     -19.47139956 [mEh]     -12.21848769 [kcal/mol]     -51.12215251 [kJ/mol]

  Special recipe for scaled SAPT0 (see Manual):
    Electrostatics sSAPT0         -10.18249804 [mEh]      -6.38961399 [kcal/mol]     -26.73414492 [kJ/mol]
    Exchange sSAPT0                 0.05228710 [mEh]       0.03281065 [kcal/mol]       0.13727975 [kJ/mol]
    Induction sSAPT0               -4.29618068 [mEh]      -2.69589408 [kcal/mol]     -11.27962082 [kJ/mol]
    Dispersion sSAPT0              -5.04500746 [mEh]      -3.16578998 [kcal/mol]     -13.24566526 [kJ/mol]
  Total sSAPT0                    -19.47139909 [mEh]     -12.21848739 [kcal/mol]     -51.12215125 [kJ/mol]
  --------------------------------------------------------------------------------------------------------

*** tstop() called on d-17-1-1 at Mon Jan 22 19:18:14 2024
Module time:
	user time   =    9014.24 seconds =     150.24 minutes
	system time =    1060.89 seconds =      17.68 minutes
	total time  =       6906 seconds =     115.10 minutes
Total time:
	user time   =   17813.42 seconds =     296.89 minutes
	system time =    1728.42 seconds =      28.81 minutes
	total time  =       8632 seconds =     143.87 minutes

    Psi4 stopped on: Monday, 22 January 2024 07:18PM
    Psi4 wall time for execution: 2:23:53.22

*** Psi4 exiting successfully. Buy a developer a beer!
