
    -----------------------------------------------------------------------
          Psi4: An Open-Source Ab Initio Electronic Structure Package
                               Psi4 1.9 release

                         Git: Rev {} zzzzzzz 


    D. G. A. Smith, L. A. Burns, A. C. Simmonett, R. M. Parrish,
    M. C. Schieber, R. Galvelis, P. Kraus, H. Kruse, R. Di Remigio,
    A. Alenaizan, A. M. James, S. Lehtola, J. P. Misiewicz, M. Scheurer,
    R. A. Shaw, J. B. Schriber, Y. Xie, Z. L. Glick, D. A. Sirianni,
    J. S. O'Brien, J. M. Waldrop, A. Kumar, E. G. Hohenstein,
    B. P. Pritchard, B. R. Brooks, H. F. Schaefer III, A. Yu. Sokolov,
    K. Patkowski, A. E. DePrince III, U. Bozkaya, R. A. King,
    F. A. Evangelista, J. M. Turney, T. D. Crawford, C. D. Sherrill,
    J. Chem. Phys. 152(18) 184108 (2020). https://doi.org/10.1063/5.0006002

                            Additional Code Authors
    E. T. Seidl, C. L. Janssen, E. F. Valeev, M. L. Leininger,
    J. F. Gonthier, R. M. Richard, H. R. McAlexander, M. Saitow, X. Wang,
    P. Verma, M. H. Lechner, A. Jiang, S. Behnle, A. G. Heide,
    M. F. Herbst, and D. L. Poole

             Previous Authors, Complete List of Code Contributors,
                       and Citations for Specific Modules
    https://github.com/psi4/psi4/blob/master/codemeta.json
    https://github.com/psi4/psi4/graphs/contributors
    http://psicode.org/psi4manual/master/introduction.html#citing-psifour

    -----------------------------------------------------------------------


    Psi4 started on: Wednesday, 24 January 2024 07:40PM

    Process ID: 1275367
    Host:       n2cn1193
    PSIDATADIR: /opt/software/pc2/EB-SW/software/PSI4/1.9-foss-2022a/share/psi4
    Memory:     500.0 MiB
    Threads:    16
    
  ==> Input File <==

--------------------------------------------------------------------------
memory 47 GB # how much memory is available ! Depends on the nodes/cores !

molecule dimer {
# monomer A
-1 1    # Charge and multiplicity
B -0.000046  0.000337 2.599994
F -1.153597  0.000048 3.415641
F  1.153661 -0.000581 3.415641
F -0.000019 -1.153637 1.784360
F -0.000019  1.153978 1.784360
--
# monomer B
0 1     # Charge and multiplicity
C   -3.66844126402057      7.80375217008252      0.00190004133558
C   -4.84759871934653      7.13124183134024     -0.00046653359696
C   -4.89495929917518      5.69633040353158     -0.00103944469517
C   -3.65374067877320      4.98073034095895      0.00662099703436
C   -2.40942512149445      7.11398103667468      0.00209438359570
C   -2.42547734410473      5.68112195090346     -0.00491050527438
C   -1.19474401643570      7.78614419430947      0.00356656413763
C   0.03795902893699      7.09942164575698      0.00139585983271
C   0.03033258741920      5.66948955970466     -0.00408752508301
C   -1.20098450790502      4.96927034791531      0.00488220885047
C   1.27795782581485      7.77285944319479      0.00277170839332
C   2.48535808472416      7.08769688523756      0.00049722048857
C   2.48612868491717      5.65477081024076     -0.00644052849921
C   1.25408291964399      4.95607811366431      0.00518741308898
C   3.75171459140595      7.76391215098033      0.00062407186893
C   4.92356605618520      7.07878077698995     -0.00143240883900
C   4.95560727132542      5.64344746336949     -0.00159282164606
C   3.70680153420475      4.94121020833308      0.00349873852374
H   -3.65852113775815      8.89082741913536      0.00358502958574
H   -1.18921332975660      8.87412108735996      0.00753844057883
H   1.28429423888630      8.86083343548850      0.00693053253426
H   3.75354208679975      8.85103527897216      0.00214659618464
H   5.86995870320703      7.61379483465560     -0.00235777588134
H   -5.78823170750226      7.67630221293400     -0.00202638095293
C   -6.09197395869619      4.99326001364347     -0.00291168518608
C   -6.12866148031747      3.58258016879823     -0.00171050815740
C   -3.66457974004527      3.56418217974434     -0.00463560277484
C   -4.89429820469869      2.86108077590057      0.00453338221034
C   -2.43733499489796      2.84761165708481      0.00719617576166
C   -1.20922785759670      3.54788693497833     -0.00648285103018
C   1.24714157216223      3.53468075142962     -0.00729145743546
C   0.01517603956900      2.83311183930540      0.00439272578912
C   2.46764517244071      2.82128997725533      0.00449278391269
C   3.70254947457969      3.52466015442405     -0.00899517692985
C   6.14498038638375      4.92757236613191     -0.00282626685777
C   6.16658835886151      3.51658447594213     -0.00065971342101
C   4.92460995845939      2.80840792535402      0.00587903281610
H   7.08990550964105      5.46688776622306     -0.00658814770723
H   -7.03104175110130      5.54268795285765     -0.00714490013730
C   -7.33969804112295      2.85841153457957     -0.00333767559888
C   -7.36488195805880      1.47032337158330     -0.00157213747140
C   -4.90350460894690      1.44442681216000     -0.00628840166334
C   -6.13225715261081      0.73993935705394      0.00600164231964
C   -3.67687480051673      0.72669714267312      0.00433931473643
C   -2.44565658606518      1.42964113326212     -0.00597039546461
C   -1.22360068130162      0.71532450163492      0.00545886906656
C   0.00763786931376      1.41738314923765      0.00392452278437
C   1.23121980774686      0.70211669058719     -0.01490206287210
C   2.46082110053113      1.40329203612573      0.00460244601878
C   3.68443025419614      0.68719842821222      0.00377365974158
C   4.91870890153864      1.39173456118907     -0.00862816189375
C   7.36980207796101      2.77948220318441     -0.00242013321349
C   7.38016266612146      1.39121750785509     -0.00087345036788
C   6.13979953912259      0.67411862320065      0.00545489144369
H   -8.27919079934664      3.40711804112415     -0.00763522772059
H   8.31511347147953      3.31811809662368     -0.00663070901292
C   -8.59175593758115      0.72483255304480     -0.00123170985383
C   -8.59902460370342     -0.63263980622873      0.00089141472904
C   -6.13981313911873     -0.67413663715361     -0.00609792660607
C   -7.38018411213749     -1.39126618958160      0.00131813493501
C   -4.91868448025621     -1.39175501803000      0.00624257154343
C   -3.68443829568458     -0.68723731573599     -0.00478966852105
C   -2.46081704024768     -1.40334517882457      0.00575341766833
C   -1.23116201232071     -0.70217386488055     -0.00636696112346
C   -0.00756962538737     -1.41741884941102      0.00108956317991
C   1.22364771588843     -0.71527537726392      0.01109518512883
C   2.44567064933149     -1.42964328900682     -0.00065482763106
C   3.67686670284649     -0.72670743155550     -0.00479541202602
C   6.13224884641929     -0.73997883984993     -0.00632338623858
C   4.90351914550401     -1.44445752054090      0.00751768830159
C   8.59901484869081      0.63260386666793     -0.00101133422380
C   8.59174548810050     -0.72485086719319      0.00072504603735
C   7.36486276438985     -1.47033266560598      0.00049486934466
H   -9.52830597181814      1.27684744919284     -0.00270163681798
H   9.54141097460619      1.17457248844457     -0.00206336648518
C   -7.36983790976868     -2.77954514593389      0.00312634335708
C   -4.92459910905015     -2.80843725734101     -0.00460528907921
C   -6.16662249566744     -3.51665219282533      0.00169655107992
C   -3.70251035970491     -3.52468154912026      0.00571878010666
C   -2.46764698511392     -2.82132596280400     -0.00632585824990
C   -0.01513347410770     -2.83314164539971     -0.00604426974092
C   -1.24712184122656     -3.53473217556300      0.00551968366725
C   1.20924506964357     -3.54791467864352      0.00805871345849
C   2.43733602215464     -2.84764173817541     -0.00608104485234
C   4.89430234377080     -2.86112296828604     -0.00526030478103
C   3.66461525504104     -3.56421984553201      0.00761911515957
C   6.12863901474565     -3.58258405771778      0.00096495711699
C   7.33967266469532     -2.85841330737039      0.00248018319869
H   -9.54144911125902     -1.17456346666430      0.00226083090216
H   9.52826186807155     -1.27691907390448      0.00197485379837
H   -8.31516504384864     -3.31814985321231      0.00729857188773
H   8.27915514249207     -3.40714078989363      0.00681973918158
C   -6.14499418870218     -4.92764727278338      0.00302254913999
C   -3.70678334799751     -4.94126171411716     -0.00679841894792
C   -4.95559005800169     -5.64349397349412      0.00116871569699
C   -2.48612132622665     -5.65478557440947      0.00614125209662
C   -1.25405833548005     -4.95612205000132     -0.00503435388927
C   1.20101257386816     -4.96928038819302     -0.00385322963129
C   -0.03033667441341     -5.66952030313900      0.00398997003238
C   3.65375010132847     -4.98074377541453     -0.00309522988330
C   2.42549269587528     -5.68117463552727      0.00628170066869
C   6.09196561781097     -4.99325796338655      0.00325918379042
C   4.89497644461045     -5.69634842095790      0.00202298796027
H   -7.08989238804069     -5.46699984223871      0.00742531082125
H   7.03105520920009     -5.54265853633254      0.00683896355417
C   -4.92354532219813     -7.07882109967734      0.00061394679214
C   -2.48534208823777     -7.08772807792913     -0.00189594564379
C   -3.75168589177895     -7.76394715763627     -0.00170126671874
C   -0.03794895698805     -7.09946487446944     -0.00168022049625
C   -1.27795610040136     -7.77290438466689     -0.00366491325785
C   2.40944432072629     -7.11402201200282     -0.00081701968533
C   1.19474993715296     -7.78618536556242     -0.00296931056689
C   4.84762105249800     -7.13126211057943      0.00168979497423
C   3.66847160587561     -7.80378799294376     -0.00065863938960
H   -5.86994035041618     -7.61383059804164      0.00215798365757
H   5.78824962538815     -7.67633218931421      0.00281691445618
H   -3.75352693944918     -8.85107156923607     -0.00353718114765
H   -1.28430440589466     -8.86087539249706     -0.00809229711623
H   1.18922157469537     -8.87416062058945     -0.00706194725726
H   3.65854661482387     -8.89086063405326     -0.00231318081200

    units angstrom      # Angstroms are the default
    no_reorient         # Geometry fixed, default
    symmetry c1         # C1 symmetry, default
}

set {
    scf_type DF         # Density fitting, faster than exact integrals
    freeze_core True    # Freeze core electrons
    basis jun-cc-pVDZ   # Jun-cc-pVDZ basis set, recommended for sSAPT0 in https://doi.org/10.1063/1.4867135
}

energy('ssapt0')        # Compute sSAPT0 energy, includes also SAPT0
--------------------------------------------------------------------------

  Memory set to  43.772 GiB by Python driver.

Scratch directory: /tmp/
   => Loading Basis Set <=

    Name: JUN-CC-PVDZ
    Role: ORBITAL
    Keyword: BASIS
    atoms 1                                                   entry B          line   130 file /opt/software/pc2/EB-SW/software/PSI4/1.9-foss-2022a/share/psi4/basis/jun-cc-pvdz.gbs 
    atoms 2-5                                                 entry F          line   266 file /opt/software/pc2/EB-SW/software/PSI4/1.9-foss-2022a/share/psi4/basis/jun-cc-pvdz.gbs 
    atoms 6-23, 30-42, 45-59, 62-78, 81-93, 98-108, 111-119   entry C          line   164 file /opt/software/pc2/EB-SW/software/PSI4/1.9-foss-2022a/share/psi4/basis/jun-cc-pvdz.gbs 
    atoms 24-29, 43-44, 60-61, 79-80, 94-97, 109-110, 120-125 entry H          line    36 file /opt/software/pc2/EB-SW/software/PSI4/1.9-foss-2022a/share/psi4/basis/jun-cc-pvdz.gbs 

   => Loading Basis Set <=

    Name: JUN-CC-PVDZ
    Role: ORBITAL
    Keyword: BASIS
    atoms 1                                                   entry B          line   130 file /opt/software/pc2/EB-SW/software/PSI4/1.9-foss-2022a/share/psi4/basis/jun-cc-pvdz.gbs 
    atoms 2-5                                                 entry F          line   266 file /opt/software/pc2/EB-SW/software/PSI4/1.9-foss-2022a/share/psi4/basis/jun-cc-pvdz.gbs 
    atoms 6-23, 30-42, 45-59, 62-78, 81-93, 98-108, 111-119   entry C          line   164 file /opt/software/pc2/EB-SW/software/PSI4/1.9-foss-2022a/share/psi4/basis/jun-cc-pvdz.gbs 
    atoms 24-29, 43-44, 60-61, 79-80, 94-97, 109-110, 120-125 entry H          line    36 file /opt/software/pc2/EB-SW/software/PSI4/1.9-foss-2022a/share/psi4/basis/jun-cc-pvdz.gbs 


  //>>>>>>>>>>>>>>>>>>>>>>>>>>>>>>>>>>>//
  //              Dimer HF             //
  //<<<<<<<<<<<<<<<<<<<<<<<<<<<<<<<<<<<//

   => Libint2 <=

    Primary   basis highest AM E, G, H:  5, 4, 3
    Auxiliary basis highest AM E, G, H:  6, 5, 4
    Onebody   basis highest AM E, G, H:  6, 5, 4
    Solid Harmonics ordering:            gaussian

*** tstart() called on n2cn1193
*** at Wed Jan 24 19:40:41 2024

   => Loading Basis Set <=

    Name: JUN-CC-PVDZ
    Role: ORBITAL
    Keyword: BASIS
    atoms 1                                                   entry B          line   130 file /opt/software/pc2/EB-SW/software/PSI4/1.9-foss-2022a/share/psi4/basis/jun-cc-pvdz.gbs 
    atoms 2-5                                                 entry F          line   266 file /opt/software/pc2/EB-SW/software/PSI4/1.9-foss-2022a/share/psi4/basis/jun-cc-pvdz.gbs 
    atoms 6-23, 30-42, 45-59, 62-78, 81-93, 98-108, 111-119   entry C          line   164 file /opt/software/pc2/EB-SW/software/PSI4/1.9-foss-2022a/share/psi4/basis/jun-cc-pvdz.gbs 
    atoms 24-29, 43-44, 60-61, 79-80, 94-97, 109-110, 120-125 entry H          line    36 file /opt/software/pc2/EB-SW/software/PSI4/1.9-foss-2022a/share/psi4/basis/jun-cc-pvdz.gbs 


         ---------------------------------------------------------
                                   SCF
               by Justin Turney, Rob Parrish, Andy Simmonett
                          and Daniel G. A. Smith
                              RHF Reference
                       16 Threads,  44822 MiB Core
         ---------------------------------------------------------

  ==> Geometry <==

    Molecular point group: c1
    Full point group: C1

    Geometry (in Angstrom), charge = -1, multiplicity = 1:

       Center              X                  Y                   Z               Mass       
    ------------   -----------------  -----------------  -----------------  -----------------
         B           -0.000050191042     0.000351518223     2.420914545552    11.009305360000
         F           -1.153601191042     0.000062518223     3.236561545552    18.998403162730
         F            1.153656808958    -0.000566481777     3.236561545552    18.998403162730
         F           -0.000023191042    -1.153622481777     1.605280545552    18.998403162730
         F           -0.000023191042     1.153992518223     1.605280545552    18.998403162730
         C           -3.668445455062     7.803766688305    -0.177179413112    12.000000000000
         C           -4.847602910388     7.131256349563    -0.179545988045    12.000000000000
         C           -4.894963490217     5.696344921754    -0.180118899143    12.000000000000
         C           -3.653744869815     4.980744859182    -0.172458457413    12.000000000000
         C           -2.409429312536     7.113995554897    -0.176985070852    12.000000000000
         C           -2.425481535146     5.681136469126    -0.183989959722    12.000000000000
         C           -1.194748207477     7.786158712532    -0.175512890310    12.000000000000
         C            0.037954837895     7.099436163980    -0.177683594615    12.000000000000
         C            0.030328396378     5.669504077927    -0.183166979531    12.000000000000
         C           -1.200988698947     4.969284866138    -0.174197245597    12.000000000000
         C            1.277953634773     7.772873961417    -0.176307746054    12.000000000000
         C            2.485353893683     7.087711403460    -0.178582233959    12.000000000000
         C            2.486124493876     5.654785328463    -0.185519982947    12.000000000000
         C            1.254078728602     4.956092631887    -0.173892041359    12.000000000000
         C            3.751710400364     7.763926669203    -0.178455382579    12.000000000000
         C            4.923561865144     7.078795295213    -0.180511863287    12.000000000000
         C            4.955603080284     5.643461981592    -0.180672276094    12.000000000000
         C            3.706797343163     4.941224726556    -0.175580715924    12.000000000000
         H           -3.658525328800     8.890841937358    -0.175494424862     1.007825032230
         H           -1.189217520798     8.874135605583    -0.171541013869     1.007825032230
         H            1.284290047845     8.860847953711    -0.172148921913     1.007825032230
         H            3.753537895758     8.851049797195    -0.176932858263     1.007825032230
         H            5.869954512165     7.613809352878    -0.181437230329     1.007825032230
         H           -5.788235898544     7.676316731157    -0.181105835401     1.007825032230
         C           -6.091978149738     4.993274531866    -0.181991139634    12.000000000000
         C           -6.128665671359     3.582594687021    -0.180789962605    12.000000000000
         C           -3.664583931087     3.564196697967    -0.183715057223    12.000000000000
         C           -4.894302395740     2.861095294123    -0.174546072237    12.000000000000
         C           -2.437339185940     2.847626175307    -0.171883278686    12.000000000000
         C           -1.209232048638     3.547901453201    -0.185562305478    12.000000000000
         C            1.247137381121     3.534695269652    -0.186370911883    12.000000000000
         C            0.015171848527     2.833126357528    -0.174686728659    12.000000000000
         C            2.467640981399     2.821304495478    -0.174586670535    12.000000000000
         C            3.702545283538     3.524674672647    -0.188074631378    12.000000000000
         C            6.144976195342     4.927586884354    -0.181905721305    12.000000000000
         C            6.166584167820     3.516598994165    -0.179739167869    12.000000000000
         C            4.924605767418     2.808422443577    -0.173200421632    12.000000000000
         H            7.089901318599     5.466902284446    -0.185667602155     1.007825032230
         H           -7.031045942143     5.542702471080    -0.186224354585     1.007825032230
         C           -7.339702232165     2.858426052802    -0.182417130047    12.000000000000
         C           -7.364886149100     1.470337889806    -0.180651591919    12.000000000000
         C           -4.903508799989     1.444441330383    -0.185367856111    12.000000000000
         C           -6.132261343652     0.739953875277    -0.173077812128    12.000000000000
         C           -3.676878991558     0.726711660896    -0.174740139711    12.000000000000
         C           -2.445660777107     1.429655651485    -0.185049849912    12.000000000000
         C           -1.223604872343     0.715339019858    -0.173620585381    12.000000000000
         C            0.007633678272     1.417397667460    -0.175154931663    12.000000000000
         C            1.231215616705     0.702131208810    -0.193981517320    12.000000000000
         C            2.460816909489     1.403306554348    -0.174477008429    12.000000000000
         C            3.684426063155     0.687212946435    -0.175305794706    12.000000000000
         C            4.918704710497     1.391749079412    -0.187707616341    12.000000000000
         C            7.369797886919     2.779496721407    -0.181499587661    12.000000000000
         C            7.380158475080     1.391232026078    -0.179952904816    12.000000000000
         C            6.139795348081     0.674133141423    -0.173624563004    12.000000000000
         H           -8.279194990388     3.407132559347    -0.186714682168     1.007825032230
         H            8.315109280438     3.318132614846    -0.185710163461     1.007825032230
         C           -8.591760128623     0.724847071267    -0.180311164301    12.000000000000
         C           -8.599028794745    -0.632625288006    -0.178188039719    12.000000000000
         C           -6.139817330160    -0.674122118931    -0.185177381054    12.000000000000
         C           -7.380188303179    -1.391251671359    -0.177761319513    12.000000000000
         C           -4.918688671298    -1.391740499807    -0.172836882904    12.000000000000
         C           -3.684442486726    -0.687222797513    -0.183869122969    12.000000000000
         C           -2.460821231289    -1.403330660602    -0.173326036779    12.000000000000
         C           -1.231166203362    -0.702159346658    -0.185446415571    12.000000000000
         C           -0.007573816429    -1.417404331188    -0.177989891268    12.000000000000
         C            1.223643524847    -0.715260859041    -0.167984269319    12.000000000000
         C            2.445666458290    -1.429628770784    -0.179734282079    12.000000000000
         C            3.676862511805    -0.726692913333    -0.183874866474    12.000000000000
         C            6.132244655378    -0.739964321627    -0.185402840686    12.000000000000
         C            4.903514954462    -1.444443002318    -0.171561766146    12.000000000000
         C            8.599010657649     0.632618384891    -0.180090788671    12.000000000000
         C            8.591741297059    -0.724836348971    -0.178354408410    12.000000000000
         C            7.364858573348    -1.470318147383    -0.178584585103    12.000000000000
         H           -9.528310162860     1.276861967415    -0.181781091266     1.007825032230
         H            9.541406783565     1.174587006667    -0.181142820933     1.007825032230
         C           -7.369842100810    -2.779530627711    -0.175953111091    12.000000000000
         C           -4.924603300092    -2.808422739118    -0.183684743527    12.000000000000
         C           -6.166626686709    -3.516637674603    -0.177382903368    12.000000000000
         C           -3.702514550747    -3.524667030898    -0.173360674341    12.000000000000
         C           -2.467651176156    -2.821311444581    -0.185405312698    12.000000000000
         C           -0.015137665149    -2.833127127177    -0.185123724189    12.000000000000
         C           -1.247126032268    -3.534717657340    -0.173559770780    12.000000000000
         C            1.209240878602    -3.547900160421    -0.171020740989    12.000000000000
         C            2.437331831113    -2.847627219953    -0.185160499300    12.000000000000
         C            4.894298152729    -2.861108450063    -0.184339759229    12.000000000000
         C            3.664611063999    -3.564205327309    -0.171460339288    12.000000000000
         C            6.128634823704    -3.582569539495    -0.178114497331    12.000000000000
         C            7.339668473654    -2.858398789148    -0.176599271249    12.000000000000
         H           -9.541453302301    -1.174548948442    -0.176818623546     1.007825032230
         H            9.528257677030    -1.276904555682    -0.177104600649     1.007825032230
         H           -8.315169234890    -3.318135334990    -0.171780882560     1.007825032230
         H            8.279150951450    -3.407126271671    -0.172259715266     1.007825032230
         C           -6.144998379744    -4.927632754561    -0.176056905308    12.000000000000
         C           -3.706787539039    -4.941247195895    -0.185877873396    12.000000000000
         C           -4.955594249043    -5.643479455272    -0.177910738751    12.000000000000
         C           -2.486125517268    -5.654771056187    -0.172938202351    12.000000000000
         C           -1.254062526522    -4.956107531779    -0.184113808337    12.000000000000
         C            1.201008382827    -4.969265869970    -0.182932684079    12.000000000000
         C           -0.030340865455    -5.669505784916    -0.175089484415    12.000000000000
         C            3.653745910287    -4.980729257192    -0.182174684331    12.000000000000
         C            2.425488504834    -5.681160117305    -0.172797753779    12.000000000000
         C            6.091961426769    -4.993243445164    -0.175820270657    12.000000000000
         C            4.894972253569    -5.696333902735    -0.177056466487    12.000000000000
         H           -7.089896579082    -5.466985324016    -0.171654143626     1.007825032230
         H            7.031051018158    -5.542644018110    -0.172240490893     1.007825032230
         C           -4.923549513240    -7.078806581455    -0.178465507656    12.000000000000
         C           -2.485346279279    -7.087713559707    -0.180975400091    12.000000000000
         C           -3.751690082821    -7.763932639414    -0.180780721166    12.000000000000
         C           -0.037953148030    -7.099450356247    -0.180759674944    12.000000000000
         C           -1.277960291443    -7.772889866444    -0.182744367706    12.000000000000
         C            2.409440129685    -7.114007493780    -0.179896474133    12.000000000000
         C            1.194745746111    -7.786170847340    -0.182048765015    12.000000000000
         C            4.847616861456    -7.131247592357    -0.177389659473    12.000000000000
         C            3.668467414834    -7.803773474721    -0.179738093837    12.000000000000
         H           -5.869944541458    -7.613816079819    -0.176921470790     1.007825032230
         H            5.788245434347    -7.676317671092    -0.176262539991     1.007825032230
         H           -3.753531130491    -8.851057051013    -0.182616635595     1.007825032230
         H           -1.284308596936    -8.860860874274    -0.187171751564     1.007825032230
         H            1.189217383654    -8.874146102367    -0.186141401705     1.007825032230
         H            3.658542423782    -8.890846115831    -0.181392635260     1.007825032230

  Running in c1 symmetry.

  Rotational constants: A =      0.00069  B =      0.00069  C =      0.00035 [cm^-1]
  Rotational constants: A =     20.58989  B =     20.58626  C =     10.55117 [MHz]
  Nuclear repulsion = 17946.526381618376035

  Charge       = -1
  Multiplicity = 1
  Electrons    = 642
  Nalpha       = 321
  Nbeta        = 321

  ==> Algorithm <==

  SCF Algorithm Type is DF.
  DIIS enabled.
  MOM disabled.
  Fractional occupation disabled.
  Guess Type is SAD.
  Energy threshold   = 1.00e-08
  Density threshold  = 1.00e-08
  Integral threshold = 1.00e-12

  ==> Primary Basis <==

  Basis Set: JUN-CC-PVDZ
    Blend: JUN-CC-PVDZ
    Number of shells: 880
    Number of basis functions: 1938
    Number of Cartesian functions: 2039
    Spherical Harmonics?: true
    Max angular momentum: 2

   => Loading Basis Set <=

    Name: (JUN-CC-PVDZ AUX)
    Role: JKFIT
    Keyword: DF_BASIS_SCF
    atoms 1                                                   entry B          line    90 file /opt/software/pc2/EB-SW/software/PSI4/1.9-foss-2022a/share/psi4/basis/jun-cc-pvdz-jkfit.gbs 
    atoms 2-5                                                 entry F          line   314 file /opt/software/pc2/EB-SW/software/PSI4/1.9-foss-2022a/share/psi4/basis/jun-cc-pvdz-jkfit.gbs 
    atoms 6-23, 30-42, 45-59, 62-78, 81-93, 98-108, 111-119   entry C          line   146 file /opt/software/pc2/EB-SW/software/PSI4/1.9-foss-2022a/share/psi4/basis/jun-cc-pvdz-jkfit.gbs 
    atoms 24-29, 43-44, 60-61, 79-80, 94-97, 109-110, 120-125 entry H          line    70 file /opt/software/pc2/EB-SW/software/PSI4/1.9-foss-2022a/share/psi4/basis/jun-cc-pvdz-jkfit.gbs 

  ==> Integral Setup <==

  ==> DiskDFJK: Density-Fitted J/K Matrices <==

    J tasked:                  Yes
    K tasked:                  Yes
    wK tasked:                  No
    OpenMP threads:             16
    Integrals threads:          16
    Memory [MiB]:            33617
    Algorithm:                Disk
    Integral Cache:           SAVE
    Schwarz Cutoff:          1E-12
    Fitting Condition:       1E-10

   => Auxiliary Basis Set <=

  Basis Set: (JUN-CC-PVDZ AUX)
    Blend: JUN-CC-PVDZ-JKFIT
    Number of shells: 2943
    Number of basis functions: 8531
    Number of Cartesian functions: 9791
    Spherical Harmonics?: true
    Max angular momentum: 3

  Minimum eigenvalue in the overlap matrix is 5.8898786382E-11.
  Reciprocal condition number of the overlap matrix is 2.3560562270E-12.
    Using canonical orthogonalization.
  Overall, 40 of 1938 possible MOs eliminated.


  ==> Pre-Iterations <==

  SCF Guess: Superposition of Atomic Densities via on-the-fly atomic UHF (no occupation information).

   -------------------------
    Irrep   Nso     Nmo    
   -------------------------
     A       1938    1898 
   -------------------------
    Total    1938    1898
   -------------------------

  ==> Iterations <==

                           Total Energy        Delta E     RMS |[F,P]|

   @DF-RHF iter SAD: -4086.32406223980206   -4.08632e+03   0.00000e+00 
   @DF-RHF iter   1: -4071.30934538096835    1.50147e+01   7.87853e-04 DIIS/ADIIS
   @DF-RHF iter   2: -4072.72440936097610   -1.41506e+00   3.04223e-04 DIIS/ADIIS
   @DF-RHF iter   3: -4072.89204510762465   -1.67636e-01   1.17009e-04 DIIS/ADIIS
   @DF-RHF iter   4: -4072.91891946863689   -2.68744e-02   5.38165e-05 DIIS
   @DF-RHF iter   5: -4072.92563822106058   -6.71875e-03   1.58043e-05 DIIS
   @DF-RHF iter   6: -4072.92639342296798   -7.55202e-04   5.65136e-06 DIIS
   @DF-RHF iter   7: -4072.92662670058826   -2.33278e-04   3.03494e-06 DIIS
   @DF-RHF iter   8: -4072.92671943784808   -9.27373e-05   1.50097e-06 DIIS
   @DF-RHF iter   9: -4072.92675038470270   -3.09469e-05   5.94854e-07 DIIS
   @DF-RHF iter  10: -4072.92675326408789   -2.87939e-06   2.82807e-07 DIIS
   @DF-RHF iter  11: -4072.92675396103687   -6.96949e-07   1.38419e-07 DIIS
   @DF-RHF iter  12: -4072.92675419366242   -2.32626e-07   8.64915e-08 DIIS
   @DF-RHF iter  13: -4072.92675429941664   -1.05754e-07   4.19809e-08 DIIS
   @DF-RHF iter  14: -4072.92675432488113   -2.54645e-08   2.23497e-08 DIIS
   @DF-RHF iter  15: -4072.92675433163413   -6.75300e-09   9.83127e-09 DIIS
  Energy and wave function converged.


  ==> Post-Iterations <==

    Orbital Energies [Eh]
    ---------------------

    Doubly Occupied:                                                      

       1A    -26.164863     2A    -26.164289     3A    -26.129077  
       4A    -26.129026     5A    -11.196175     6A    -11.195492  
       7A    -11.192395     8A    -11.192387     9A    -11.192373  
      10A    -11.192362    11A    -11.191808    12A    -11.191805  
      13A    -11.191794    14A    -11.191788    15A    -11.191689  
      16A    -11.191685    17A    -11.191684    18A    -11.191678  
      19A    -11.190766    20A    -11.190762    21A    -11.190745  
      22A    -11.190740    23A    -11.190438    24A    -11.190434  
      25A    -11.189925    26A    -11.189913    27A    -11.189512  
      28A    -11.189510    29A    -11.189509    30A    -11.189501  
      31A    -11.188484    32A    -11.188473    33A    -11.187919  
      34A    -11.187906    35A    -11.187901    36A    -11.187899  
      37A    -11.187365    38A    -11.187346    39A    -11.187199  
      40A    -11.187183    41A    -11.187173    42A    -11.187155  
      43A    -11.187071    44A    -11.187047    45A    -11.186830  
      46A    -11.186813    47A    -11.186800    48A    -11.186771  
      49A    -11.186676    50A    -11.186643    51A    -11.186271  
      52A    -11.186251    53A    -11.185416    54A    -11.185402  
      55A    -11.185318    56A    -11.185299    57A    -11.185291  
      58A    -11.185250    59A    -11.185167    60A    -11.185121  
      61A    -11.184964    62A    -11.184936    63A    -11.184483  
      64A    -11.184423    65A    -11.184397    66A    -11.184369  
      67A    -11.183615    68A    -11.183544    69A    -11.183462  
      70A    -11.183416    71A    -11.183395    72A    -11.183353  
      73A    -11.183339    74A    -11.183316    75A    -11.182687  
      76A    -11.182661    77A    -11.181609    78A    -11.181603  
      79A    -11.181565    80A    -11.181483    81A    -11.181404  
      82A    -11.181342    83A    -11.180837    84A    -11.180755  
      85A    -11.180750    86A    -11.180681    87A    -11.178329  
      88A    -11.178227    89A    -11.177996    90A    -11.177939  
      91A    -11.175248    92A    -11.175199    93A    -11.175149  
      94A    -11.175115    95A    -11.170664    96A    -11.170470  
      97A    -11.169349    98A    -11.169173    99A    -11.165898  
     100A    -11.165897   101A     -7.622679   102A     -1.524413  
     103A     -1.483858   104A     -1.433441   105A     -1.412779  
     106A     -1.173459   107A     -1.162616   108A     -1.162060  
     109A     -1.146537   110A     -1.145713   111A     -1.137708  
     112A     -1.128655   113A     -1.122192   114A     -1.110918  
     115A     -1.110535   116A     -1.102013   117A     -1.101717  
     118A     -1.079746   119A     -1.078546   120A     -1.077386  
     121A     -1.073450   122A     -1.073289   123A     -1.054102  
     124A     -1.041917   125A     -1.040802   126A     -1.038582  
     127A     -1.038219   128A     -1.036894   129A     -1.014644  
     130A     -1.014322   131A     -1.006146   132A     -1.005899  
     133A     -0.993027   134A     -0.992478   135A     -0.990057  
     136A     -0.974370   137A     -0.973846   138A     -0.967669  
     139A     -0.967330   140A     -0.966816   141A     -0.949629  
     142A     -0.946540   143A     -0.944093   144A     -0.935461  
     145A     -0.932406   146A     -0.929644   147A     -0.926043  
     148A     -0.925407   149A     -0.920390   150A     -0.898504  
     151A     -0.897161   152A     -0.883905   153A     -0.883624  
     154A     -0.835709   155A     -0.835551   156A     -0.830172  
     157A     -0.829812   158A     -0.828289   159A     -0.817702  
     160A     -0.816326   161A     -0.815344   162A     -0.815341  
     163A     -0.814532   164A     -0.801448   165A     -0.800614  
     166A     -0.780562   167A     -0.775362   168A     -0.772842  
     169A     -0.769879   170A     -0.768271   171A     -0.763482  
     172A     -0.761798   173A     -0.758735   174A     -0.757944  
     175A     -0.724962   176A     -0.714664   177A     -0.714597  
     178A     -0.710725   179A     -0.709864   180A     -0.708963  
     181A     -0.708528   182A     -0.694303   183A     -0.693159  
     184A     -0.685341   185A     -0.676815   186A     -0.665353  
     187A     -0.661669   188A     -0.654521   189A     -0.652922  
     190A     -0.651623   191A     -0.651475   192A     -0.651119  
     193A     -0.642247   194A     -0.639808   195A     -0.630449  
     196A     -0.627954   197A     -0.627645   198A     -0.626508  
     199A     -0.620791   200A     -0.614847   201A     -0.614425  
     202A     -0.609803   203A     -0.609598   204A     -0.604993  
     205A     -0.604451   206A     -0.582048   207A     -0.581703  
     208A     -0.580889   209A     -0.580433   210A     -0.578710  
     211A     -0.577894   212A     -0.569229   213A     -0.568719  
     214A     -0.568164   215A     -0.567826   216A     -0.566628  
     217A     -0.564422   218A     -0.561524   219A     -0.555908  
     220A     -0.546029   221A     -0.544034   222A     -0.542663  
     223A     -0.538611   224A     -0.537746   225A     -0.528693  
     226A     -0.526697   227A     -0.526136   228A     -0.525167  
     229A     -0.524235   230A     -0.523993   231A     -0.523868  
     232A     -0.523527   233A     -0.523431   234A     -0.522561  
     235A     -0.521254   236A     -0.519697   237A     -0.517121  
     238A     -0.512662   239A     -0.509814   240A     -0.508960  
     241A     -0.508506   242A     -0.502395   243A     -0.501691  
     244A     -0.501551   245A     -0.498925   246A     -0.496584  
     247A     -0.495084   248A     -0.495020   249A     -0.491524  
     250A     -0.490480   251A     -0.488239   252A     -0.487775  
     253A     -0.484430   254A     -0.484013   255A     -0.481950  
     256A     -0.480054   257A     -0.479230   258A     -0.479184  
     259A     -0.471733   260A     -0.466137   261A     -0.463064  
     262A     -0.460439   263A     -0.459297   264A     -0.456367  
     265A     -0.455525   266A     -0.453554   267A     -0.452042  
     268A     -0.448717   269A     -0.444687   270A     -0.444407  
     271A     -0.443836   272A     -0.443205   273A     -0.442839  
     274A     -0.438765   275A     -0.438427   276A     -0.425057  
     277A     -0.422862   278A     -0.422664   279A     -0.417406  
     280A     -0.416334   281A     -0.410311   282A     -0.406969  
     283A     -0.406689   284A     -0.401534   285A     -0.393881  
     286A     -0.392865   287A     -0.391853   288A     -0.385371  
     289A     -0.384905   290A     -0.368985   291A     -0.368657  
     292A     -0.365628   293A     -0.365344   294A     -0.360842  
     295A     -0.358374   296A     -0.347927   297A     -0.333724  
     298A     -0.332712   299A     -0.315890   300A     -0.313980  
     301A     -0.310651   302A     -0.310086   303A     -0.290570  
     304A     -0.281316   305A     -0.280242   306A     -0.277682  
     307A     -0.263310   308A     -0.263043   309A     -0.259081  
     310A     -0.252756   311A     -0.231593   312A     -0.228616  
     313A     -0.227552   314A     -0.225428   315A     -0.221032  
     316A     -0.214096   317A     -0.189185   318A     -0.177446  
     319A     -0.153117   320A     -0.132395   321A     -0.131392  

    Virtual:                                                              

     322A      0.061554   323A      0.064812   324A      0.096296  
     325A      0.096557   326A      0.096995   327A      0.098717  
     328A      0.099163   329A      0.104168   330A      0.106033  
     331A      0.106561   332A      0.109896   333A      0.112071  
     334A      0.112145   335A      0.112787   336A      0.123443  
     337A      0.123470   338A      0.132368   339A      0.132653  
     340A      0.138774   341A      0.139144   342A      0.139224  
     343A      0.140502   344A      0.141233   345A      0.143604  
     346A      0.143748   347A      0.144007   348A      0.144439  
     349A      0.145875   350A      0.146727   351A      0.147906  
     352A      0.149590   353A      0.151045   354A      0.151119  
     355A      0.151252   356A      0.151503   357A      0.151573  
     358A      0.153832   359A      0.161810   360A      0.163919  
     361A      0.164479   362A      0.165262   363A      0.165427  
     364A      0.166140   365A      0.166904   366A      0.167870  
     367A      0.169770   368A      0.174057   369A      0.174149  
     370A      0.176762   371A      0.177947   372A      0.178307  
     373A      0.178471   374A      0.179215   375A      0.179894  
     376A      0.180157   377A      0.181516   378A      0.181750  
     379A      0.184181   380A      0.190508   381A      0.190537  
     382A      0.191915   383A      0.196693   384A      0.198602  
     385A      0.198620   386A      0.200167   387A      0.200214  
     388A      0.205501   389A      0.206280   390A      0.207060  
     391A      0.207698   392A      0.209781   393A      0.215616  
     394A      0.216062   395A      0.216252   396A      0.216872  
     397A      0.217821   398A      0.219936   399A      0.221887  
     400A      0.222920   401A      0.223748   402A      0.225129  
     403A      0.225341   404A      0.225490   405A      0.225905  
     406A      0.227826   407A      0.227996   408A      0.229711  
     409A      0.230300   410A      0.231171   411A      0.232894  
     412A      0.234052   413A      0.235649   414A      0.239649  
     415A      0.242088   416A      0.242449   417A      0.244283  
     418A      0.244848   419A      0.244946   420A      0.245699  
     421A      0.245983   422A      0.251457   423A      0.253262  
     424A      0.254194   425A      0.254696   426A      0.254728  
     427A      0.258846   428A      0.259690   429A      0.260164  
     430A      0.262912   431A      0.262997   432A      0.264222  
     433A      0.265055   434A      0.265136   435A      0.265687  
     436A      0.270255   437A      0.271435   438A      0.272988  
     439A      0.273797   440A      0.274191   441A      0.274692  
     442A      0.275076   443A      0.275251   444A      0.275357  
     445A      0.276503   446A      0.277338   447A      0.277689  
     448A      0.277917   449A      0.278217   450A      0.279576  
     451A      0.279733   452A      0.280820   453A      0.281090  
     454A      0.286251   455A      0.286800   456A      0.291867  
     457A      0.292971   458A      0.293538   459A      0.293799  
     460A      0.294348   461A      0.294650   462A      0.295301  
     463A      0.295590   464A      0.296668   465A      0.298064  
     466A      0.298106   467A      0.301566   468A      0.302418  
     469A      0.303562   470A      0.304817   471A      0.307148  
     472A      0.308734   473A      0.309875   474A      0.311272  
     475A      0.311736   476A      0.316448   477A      0.317737  
     478A      0.317925   479A      0.320781   480A      0.321692  
     481A      0.322190   482A      0.322623   483A      0.323554  
     484A      0.324270   485A      0.325294   486A      0.327017  
     487A      0.328120   488A      0.329541   489A      0.330075  
     490A      0.331872   491A      0.331951   492A      0.334829  
     493A      0.338986   494A      0.340769   495A      0.340858  
     496A      0.341092   497A      0.342342   498A      0.343190  
     499A      0.344536   500A      0.344698   501A      0.345619  
     502A      0.345826   503A      0.346385   504A      0.347332  
     505A      0.347675   506A      0.352066   507A      0.352759  
     508A      0.354564   509A      0.354850   510A      0.357534  
     511A      0.360512   512A      0.361290   513A      0.361455  
     514A      0.361934   515A      0.362644   516A      0.365687  
     517A      0.367903   518A      0.368245   519A      0.368512  
     520A      0.369133   521A      0.370133   522A      0.370573  
     523A      0.371229   524A      0.372148   525A      0.374168  
     526A      0.374423   527A      0.374914   528A      0.375816  
     529A      0.375974   530A      0.377084   531A      0.379459  
     532A      0.379931   533A      0.380178   534A      0.380429  
     535A      0.383715   536A      0.384102   537A      0.386411  
     538A      0.388114   539A      0.388707   540A      0.390017  
     541A      0.390772   542A      0.391105   543A      0.391589  
     544A      0.393247   545A      0.394338   546A      0.395265  
     547A      0.396264   548A      0.396787   549A      0.397856  
     550A      0.398317   551A      0.398969   552A      0.399966  
     553A      0.400711   554A      0.402442   555A      0.404522  
     556A      0.404562   557A      0.405283   558A      0.407802  
     559A      0.408832   560A      0.409950   561A      0.410254  
     562A      0.410587   563A      0.415980   564A      0.416461  
     565A      0.417320   566A      0.418089   567A      0.419596  
     568A      0.422942   569A      0.425238   570A      0.426153  
     571A      0.427160   572A      0.427856   573A      0.428129  
     574A      0.432069   575A      0.433762   576A      0.434171  
     577A      0.436208   578A      0.437567   579A      0.438212  
     580A      0.439127   581A      0.439497   582A      0.440633  
     583A      0.441491   584A      0.442489   585A      0.445518  
     586A      0.446738   587A      0.447122   588A      0.448147  
     589A      0.448929   590A      0.449718   591A      0.452214  
     592A      0.455505   593A      0.455786   594A      0.456256  
     595A      0.456766   596A      0.458007   597A      0.459657  
     598A      0.460328   599A      0.460950   600A      0.461738  
     601A      0.462486   602A      0.463444   603A      0.463958  
     604A      0.465904   605A      0.466286   606A      0.467172  
     607A      0.467631   608A      0.468231   609A      0.468475  
     610A      0.468851   611A      0.472584   612A      0.472719  
     613A      0.472972   614A      0.473573   615A      0.473871  
     616A      0.474795   617A      0.476402   618A      0.476676  
     619A      0.476749   620A      0.477528   621A      0.477845  
     622A      0.478062   623A      0.478672   624A      0.479067  
     625A      0.479197   626A      0.479326   627A      0.482933  
     628A      0.483602   629A      0.484334   630A      0.487173  
     631A      0.487641   632A      0.488360   633A      0.488921  
     634A      0.490349   635A      0.491570   636A      0.491942  
     637A      0.494283   638A      0.494781   639A      0.496738  
     640A      0.498434   641A      0.500040   642A      0.500216  
     643A      0.500883   644A      0.502672   645A      0.503129  
     646A      0.503819   647A      0.504303   648A      0.504723  
     649A      0.505861   650A      0.506418   651A      0.507149  
     652A      0.507439   653A      0.507472   654A      0.507913  
     655A      0.509034   656A      0.510671   657A      0.512165  
     658A      0.514995   659A      0.518708   660A      0.519206  
     661A      0.519478   662A      0.519645   663A      0.521537  
     664A      0.521691   665A      0.522555   666A      0.522652  
     667A      0.523181   668A      0.524012   669A      0.525159  
     670A      0.526306   671A      0.527046   672A      0.527509  
     673A      0.528669   674A      0.529956   675A      0.530910  
     676A      0.533567   677A      0.533749   678A      0.537569  
     679A      0.539003   680A      0.539445   681A      0.540054  
     682A      0.540259   683A      0.541852   684A      0.544042  
     685A      0.544700   686A      0.545232   687A      0.545851  
     688A      0.546550   689A      0.546788   690A      0.547418  
     691A      0.549261   692A      0.549594   693A      0.550829  
     694A      0.552022   695A      0.553235   696A      0.554103  
     697A      0.554793   698A      0.555155   699A      0.555370  
     700A      0.558116   701A      0.559053   702A      0.559254  
     703A      0.560039   704A      0.561584   705A      0.562819  
     706A      0.563490   707A      0.564352   708A      0.565000  
     709A      0.566410   710A      0.566487   711A      0.569488  
     712A      0.569709   713A      0.569952   714A      0.570753  
     715A      0.572814   716A      0.575472   717A      0.576482  
     718A      0.577586   719A      0.579002   720A      0.580247  
     721A      0.581412   722A      0.583037   723A      0.584985  
     724A      0.586151   725A      0.586614   726A      0.586706  
     727A      0.587923   728A      0.587979   729A      0.590905  
     730A      0.591928   731A      0.592376   732A      0.594789  
     733A      0.595246   734A      0.597937   735A      0.602537  
     736A      0.602660   737A      0.603427   738A      0.605020  
     739A      0.605977   740A      0.607938   741A      0.612067  
     742A      0.614366   743A      0.616806   744A      0.617216  
     745A      0.618163   746A      0.619980   747A      0.624827  
     748A      0.626600   749A      0.628677   750A      0.629342  
     751A      0.629633   752A      0.630708   753A      0.631682  
     754A      0.632924   755A      0.634085   756A      0.635874  
     757A      0.638061   758A      0.639086   759A      0.641725  
     760A      0.642031   761A      0.643045   762A      0.643637  
     763A      0.647408   764A      0.647702   765A      0.648754  
     766A      0.649758   767A      0.650733   768A      0.651734  
     769A      0.655127   770A      0.655413   771A      0.657927  
     772A      0.658032   773A      0.663279   774A      0.666067  
     775A      0.667607   776A      0.672229   777A      0.672589  
     778A      0.674026   779A      0.674143   780A      0.675251  
     781A      0.676416   782A      0.677881   783A      0.679282  
     784A      0.680408   785A      0.685092   786A      0.686178  
     787A      0.687348   788A      0.687549   789A      0.688484  
     790A      0.690063   791A      0.691663   792A      0.695822  
     793A      0.700442   794A      0.703468   795A      0.704659  
     796A      0.707204   797A      0.709555   798A      0.713315  
     799A      0.714976   800A      0.716855   801A      0.717985  
     802A      0.720197   803A      0.723734   804A      0.726436  
     805A      0.728394   806A      0.730199   807A      0.732497  
     808A      0.733940   809A      0.734830   810A      0.736206  
     811A      0.738943   812A      0.745548   813A      0.746300  
     814A      0.747880   815A      0.751820   816A      0.754603  
     817A      0.755772   818A      0.758034   819A      0.758758  
     820A      0.761483   821A      0.761758   822A      0.762263  
     823A      0.762985   824A      0.766104   825A      0.768809  
     826A      0.769188   827A      0.772824   828A      0.773857  
     829A      0.775910   830A      0.781639   831A      0.787509  
     832A      0.788658   833A      0.789036   834A      0.803683  
     835A      0.805991   836A      0.807470   837A      0.807941  
     838A      0.809840   839A      0.814245   840A      0.814631  
     841A      0.817655   842A      0.818923   843A      0.820480  
     844A      0.823303   845A      0.824552   846A      0.826927  
     847A      0.832437   848A      0.848241   849A      0.848970  
     850A      0.852000   851A      0.854122   852A      0.856162  
     853A      0.859641   854A      0.861555   855A      0.867523  
     856A      0.868622   857A      0.870021   858A      0.870756  
     859A      0.872122   860A      0.873469   861A      0.875164  
     862A      0.875476   863A      0.879449   864A      0.883248  
     865A      0.884372   866A      0.885060   867A      0.885797  
     868A      0.886639   869A      0.886949   870A      0.889382  
     871A      0.895974   872A      0.896494   873A      0.897662  
     874A      0.900800   875A      0.904793   876A      0.906625  
     877A      0.907139   878A      0.910058   879A      0.912166  
     880A      0.915429   881A      0.915979   882A      0.917863  
     883A      0.920577   884A      0.922565   885A      0.924096  
     886A      0.925869   887A      0.926325   888A      0.930713  
     889A      0.932199   890A      0.932760   891A      0.933754  
     892A      0.935353   893A      0.935650   894A      0.936369  
     895A      0.938659   896A      0.940584   897A      0.942953  
     898A      0.943584   899A      0.946600   900A      0.947215  
     901A      0.949922   902A      0.950871   903A      0.952088  
     904A      0.954725   905A      0.956208   906A      0.957401  
     907A      0.958106   908A      0.960755   909A      0.964782  
     910A      0.966200   911A      0.968044   912A      0.968819  
     913A      0.969759   914A      0.969914   915A      0.973625  
     916A      0.975038   917A      0.976187   918A      0.982042  
     919A      0.984462   920A      0.985141   921A      0.985835  
     922A      0.986522   923A      0.987613   924A      0.989037  
     925A      0.990244   926A      0.991460   927A      0.994139  
     928A      0.997991   929A      0.999301   930A      1.000016  
     931A      1.002207   932A      1.002929   933A      1.003307  
     934A      1.004229   935A      1.006742   936A      1.008817  
     937A      1.009701   938A      1.011445   939A      1.013347  
     940A      1.014594   941A      1.016200   942A      1.018408  
     943A      1.019546   944A      1.021931   945A      1.022420  
     946A      1.023067   947A      1.023376   948A      1.024814  
     949A      1.025112   950A      1.027541   951A      1.028578  
     952A      1.029777   953A      1.031093   954A      1.032774  
     955A      1.033982   956A      1.034776   957A      1.036769  
     958A      1.042803   959A      1.044567   960A      1.050442  
     961A      1.051728   962A      1.056162   963A      1.059154  
     964A      1.060382   965A      1.061265   966A      1.062706  
     967A      1.065156   968A      1.067506   969A      1.072115  
     970A      1.072212   971A      1.073451   972A      1.074455  
     973A      1.075148   974A      1.075991   975A      1.076667  
     976A      1.076728   977A      1.084355   978A      1.084749  
     979A      1.086682   980A      1.089267   981A      1.091042  
     982A      1.091503   983A      1.095260   984A      1.096501  
     985A      1.097035   986A      1.097551   987A      1.102338  
     988A      1.105480   989A      1.107930   990A      1.109034  
     991A      1.110417   992A      1.116775   993A      1.117035  
     994A      1.117798   995A      1.118543   996A      1.119009  
     997A      1.119403   998A      1.119857   999A      1.121652  
    1000A      1.122947  1001A      1.124294  1002A      1.125403  
    1003A      1.129138  1004A      1.130473  1005A      1.131921  
    1006A      1.132891  1007A      1.133927  1008A      1.134371  
    1009A      1.135332  1010A      1.136340  1011A      1.137151  
    1012A      1.141486  1013A      1.141557  1014A      1.142143  
    1015A      1.142731  1016A      1.143538  1017A      1.144133  
    1018A      1.144273  1019A      1.145118  1020A      1.146109  
    1021A      1.148061  1022A      1.148915  1023A      1.150523  
    1024A      1.151681  1025A      1.151957  1026A      1.152686  
    1027A      1.153360  1028A      1.154070  1029A      1.154644  
    1030A      1.155185  1031A      1.156060  1032A      1.156457  
    1033A      1.156805  1034A      1.157509  1035A      1.159905  
    1036A      1.160389  1037A      1.160965  1038A      1.162589  
    1039A      1.164214  1040A      1.165881  1041A      1.169055  
    1042A      1.170005  1043A      1.172198  1044A      1.173220  
    1045A      1.174537  1046A      1.175652  1047A      1.176432  
    1048A      1.177609  1049A      1.178686  1050A      1.179439  
    1051A      1.183703  1052A      1.184283  1053A      1.185440  
    1054A      1.186770  1055A      1.187968  1056A      1.189955  
    1057A      1.191401  1058A      1.192449  1059A      1.194412  
    1060A      1.194777  1061A      1.197915  1062A      1.200141  
    1063A      1.201887  1064A      1.203502  1065A      1.206001  
    1066A      1.207933  1067A      1.209862  1068A      1.210889  
    1069A      1.212216  1070A      1.214635  1071A      1.218425  
    1072A      1.219393  1073A      1.221980  1074A      1.222215  
    1075A      1.223813  1076A      1.224361  1077A      1.227771  
    1078A      1.229023  1079A      1.229702  1080A      1.230944  
    1081A      1.231668  1082A      1.234083  1083A      1.237839  
    1084A      1.238544  1085A      1.238924  1086A      1.243503  
    1087A      1.245230  1088A      1.245714  1089A      1.247666  
    1090A      1.248069  1091A      1.249878  1092A      1.255160  
    1093A      1.256424  1094A      1.258091  1095A      1.260012  
    1096A      1.261752  1097A      1.262350  1098A      1.263645  
    1099A      1.266115  1100A      1.267141  1101A      1.275235  
    1102A      1.277201  1103A      1.277985  1104A      1.279153  
    1105A      1.279369  1106A      1.280111  1107A      1.283430  
    1108A      1.284488  1109A      1.284831  1110A      1.285925  
    1111A      1.288444  1112A      1.290403  1113A      1.290596  
    1114A      1.291628  1115A      1.293695  1116A      1.300642  
    1117A      1.301657  1118A      1.306153  1119A      1.308091  
    1120A      1.317870  1121A      1.320719  1122A      1.322488  
    1123A      1.323424  1124A      1.324971  1125A      1.326335  
    1126A      1.330251  1127A      1.332321  1128A      1.333473  
    1129A      1.333633  1130A      1.337271  1131A      1.337773  
    1132A      1.338336  1133A      1.338935  1134A      1.341327  
    1135A      1.342751  1136A      1.347846  1137A      1.351240  
    1138A      1.351907  1139A      1.356995  1140A      1.357898  
    1141A      1.362604  1142A      1.363763  1143A      1.364764  
    1144A      1.367616  1145A      1.368516  1146A      1.371164  
    1147A      1.372987  1148A      1.374404  1149A      1.375821  
    1150A      1.376112  1151A      1.383885  1152A      1.385677  
    1153A      1.385987  1154A      1.386114  1155A      1.387471  
    1156A      1.389945  1157A      1.392102  1158A      1.392965  
    1159A      1.394113  1160A      1.397465  1161A      1.399688  
    1162A      1.399864  1163A      1.401358  1164A      1.402669  
    1165A      1.403705  1166A      1.404852  1167A      1.406567  
    1168A      1.410428  1169A      1.411336  1170A      1.412530  
    1171A      1.413490  1172A      1.425620  1173A      1.427642  
    1174A      1.428591  1175A      1.431748  1176A      1.432143  
    1177A      1.432579  1178A      1.433649  1179A      1.434025  
    1180A      1.436023  1181A      1.438935  1182A      1.439864  
    1183A      1.444814  1184A      1.445099  1185A      1.448754  
    1186A      1.449493  1187A      1.455860  1188A      1.457783  
    1189A      1.458001  1190A      1.458809  1191A      1.461382  
    1192A      1.461684  1193A      1.462946  1194A      1.464461  
    1195A      1.467037  1196A      1.476138  1197A      1.477322  
    1198A      1.477369  1199A      1.480224  1200A      1.480499  
    1201A      1.480598  1202A      1.481123  1203A      1.482437  
    1204A      1.483962  1205A      1.488898  1206A      1.492837  
    1207A      1.493359  1208A      1.493930  1209A      1.496283  
    1210A      1.500203  1211A      1.503081  1212A      1.503795  
    1213A      1.505500  1214A      1.505728  1215A      1.507068  
    1216A      1.509028  1217A      1.513185  1218A      1.514754  
    1219A      1.515308  1220A      1.516969  1221A      1.520633  
    1222A      1.524084  1223A      1.524730  1224A      1.527219  
    1225A      1.530577  1226A      1.531346  1227A      1.532545  
    1228A      1.537016  1229A      1.538978  1230A      1.540533  
    1231A      1.541013  1232A      1.545418  1233A      1.547300  
    1234A      1.548692  1235A      1.550762  1236A      1.556573  
    1237A      1.557297  1238A      1.557359  1239A      1.561253  
    1240A      1.565363  1241A      1.568945  1242A      1.569991  
    1243A      1.572315  1244A      1.572681  1245A      1.575616  
    1246A      1.582887  1247A      1.590957  1248A      1.593145  
    1249A      1.609502  1250A      1.610332  1251A      1.611387  
    1252A      1.612287  1253A      1.614613  1254A      1.622956  
    1255A      1.633418  1256A      1.657021  1257A      1.660730  
    1258A      1.663280  1259A      1.664821  1260A      1.673517  
    1261A      1.678400  1262A      1.680307  1263A      1.681266  
    1264A      1.682252  1265A      1.684658  1266A      1.685129  
    1267A      1.685856  1268A      1.688171  1269A      1.690368  
    1270A      1.691240  1271A      1.691554  1272A      1.693229  
    1273A      1.693569  1274A      1.694834  1275A      1.696103  
    1276A      1.699140  1277A      1.701429  1278A      1.702148  
    1279A      1.702472  1280A      1.703498  1281A      1.704822  
    1282A      1.706008  1283A      1.707437  1284A      1.708660  
    1285A      1.712341  1286A      1.712953  1287A      1.714667  
    1288A      1.715739  1289A      1.717650  1290A      1.718814  
    1291A      1.721985  1292A      1.722708  1293A      1.723728  
    1294A      1.724634  1295A      1.726580  1296A      1.727067  
    1297A      1.728546  1298A      1.729202  1299A      1.731938  
    1300A      1.736810  1301A      1.737462  1302A      1.740097  
    1303A      1.741997  1304A      1.743332  1305A      1.744307  
    1306A      1.745156  1307A      1.745998  1308A      1.750062  
    1309A      1.753674  1310A      1.754622  1311A      1.755549  
    1312A      1.760206  1313A      1.761701  1314A      1.762377  
    1315A      1.765115  1316A      1.765645  1317A      1.767487  
    1318A      1.768704  1319A      1.773855  1320A      1.774265  
    1321A      1.774825  1322A      1.778444  1323A      1.783552  
    1324A      1.785366  1325A      1.786846  1326A      1.787426  
    1327A      1.788344  1328A      1.794527  1329A      1.796669  
    1330A      1.798922  1331A      1.799709  1332A      1.800630  
    1333A      1.801584  1334A      1.808451  1335A      1.811811  
    1336A      1.813376  1337A      1.822883  1338A      1.823620  
    1339A      1.824858  1340A      1.825446  1341A      1.826084  
    1342A      1.838942  1343A      1.839487  1344A      1.851100  
    1345A      1.852362  1346A      1.853187  1347A      1.854912  
    1348A      1.856095  1349A      1.877701  1350A      1.878386  
    1351A      1.882221  1352A      1.891482  1353A      1.896117  
    1354A      1.897053  1355A      1.898761  1356A      1.900556  
    1357A      1.902874  1358A      1.903707  1359A      1.904161  
    1360A      1.905181  1361A      1.905201  1362A      1.907285  
    1363A      1.913099  1364A      1.917139  1365A      1.919708  
    1366A      1.922629  1367A      1.924225  1368A      1.925684  
    1369A      1.926836  1370A      1.933905  1371A      1.935483  
    1372A      1.936580  1373A      1.936924  1374A      1.937945  
    1375A      1.941445  1376A      1.943951  1377A      1.945102  
    1378A      1.945717  1379A      1.945898  1380A      1.947205  
    1381A      1.949226  1382A      1.950725  1383A      1.951990  
    1384A      1.954237  1385A      1.956708  1386A      1.957029  
    1387A      1.959019  1388A      1.963612  1389A      1.963871  
    1390A      1.965761  1391A      1.972737  1392A      1.973517  
    1393A      1.976609  1394A      1.977633  1395A      1.980359  
    1396A      1.981428  1397A      1.988236  1398A      1.988887  
    1399A      1.990398  1400A      1.992650  1401A      1.997347  
    1402A      1.998127  1403A      2.002258  1404A      2.003281  
    1405A      2.004693  1406A      2.006269  1407A      2.007057  
    1408A      2.008907  1409A      2.011189  1410A      2.012997  
    1411A      2.014089  1412A      2.018330  1413A      2.018658  
    1414A      2.019340  1415A      2.020255  1416A      2.021368  
    1417A      2.025425  1418A      2.029182  1419A      2.029923  
    1420A      2.030574  1421A      2.035019  1422A      2.035951  
    1423A      2.037542  1424A      2.040720  1425A      2.042693  
    1426A      2.044965  1427A      2.045545  1428A      2.047351  
    1429A      2.051012  1430A      2.052302  1431A      2.055135  
    1432A      2.056982  1433A      2.059299  1434A      2.059621  
    1435A      2.062327  1436A      2.064877  1437A      2.065995  
    1438A      2.067622  1439A      2.068340  1440A      2.074346  
    1441A      2.076130  1442A      2.080723  1443A      2.082349  
    1444A      2.083775  1445A      2.087742  1446A      2.090432  
    1447A      2.091100  1448A      2.092302  1449A      2.094311  
    1450A      2.095623  1451A      2.096350  1452A      2.096483  
    1453A      2.097509  1454A      2.098987  1455A      2.103770  
    1456A      2.104141  1457A      2.105839  1458A      2.108459  
    1459A      2.109317  1460A      2.109527  1461A      2.111239  
    1462A      2.115179  1463A      2.117169  1464A      2.119482  
    1465A      2.121921  1466A      2.124552  1467A      2.128067  
    1468A      2.129164  1469A      2.131362  1470A      2.132881  
    1471A      2.133335  1472A      2.135806  1473A      2.138933  
    1474A      2.141655  1475A      2.142761  1476A      2.144636  
    1477A      2.147168  1478A      2.150234  1479A      2.151139  
    1480A      2.152980  1481A      2.154505  1482A      2.154859  
    1483A      2.157363  1484A      2.157706  1485A      2.158115  
    1486A      2.158442  1487A      2.158828  1488A      2.160738  
    1489A      2.160998  1490A      2.161678  1491A      2.162438  
    1492A      2.164707  1493A      2.165345  1494A      2.165675  
    1495A      2.167902  1496A      2.171172  1497A      2.172826  
    1498A      2.174268  1499A      2.175480  1500A      2.176090  
    1501A      2.179074  1502A      2.180646  1503A      2.181691  
    1504A      2.184238  1505A      2.185215  1506A      2.187056  
    1507A      2.188036  1508A      2.188162  1509A      2.188974  
    1510A      2.189641  1511A      2.192617  1512A      2.194764  
    1513A      2.195458  1514A      2.197158  1515A      2.197242  
    1516A      2.198577  1517A      2.200231  1518A      2.200908  
    1519A      2.202171  1520A      2.205030  1521A      2.206499  
    1522A      2.208729  1523A      2.210881  1524A      2.212278  
    1525A      2.213873  1526A      2.215011  1527A      2.218806  
    1528A      2.219462  1529A      2.222844  1530A      2.225780  
    1531A      2.228792  1532A      2.231811  1533A      2.232996  
    1534A      2.234208  1535A      2.234671  1536A      2.235835  
    1537A      2.237374  1538A      2.238931  1539A      2.241584  
    1540A      2.243421  1541A      2.244312  1542A      2.245930  
    1543A      2.248530  1544A      2.251092  1545A      2.252818  
    1546A      2.254833  1547A      2.255670  1548A      2.255792  
    1549A      2.262955  1550A      2.266512  1551A      2.266720  
    1552A      2.268533  1553A      2.270754  1554A      2.271914  
    1555A      2.273588  1556A      2.274092  1557A      2.274439  
    1558A      2.276748  1559A      2.277153  1560A      2.278406  
    1561A      2.281926  1562A      2.283630  1563A      2.285813  
    1564A      2.288881  1565A      2.291550  1566A      2.293117  
    1567A      2.295373  1568A      2.296397  1569A      2.298374  
    1570A      2.299596  1571A      2.300554  1572A      2.301387  
    1573A      2.302239  1574A      2.303838  1575A      2.304327  
    1576A      2.307896  1577A      2.310091  1578A      2.315439  
    1579A      2.318060  1580A      2.318789  1581A      2.319529  
    1582A      2.323985  1583A      2.329623  1584A      2.330273  
    1585A      2.336584  1586A      2.340914  1587A      2.342616  
    1588A      2.343555  1589A      2.348756  1590A      2.352618  
    1591A      2.355037  1592A      2.356737  1593A      2.357201  
    1594A      2.358530  1595A      2.361941  1596A      2.363455  
    1597A      2.366531  1598A      2.369097  1599A      2.373223  
    1600A      2.375815  1601A      2.381356  1602A      2.381523  
    1603A      2.390911  1604A      2.392780  1605A      2.396656  
    1606A      2.398050  1607A      2.400768  1608A      2.401411  
    1609A      2.402132  1610A      2.403829  1611A      2.407468  
    1612A      2.409329  1613A      2.411947  1614A      2.413483  
    1615A      2.414309  1616A      2.415862  1617A      2.416996  
    1618A      2.418159  1619A      2.419577  1620A      2.422356  
    1621A      2.427298  1622A      2.430487  1623A      2.434052  
    1624A      2.449800  1625A      2.454470  1626A      2.458499  
    1627A      2.459842  1628A      2.462581  1629A      2.465910  
    1630A      2.470150  1631A      2.476438  1632A      2.481024  
    1633A      2.488975  1634A      2.491485  1635A      2.498118  
    1636A      2.500555  1637A      2.503946  1638A      2.516843  
    1639A      2.519763  1640A      2.523468  1641A      2.526595  
    1642A      2.533565  1643A      2.535591  1644A      2.539181  
    1645A      2.539780  1646A      2.540233  1647A      2.543594  
    1648A      2.545422  1649A      2.556870  1650A      2.560960  
    1651A      2.562260  1652A      2.572558  1653A      2.577201  
    1654A      2.578826  1655A      2.580833  1656A      2.587513  
    1657A      2.596690  1658A      2.609858  1659A      2.612944  
    1660A      2.613309  1661A      2.614645  1662A      2.615868  
    1663A      2.618838  1664A      2.620960  1665A      2.622928  
    1666A      2.627494  1667A      2.629042  1668A      2.632932  
    1669A      2.633312  1670A      2.635166  1671A      2.637490  
    1672A      2.640650  1673A      2.643873  1674A      2.651365  
    1675A      2.652349  1676A      2.654321  1677A      2.655608  
    1678A      2.656298  1679A      2.657188  1680A      2.659163  
    1681A      2.661256  1682A      2.665179  1683A      2.672163  
    1684A      2.673591  1685A      2.682618  1686A      2.684958  
    1687A      2.685409  1688A      2.686585  1689A      2.687985  
    1690A      2.692731  1691A      2.698370  1692A      2.707522  
    1693A      2.714719  1694A      2.718852  1695A      2.719281  
    1696A      2.721061  1697A      2.722313  1698A      2.725159  
    1699A      2.726074  1700A      2.727104  1701A      2.729103  
    1702A      2.730941  1703A      2.740272  1704A      2.740821  
    1705A      2.741198  1706A      2.743959  1707A      2.747448  
    1708A      2.749233  1709A      2.749413  1710A      2.760869  
    1711A      2.761154  1712A      2.762481  1713A      2.764257  
    1714A      2.765027  1715A      2.766480  1716A      2.767809  
    1717A      2.769817  1718A      2.771026  1719A      2.779026  
    1720A      2.789460  1721A      2.792477  1722A      2.797345  
    1723A      2.801089  1724A      2.801225  1725A      2.805358  
    1726A      2.807661  1727A      2.814912  1728A      2.843094  
    1729A      2.843998  1730A      2.855664  1731A      2.856276  
    1732A      2.860489  1733A      2.863423  1734A      2.870521  
    1735A      2.876372  1736A      2.876851  1737A      2.877606  
    1738A      2.878309  1739A      2.885918  1740A      2.890165  
    1741A      2.893122  1742A      2.893583  1743A      2.897434  
    1744A      2.897790  1745A      2.905024  1746A      2.908337  
    1747A      2.915412  1748A      2.917066  1749A      2.919406  
    1750A      2.922883  1751A      2.929993  1752A      2.940522  
    1753A      2.941548  1754A      2.943597  1755A      2.945959  
    1756A      2.948079  1757A      2.949810  1758A      2.974511  
    1759A      2.975373  1760A      2.980422  1761A      2.987115  
    1762A      2.987487  1763A      2.997396  1764A      3.000106  
    1765A      3.003463  1766A      3.005753  1767A      3.023362  
    1768A      3.035334  1769A      3.035986  1770A      3.037306  
    1771A      3.047074  1772A      3.062957  1773A      3.070773  
    1774A      3.100130  1775A      3.109271  1776A      3.110893  
    1777A      3.114759  1778A      3.120326  1779A      3.122719  
    1780A      3.130195  1781A      3.132219  1782A      3.132865  
    1783A      3.134795  1784A      3.145744  1785A      3.153524  
    1786A      3.180957  1787A      3.181995  1788A      3.186025  
    1789A      3.197008  1790A      3.201682  1791A      3.202236  
    1792A      3.211341  1793A      3.213013  1794A      3.214059  
    1795A      3.216946  1796A      3.218189  1797A      3.220966  
    1798A      3.224198  1799A      3.225673  1800A      3.230917  
    1801A      3.238149  1802A      3.241809  1803A      3.246215  
    1804A      3.250105  1805A      3.251801  1806A      3.263251  
    1807A      3.268590  1808A      3.290129  1809A      3.332392  
    1810A      3.334064  1811A      3.334427  1812A      3.335439  
    1813A      3.336053  1814A      3.338672  1815A      3.346978  
    1816A      3.347996  1817A      3.348654  1818A      3.355375  
    1819A      3.372692  1820A      3.373119  1821A      3.382562  
    1822A      3.385574  1823A      3.438469  1824A      3.439057  
    1825A      3.458149  1826A      3.470125  1827A      3.480752  
    1828A      3.500332  1829A      3.530902  1830A      3.534522  
    1831A      3.540002  1832A      3.544168  1833A      3.546328  
    1834A      3.552466  1835A      3.556490  1836A      3.561266  
    1837A      3.570432  1838A      3.572357  1839A      3.583781  
    1840A      3.592026  1841A      3.616264  1842A      3.623404  
    1843A      3.644594  1844A      3.654866  1845A      3.663580  
    1846A      3.666855  1847A      3.669662  1848A      3.728720  
    1849A      3.733314  1850A      3.745027  1851A      3.759292  
    1852A      3.777019  1853A      3.799727  1854A      3.832657  
    1855A      3.834372  1856A      3.850478  1857A      3.852204  
    1858A      3.866651  1859A      3.919076  1860A      3.921954  
    1861A      3.948255  1862A      3.954719  1863A      3.994214  
    1864A      3.996939  1865A      4.011594  1866A      4.021761  
    1867A      4.022565  1868A      4.043976  1869A      4.045207  
    1870A      4.055127  1871A      4.074189  1872A      4.101621  
    1873A      4.105699  1874A      4.115980  1875A      4.127528  
    1876A      4.149490  1877A      4.161716  1878A      4.173184  
    1879A      4.179658  1880A      4.189925  1881A      4.247192  
    1882A      4.248516  1883A      4.259220  1884A      4.294485  
    1885A      4.349188  1886A      4.358434  1887A      4.381014  
    1888A      4.419235  1889A      4.462453  1890A      4.506753  
    1891A      4.551579  1892A      4.633718  1893A      4.647122  
    1894A      4.690053  1895A      4.695651  1896A      4.725630  
    1897A      4.756767  1898A      4.874473  

    Final Occupation by Irrep:
              A 
    DOCC [   321 ]
    NA   [   321 ]
    NB   [   321 ]

  @DF-RHF Final Energy: -4072.92675433163413

   => Energetics <=

    Nuclear Repulsion Energy =          17946.5263816183760355
    One-Electron Energy =              -41382.7820274112018524
    Two-Electron Energy =               19363.3288914611912332
    Total Energy =                      -4072.9267543316345837

Computation Completed


Properties will be evaluated at   0.000000,   0.000000,   0.000000 [a0]

Properties computed using the SCF density matrix


 Multipole Moments:

 ------------------------------------------------------------------------------------
     Multipole            Electronic (a.u.)      Nuclear  (a.u.)        Total (a.u.)
 ------------------------------------------------------------------------------------

 L = 1.  Multiply by 2.5417464519 to convert [e a0] to [Debye]
 Dipole X            :          0.0017891           -0.0001188            0.0016703
 Dipole Y            :         -0.0001055           -0.0002727           -0.0003782
 Dipole Z            :         13.0987621          -15.4733560           -2.3745939
 Magnitude           :                                                    2.3745945

 ------------------------------------------------------------------------------------

*** tstop() called on n2cn1193 at Wed Jan 24 22:32:42 2024
Module time:
	user time   =   26835.09 seconds =     447.25 minutes
	system time =    1361.50 seconds =      22.69 minutes
	total time  =      10321 seconds =     172.02 minutes
Total time:
	user time   =   26835.09 seconds =     447.25 minutes
	system time =    1361.50 seconds =      22.69 minutes
	total time  =      10321 seconds =     172.02 minutes

  //>>>>>>>>>>>>>>>>>>>>>>>>>>>>>>>>>>>//
  //            Monomer A HF           //
  //<<<<<<<<<<<<<<<<<<<<<<<<<<<<<<<<<<<//

   => Libint2 <=

    Primary   basis highest AM E, G, H:  5, 4, 3
    Auxiliary basis highest AM E, G, H:  6, 5, 4
    Onebody   basis highest AM E, G, H:  6, 5, 4
    Solid Harmonics ordering:            gaussian

*** tstart() called on n2cn1193
*** at Wed Jan 24 22:32:42 2024

   => Loading Basis Set <=

    Name: JUN-CC-PVDZ
    Role: ORBITAL
    Keyword: BASIS
    atoms 1                                                   entry B          line   130 file /opt/software/pc2/EB-SW/software/PSI4/1.9-foss-2022a/share/psi4/basis/jun-cc-pvdz.gbs 
    atoms 2-5                                                 entry F          line   266 file /opt/software/pc2/EB-SW/software/PSI4/1.9-foss-2022a/share/psi4/basis/jun-cc-pvdz.gbs 
    atoms 6-23, 30-42, 45-59, 62-78, 81-93, 98-108, 111-119   entry C          line   164 file /opt/software/pc2/EB-SW/software/PSI4/1.9-foss-2022a/share/psi4/basis/jun-cc-pvdz.gbs 
    atoms 24-29, 43-44, 60-61, 79-80, 94-97, 109-110, 120-125 entry H          line    36 file /opt/software/pc2/EB-SW/software/PSI4/1.9-foss-2022a/share/psi4/basis/jun-cc-pvdz.gbs 


         ---------------------------------------------------------
                                   SCF
               by Justin Turney, Rob Parrish, Andy Simmonett
                          and Daniel G. A. Smith
                              RHF Reference
                       16 Threads,  44822 MiB Core
         ---------------------------------------------------------

  ==> Geometry <==

    Molecular point group: c1
    Full point group: C1

    Geometry (in Angstrom), charge = -1, multiplicity = 1:

       Center              X                  Y                   Z               Mass       
    ------------   -----------------  -----------------  -----------------  -----------------
         B           -0.000050191042     0.000351518223     2.420914545552    11.009305360000
         F           -1.153601191042     0.000062518223     3.236561545552    18.998403162730
         F            1.153656808958    -0.000566481777     3.236561545552    18.998403162730
         F           -0.000023191042    -1.153622481777     1.605280545552    18.998403162730
         F           -0.000023191042     1.153992518223     1.605280545552    18.998403162730
      Gh(C)          -3.668445455062     7.803766688305    -0.177179413112    12.000000000000
      Gh(C)          -4.847602910388     7.131256349563    -0.179545988045    12.000000000000
      Gh(C)          -4.894963490217     5.696344921754    -0.180118899143    12.000000000000
      Gh(C)          -3.653744869815     4.980744859182    -0.172458457413    12.000000000000
      Gh(C)          -2.409429312536     7.113995554897    -0.176985070852    12.000000000000
      Gh(C)          -2.425481535146     5.681136469126    -0.183989959722    12.000000000000
      Gh(C)          -1.194748207477     7.786158712532    -0.175512890310    12.000000000000
      Gh(C)           0.037954837895     7.099436163980    -0.177683594615    12.000000000000
      Gh(C)           0.030328396378     5.669504077927    -0.183166979531    12.000000000000
      Gh(C)          -1.200988698947     4.969284866138    -0.174197245597    12.000000000000
      Gh(C)           1.277953634773     7.772873961417    -0.176307746054    12.000000000000
      Gh(C)           2.485353893683     7.087711403460    -0.178582233959    12.000000000000
      Gh(C)           2.486124493876     5.654785328463    -0.185519982947    12.000000000000
      Gh(C)           1.254078728602     4.956092631887    -0.173892041359    12.000000000000
      Gh(C)           3.751710400364     7.763926669203    -0.178455382579    12.000000000000
      Gh(C)           4.923561865144     7.078795295213    -0.180511863287    12.000000000000
      Gh(C)           4.955603080284     5.643461981592    -0.180672276094    12.000000000000
      Gh(C)           3.706797343163     4.941224726556    -0.175580715924    12.000000000000
      Gh(H)          -3.658525328800     8.890841937358    -0.175494424862     1.007825032230
      Gh(H)          -1.189217520798     8.874135605583    -0.171541013869     1.007825032230
      Gh(H)           1.284290047845     8.860847953711    -0.172148921913     1.007825032230
      Gh(H)           3.753537895758     8.851049797195    -0.176932858263     1.007825032230
      Gh(H)           5.869954512165     7.613809352878    -0.181437230329     1.007825032230
      Gh(H)          -5.788235898544     7.676316731157    -0.181105835401     1.007825032230
[...]
    1525A      2.171839  1526A      2.174660  1527A      2.177140  
    1528A      2.178987  1529A      2.180624  1530A      2.181179  
    1531A      2.182992  1532A      2.184226  1533A      2.187603  
    1534A      2.190587  1535A      2.194359  1536A      2.195970  
    1537A      2.196894  1538A      2.198783  1539A      2.201454  
    1540A      2.203188  1541A      2.204309  1542A      2.204907  
    1543A      2.207068  1544A      2.209101  1545A      2.210576  
    1546A      2.212491  1547A      2.217054  1548A      2.218616  
    1549A      2.219210  1550A      2.221042  1551A      2.223410  
    1552A      2.227565  1553A      2.228386  1554A      2.230517  
    1555A      2.231431  1556A      2.232098  1557A      2.232396  
    1558A      2.232970  1559A      2.233694  1560A      2.236164  
    1561A      2.238390  1562A      2.241117  1563A      2.248732  
    1564A      2.249291  1565A      2.252808  1566A      2.255115  
    1567A      2.260475  1568A      2.265685  1569A      2.267790  
    1570A      2.270658  1571A      2.271601  1572A      2.273636  
    1573A      2.277581  1574A      2.281059  1575A      2.282611  
    1576A      2.283902  1577A      2.284902  1578A      2.293963  
    1579A      2.294870  1580A      2.296593  1581A      2.297542  
    1582A      2.300405  1583A      2.306077  1584A      2.310279  
    1585A      2.311891  1586A      2.324509  1587A      2.325784  
    1588A      2.328072  1589A      2.329441  1590A      2.329827  
    1591A      2.330754  1592A      2.331072  1593A      2.334064  
    1594A      2.336099  1595A      2.338570  1596A      2.339739  
    1597A      2.341845  1598A      2.342327  1599A      2.343633  
    1600A      2.345179  1601A      2.346167  1602A      2.346764  
    1603A      2.347232  1604A      2.353563  1605A      2.355068  
    1606A      2.357011  1607A      2.368854  1608A      2.383680  
    1609A      2.385354  1610A      2.388349  1611A      2.390209  
    1612A      2.394221  1613A      2.400118  1614A      2.409329  
    1615A      2.415221  1616A      2.418843  1617A      2.423117  
    1618A      2.427372  1619A      2.428645  1620A      2.432751  
    1621A      2.445020  1622A      2.445602  1623A      2.453580  
    1624A      2.461560  1625A      2.464779  1626A      2.466472  
    1627A      2.468955  1628A      2.470388  1629A      2.472131  
    1630A      2.472989  1631A      2.480072  1632A      2.492271  
    1633A      2.492974  1634A      2.503814  1635A      2.506672  
    1636A      2.508607  1637A      2.512898  1638A      2.517454  
    1639A      2.520965  1640A      2.540760  1641A      2.541552  
    1642A      2.542105  1643A      2.544261  1644A      2.545936  
    1645A      2.549316  1646A      2.550337  1647A      2.553392  
    1648A      2.556311  1649A      2.556785  1650A      2.558824  
    1651A      2.564366  1652A      2.566505  1653A      2.571743  
    1654A      2.572412  1655A      2.584482  1656A      2.585509  
    1657A      2.585831  1658A      2.585959  1659A      2.588134  
    1660A      2.589640  1661A      2.591934  1662A      2.593324  
    1663A      2.594665  1664A      2.602516  1665A      2.603023  
    1666A      2.613855  1667A      2.614447  1668A      2.615326  
    1669A      2.616239  1670A      2.616617  1671A      2.622585  
    1672A      2.635620  1673A      2.642896  1674A      2.643852  
    1675A      2.647575  1676A      2.649099  1677A      2.649948  
    1678A      2.651064  1679A      2.651470  1680A      2.654115  
    1681A      2.656715  1682A      2.658666  1683A      2.665876  
    1684A      2.667501  1685A      2.671092  1686A      2.671794  
    1687A      2.672916  1688A      2.674249  1689A      2.681014  
    1690A      2.682071  1691A      2.687306  1692A      2.687713  
    1693A      2.691761  1694A      2.691888  1695A      2.693709  
    1696A      2.694811  1697A      2.695598  1698A      2.698776  
    1699A      2.702872  1700A      2.710476  1701A      2.714691  
    1702A      2.727382  1703A      2.729965  1704A      2.731377  
    1705A      2.732089  1706A      2.732936  1707A      2.738935  
    1708A      2.758089  1709A      2.772441  1710A      2.781261  
    1711A      2.782151  1712A      2.783905  1713A      2.789436  
    1714A      2.794229  1715A      2.800005  1716A      2.801385  
    1717A      2.802457  1718A      2.802917  1719A      2.814118  
    1720A      2.815156  1721A      2.815756  1722A      2.816724  
    1723A      2.819831  1724A      2.820557  1725A      2.827166  
    1726A      2.829686  1727A      2.841416  1728A      2.843023  
    1729A      2.845600  1730A      2.848326  1731A      2.849160  
    1732A      2.856178  1733A      2.865722  1734A      2.866702  
    1735A      2.870994  1736A      2.874055  1737A      2.877025  
    1738A      2.896101  1739A      2.896638  1740A      2.898016  
    1741A      2.915987  1742A      2.918182  1743A      2.918565  
    1744A      2.928644  1745A      2.932235  1746A      2.934719  
    1747A      2.936235  1748A      2.960172  1749A      2.965445  
    1750A      2.967160  1751A      2.968492  1752A      2.976499  
    1753A      2.992481  1754A      2.997543  1755A      3.027516  
    1756A      3.029767  1757A      3.040641  1758A      3.043205  
    1759A      3.046780  1760A      3.047854  1761A      3.057497  
    1762A      3.058138  1763A      3.058987  1764A      3.068659  
    1765A      3.073920  1766A      3.087963  1767A      3.110398  
    1768A      3.111334  1769A      3.116665  1770A      3.124799  
    1771A      3.129707  1772A      3.130999  1773A      3.134370  
    1774A      3.139454  1775A      3.143661  1776A      3.143934  
    1777A      3.149778  1778A      3.152060  1779A      3.152460  
    1780A      3.155334  1781A      3.162248  1782A      3.167399  
    1783A      3.169791  1784A      3.173287  1785A      3.174583  
    1786A      3.178609  1787A      3.193663  1788A      3.202317  
    1789A      3.207708  1790A      3.225236  1791A      3.262096  
    1792A      3.262930  1793A      3.264623  1794A      3.265837  
    1795A      3.267056  1796A      3.267999  1797A      3.275596  
    1798A      3.276814  1799A      3.278566  1800A      3.285686  
    1801A      3.298727  1802A      3.309479  1803A      3.313101  
    1804A      3.332012  1805A      3.363330  1806A      3.364558  
    1807A      3.400974  1808A      3.421186  1809A      3.455384  
    1810A      3.458154  1811A      3.461545  1812A      3.467293  
    1813A      3.470839  1814A      3.474945  1815A      3.479001  
    1816A      3.479642  1817A      3.486226  1818A      3.490119  
    1819A      3.511148  1820A      3.515936  1821A      3.534365  
    1822A      3.555512  1823A      3.575442  1824A      3.582205  
    1825A      3.587714  1826A      3.592031  1827A      3.648897  
    1828A      3.660319  1829A      3.670854  1830A      3.678383  
    1831A      3.700671  1832A      3.726290  1833A      3.761206  
    1834A      3.763237  1835A      3.773913  1836A      3.779022  
    1837A      3.787109  1838A      3.848007  1839A      3.849583  
    1840A      3.874588  1841A      3.878890  1842A      3.921835  
    1843A      3.925027  1844A      3.947208  1845A      3.949908  
    1846A      3.956443  1847A      3.970580  1848A      3.972404  
    1849A      3.989470  1850A      4.023873  1851A      4.027765  
    1852A      4.047018  1853A      4.086520  1854A      4.225744  
    1855A      4.362533  1856A      4.402765  1857A      4.433437  
    1858A      4.460633  1859A      4.620199  1860A      4.804164  
    1861A      4.823802  1862A      5.765484  1863A      5.776062  
    1864A      5.786635  1865A      5.813871  1866A      5.815785  
    1867A      5.821905  1868A      5.868592  1869A      5.898035  
    1870A      5.909185  1871A      5.945654  1872A      5.976839  
    1873A      6.059611  1874A      6.088405  1875A      6.179739  
    1876A      6.236724  1877A      6.345309  1878A      6.351809  
    1879A      6.410749  1880A      6.417870  1881A      6.425462  
    1882A      7.355152  1883A      7.381627  1884A      7.426485  
    1885A      7.447346  1886A      7.634821  1887A      7.650625  
    1888A      7.704239  1889A      7.749438  1890A      7.760736  
    1891A      7.862529  1892A      8.105997  1893A      8.154749  
    1894A     13.019911  1895A     42.950700  1896A     42.978467  
    1897A     43.006316  1898A     43.010189  

    Final Occupation by Irrep:
              A 
    DOCC [   300 ]
    NA   [   300 ]
    NB   [   300 ]

  @DF-RHF Final Energy: -3650.34072162708480

   => Energetics <=

    Nuclear Repulsion Energy =          15611.4211649754324753
    One-Electron Energy =              -36072.1633493881599861
    Two-Electron Energy =               16810.4014627856413426
    Total Energy =                      -3650.3407216270861682

Computation Completed


Properties will be evaluated at   0.000000,   0.000000,   0.000000 [a0]

Properties computed using the SCF density matrix


 Multipole Moments:

 ------------------------------------------------------------------------------------
     Multipole            Electronic (a.u.)      Nuclear  (a.u.)        Total (a.u.)
 ------------------------------------------------------------------------------------

 L = 1.  Multiply by 2.5417464519 to convert [e a0] to [Debye]
 Dipole X            :          0.0002379            0.0001983            0.0004362
 Dipole Y            :          0.0011807           -0.0013163           -0.0001356
 Dipole Z            :        203.0451244         -203.0432823            0.0018422
 Magnitude           :                                                    0.0018980

 ------------------------------------------------------------------------------------

*** tstop() called on n2cn1193 at Thu Jan 25 00:37:07 2024
Module time:
	user time   =   18245.61 seconds =     304.09 minutes
	system time =     888.71 seconds =      14.81 minutes
	total time  =       5580 seconds =      93.00 minutes
Total time:
	user time   =   49907.59 seconds =     831.79 minutes
	system time =    2494.33 seconds =      41.57 minutes
	total time  =      17786 seconds =     296.43 minutes
  Constructing Basis Sets for SAPT...

   => Loading Basis Set <=

    Name: (JUN-CC-PVDZ AUX)
    Role: RIFIT
    Keyword: DF_BASIS_SAPT
    atoms 1                                                   entry B          line    56 file /opt/software/pc2/EB-SW/software/PSI4/1.9-foss-2022a/share/psi4/basis/jun-cc-pvdz-ri.gbs 
    atoms 2-5                                                 entry F          line   232 file /opt/software/pc2/EB-SW/software/PSI4/1.9-foss-2022a/share/psi4/basis/jun-cc-pvdz-ri.gbs 
    atoms 6-23, 30-42, 45-59, 62-78, 81-93, 98-108, 111-119   entry C          line   100 file /opt/software/pc2/EB-SW/software/PSI4/1.9-foss-2022a/share/psi4/basis/jun-cc-pvdz-ri.gbs 
    atoms 24-29, 43-44, 60-61, 79-80, 94-97, 109-110, 120-125 entry H          line    30 file /opt/software/pc2/EB-SW/software/PSI4/1.9-foss-2022a/share/psi4/basis/jun-cc-pvdz-ri.gbs 

   => Loading Basis Set <=

    Name: (JUN-CC-PVDZ AUX)
    Role: JKFIT
    Keyword: DF_BASIS_ELST
    atoms 1                                                   entry B          line    90 file /opt/software/pc2/EB-SW/software/PSI4/1.9-foss-2022a/share/psi4/basis/jun-cc-pvdz-jkfit.gbs 
    atoms 2-5                                                 entry F          line   314 file /opt/software/pc2/EB-SW/software/PSI4/1.9-foss-2022a/share/psi4/basis/jun-cc-pvdz-jkfit.gbs 
    atoms 6-23, 30-42, 45-59, 62-78, 81-93, 98-108, 111-119   entry C          line   146 file /opt/software/pc2/EB-SW/software/PSI4/1.9-foss-2022a/share/psi4/basis/jun-cc-pvdz-jkfit.gbs 
    atoms 24-29, 43-44, 60-61, 79-80, 94-97, 109-110, 120-125 entry H          line    70 file /opt/software/pc2/EB-SW/software/PSI4/1.9-foss-2022a/share/psi4/basis/jun-cc-pvdz-jkfit.gbs 


  //>>>>>>>>>>>>>>>>>>>>>>>>>>>>>>>>>>>//
  //               SSAPT0              //
  //<<<<<<<<<<<<<<<<<<<<<<<<<<<<<<<<<<<//


*** tstart() called on n2cn1193
*** at Thu Jan 25 00:37:08 2024

        SAPT0  
    Ed Hohenstein
     6 June 2009

      Orbital Information
  --------------------------
    NSO        =      1938
    NMO        =      1898
    NRI        =      6901
    NRI (Elst) =      8531
    NOCC A     =        21
    NOCC B     =       300
    FOCC A     =         5
    FOCC B     =        96
    NVIR A     =      1877
    NVIR B     =      1598

    Elst10,r            =    -0.192599175752 [Eh]
    Exch10              =     0.461089119782 [Eh]
    Exch10 (S^2)        =     0.432761018269 [Eh]

    Iter     Energy [mEh]          dE [mEh]         Residual      Time [s]
       1     -78.28323775      78.283237750      68.866263997           431
       2     -94.27635997      15.993122223      31.547925588           830
       3    -100.29137602       6.015016046       5.328569814          1308
       4    -100.04239861      -0.248977413       1.625776585          1708
       5     -99.92688000      -0.115518605       0.363056218          2240
       6     -99.92724090       0.000360898       0.108047001          2637
       7     -99.93464739       0.007406492       0.019890898          3088
       8     -99.93395334      -0.000694049       0.004659665          3527
       9     -99.93390452      -0.000048821       0.000698719          3917
      10     -99.93393132       0.000026802       0.000126203          4322
      11     -99.93392763      -0.000003689       0.000025966          4707
      12     -99.93392787       0.000000236       0.000005218          5156
      13     -99.93392794       0.000000072       0.000001911          5595
      14     -99.93392795       0.000000004       0.000000379          5950

    CHF Iterations converged


    Iter     Energy [mEh]          dE [mEh]         Residual      Time [s]
       1    -196.81618144     196.816181442     140.475693495           399
       2    -188.33353524      -8.482646200      39.075733179           793
       3    -209.28597176      20.952436516      13.113927466          1187
       4    -211.10554185       1.819570088       4.671179403          1547
       5    -210.20181056      -0.903731289       2.185348204          1902
       6    -210.02684978      -0.174960778       1.196848011          2246
       7    -210.17049681       0.143647025       0.604449664          2561
       8    -210.22877212       0.058275319       0.293085588          2895
       9    -210.20494503      -0.023827097       0.166564528          3239
      10    -210.19164669      -0.013298339       0.080931779          3611
      11    -210.19776671       0.006120023       0.039637540          3934
      12    -210.20047961       0.002712900       0.018761772          4259
      13    -210.19961164      -0.000867976       0.010002905          4552
      14    -210.19883871      -0.000772930       0.007131871          4918
      15    -210.19913295       0.000294248       0.005195420          5217
      16    -210.19942947       0.000296518       0.003029612          5534
      17    -210.19926970      -0.000159774       0.001198807          5838
      18    -210.19924802      -0.000021674       0.000566756          6098
      19    -210.19926483       0.000016804       0.000217327          6374
      20    -210.19927112       0.000006293       0.000107836          6722
      21    -210.19927045      -0.000000673       0.000054199          7044
      22    -210.19926858      -0.000001864       0.000028544          7390
      23    -210.19926844      -0.000000139       0.000012292          7699
      24    -210.19926889       0.000000446       0.000005223          8005
      25    -210.19926895       0.000000063       0.000002336          8315
      26    -210.19926887      -0.000000087       0.000001030          8618
      27    -210.19926886      -0.000000006       0.000000514          8914

    CHF Iterations converged

    Ind20,r (A<-B)      =    -0.099933927946 [Eh]
    Ind20,r (B<-A)      =    -0.210199268860 [Eh]
    Ind20,r             =    -0.310133196806 [Eh]
    Exch-Ind20,r (A<-B) =     0.075586096787 [Eh]
    Exch-Ind20,r (B<-A) =     0.160242762812 [Eh]
    Exch-Ind20,r        =     0.235828859599 [Eh]
    Disp20              =    -0.085843992556 [Eh]
    Disp20 (SS)         =    -0.042921996278 [Eh]
    Disp20 (OS)         =    -0.042921996278 [Eh]
    Exch-Disp20         =     0.029861486420 [Eh]
    Exch-Disp20 (SS)    =     0.014730017281 [Eh]
    Exch-Disp20 (OS)    =     0.015131469139 [Eh]

    SAPT Results 
  --------------------------------------------------------------------------------------------------------
    Electrostatics               -192.59917575 [mEh]    -120.85780743 [kcal/mol]    -505.66906627 [kJ/mol]
      Elst10,r                   -192.59917575 [mEh]    -120.85780743 [kcal/mol]    -505.66906627 [kJ/mol]

    Exchange                      461.08911978 [mEh]     289.33779092 [kcal/mol]    1210.58931720 [kJ/mol]
      Exch10                      461.08911978 [mEh]     289.33779092 [kcal/mol]    1210.58931720 [kJ/mol]
      Exch10(S^2)                 432.76101827 [mEh]     271.56163885 [kcal/mol]    1136.21389693 [kJ/mol]

    Induction                     -77.30007062 [mEh]     -48.50652664 [kcal/mol]    -202.95130746 [kJ/mol]
      Ind20,r                    -310.13319681 [mEh]    -194.61151913 [kcal/mol]    -814.25459603 [kJ/mol]
      Exch-Ind20,r                235.82885960 [mEh]     147.98484359 [kcal/mol]     619.16858557 [kJ/mol]
      delta HF,r (2)               -2.99573342 [mEh]      -1.87985110 [kcal/mol]      -7.86529700 [kJ/mol]

    Dispersion                    -55.98250614 [mEh]     -35.12955297 [kcal/mol]    -146.98204961 [kJ/mol]
      Disp20                      -85.84399256 [mEh]     -53.86791860 [kcal/mol]    -225.38337140 [kJ/mol]
      Exch-Disp20                  29.86148642 [mEh]      18.73836563 [kcal/mol]      78.40132180 [kJ/mol]
      Disp20 (SS)                 -42.92199628 [mEh]     -26.93395930 [kcal/mol]    -112.69168570 [kJ/mol]
      Disp20 (OS)                 -42.92199628 [mEh]     -26.93395930 [kcal/mol]    -112.69168570 [kJ/mol]
      Exch-Disp20 (SS)             14.73001728 [mEh]       9.24322539 [kcal/mol]      38.67365504 [kJ/mol]
      Exch-Disp20 (OS)             15.13146914 [mEh]       9.49514024 [kcal/mol]      39.72766675 [kJ/mol]

  Total HF                        191.18987341 [mEh]     119.97345685 [kcal/mol]     501.96894348 [kJ/mol]
  Total SAPT0                     135.20736727 [mEh]      84.84390389 [kcal/mol]     354.98689387 [kJ/mol]

  Special recipe for scaled SAPT0 (see Manual):
    Electrostatics sSAPT0        -192.59917575 [mEh]    -120.85780743 [kcal/mol]    -505.66906627 [kJ/mol]
    Exchange sSAPT0               461.08911978 [mEh]     289.33779092 [kcal/mol]    1210.58931720 [kJ/mol]
    Induction sSAPT0              -27.89106854 [mEh]     -17.50190974 [kcal/mol]     -73.22799037 [kJ/mol]
    Dispersion sSAPT0             -49.72616309 [mEh]     -31.20363844 [kcal/mol]    -130.55602322 [kJ/mol]
  Total sSAPT0                    190.87271239 [mEh]     119.77443531 [kcal/mol]     501.13623735 [kJ/mol]
  --------------------------------------------------------------------------------------------------------

*** tstop() called on n2cn1193 at Thu Jan 25 13:05:10 2024
Module time:
	user time   =   69459.45 seconds =    1157.66 minutes
	system time =    3554.94 seconds =      59.25 minutes
	total time  =      44882 seconds =     748.03 minutes
Total time:
	user time   =  119368.47 seconds =    1989.47 minutes
	system time =    6049.28 seconds =     100.82 minutes
	total time  =      62669 seconds =    1044.48 minutes

    Psi4 stopped on: Thursday, 25 January 2024 01:05PM
    Psi4 wall time for execution: 17:24:30.51

*** Psi4 exiting successfully. Buy a developer a beer!
