LAMMPS data file via write_data, version 2 Aug 2023, timestep = 3010000, units = real

6893 atoms
17 atom types
7872 bonds
15 bond types
11373 angles
12 angle types
18657 dihedrals
17 dihedral types
2240 impropers
1 improper types

0 34.08 xlo xhi
0 34.433 ylo yhi
0 200 zlo zhi

Masses

1 12.011
2 12.011
3 10.411
4 18.598
5 13.607
6 11.611
7 11.611
8 11.611
9 1.008
10 1.008
11 1.008
12 0.4
13 0.4
14 0.4
15 0.4
16 0.4
17 0.4

Bond Coeffs # harmonic

1 350 1.42
2 386.592 1.394
3 477.055 1.315
4 427.103 1.378
5 520.076 1.341
6 336.998 1.466
7 339.986 1.08
8 339.986 1.08
9 339.986 1.09
10 500 0
11 500 0
12 500 0
13 500 0
14 500 0
15 500 0

Angle Coeffs

   1    cosine/squared 66.665   120.000000  # C-C-C
   2    harmonic       80.007170   109.500000  # F-B-F
   3    harmonic       70.004780   126.400000  # CR-NA-CT
   4    harmonic       70.004780   108.000000  # CW-NA-CR
   5    harmonic       70.004780   125.600000  # CW-NA-CT
   6    harmonic       70.004780   109.800000  # NA-CR-NA
   7    harmonic       35.002390   125.100000  # NA-CR-HA
   8    harmonic       70.004780   107.100000  # NA-CW-CW
   9    harmonic       35.002390   122.000000  # NA-CW-HA
  10    harmonic       35.002390   130.900000  # CW-CW-HA
  11    harmonic       37.500000   110.700000  # NA-CT-HC
  12    harmonic       32.994742   107.800000  # HC-CT-HC

Dihedral Coeffs

   1    harmonic      3.125000    -1            2                      # C-C-C-C
   2    opls          0.000000     4.651052     0.000000     0.000000  # CT-NA-CR-NA
   3    opls          0.000000     4.651052     0.000000     0.000000  # CW-NA-CR-NA
   4    opls          0.000000     4.651052     0.000000     0.000000  # CT-NA-CR-HA
   5    opls          0.000000     4.651052     0.000000     0.000000  # CW-NA-CR-HA
   6    opls          0.000000     3.000000     0.000000     0.000000  # CR-NA-CW-CW
   7    opls          0.000000     3.000000     0.000000     0.000000  # CT-NA-CW-CW
   8    opls          0.000000     3.000000     0.000000     0.000000  # CR-NA-CW-HA
   9    opls          0.000000     3.000000     0.000000     0.000000  # CT-NA-CW-HA
  10    opls          0.000000    10.750478     0.000000     0.000000  # NA-CW-CW-HA
  11    opls          0.000000    10.750478     0.000000     0.000000  # HA-CW-CW-HA
  12    opls          0.000000    10.750478     0.000000     0.000000  # NA-CW-CW-NA
  13    opls          0.000000     0.000000     0.000000     0.000000  # CR-NA-CT-HC
  14    opls          0.000000     0.000000     0.124044     0.000000  # CW-NA-CT-HC
  15    opls          0.000000     2.000000     0.000000     0.000000  # CR-CW-NA-CT
  16    opls          0.000000     2.200000     0.000000     0.000000  # NA-NA-CR-HA
  17    opls          0.000000     2.200000     0.000000     0.000000  # NA-CW-CW-HA

Improper Coeffs # umbrella

1 40 0

Atoms # full

1 1 1 0 0.71 0 0 0 0 0
2 1 1 0 2.13 0 0 0 0 0
3 1 1 0 0 1.23 0 0 0 0
4 1 1 0 2.84 1.23 0 0 0 0
5 1 1 0 4.97 0 0 0 0 0
6 1 1 0 6.39 0 0 0 0 0
7 1 1 0 4.26 1.23 0 0 0 0
8 1 1 0 7.1 1.23 0 0 0 0
33 1 1 0 0.71 2.46 0 0 0 0
34 1 1 0 2.13 2.46 0 0 0 0
35 1 1 0 0 3.689 0 0 0 0
36 1 1 0 2.84 3.689 0 0 0 0
37 1 1 0 4.97 2.46 0 0 0 0
38 1 1 0 6.39 2.46 0 0 0 0
39 1 1 0 4.26 3.689 0 0 0 0
40 1 1 0 7.1 3.689 0 0 0 0
65 1 1 0 0.71 4.919 0 0 0 0
66 1 1 0 2.13 4.919 0 0 0 0
67 1 1 0 0 6.149 0 0 0 0
68 1 1 0 2.84 6.149 0 0 0 0
69 1 1 0 4.97 4.919 0 0 0 0
70 1 1 0 6.39 4.919 0 0 0 0
71 1 1 0 4.26 6.149 0 0 0 0
72 1 1 0 7.1 6.149 0 0 0 0
97 1 1 0 0.71 7.379 0 0 0 0
98 1 1 0 2.13 7.379 0 0 0 0
99 1 1 0 0 8.608 0 0 0 0
100 1 1 0 2.84 8.608 0 0 0 0
101 1 1 0 4.97 7.379 0 0 0 0
102 1 1 0 6.39 7.379 0 0 0 0
103 1 1 0 4.26 8.608 0 0 0 0
104 1 1 0 7.1 8.608 0 0 0 0
449 1 1 0 2.13 0 3.35 0 0 0
450 1 1 0 3.55 0 3.35 0 0 0
451 1 1 0 1.42 1.23 3.35 0 0 0
452 1 1 0 4.26 1.23 3.35 0 0 0
453 1 1 0 6.39 0 3.35 0 0 0
454 1 1 0 7.81 0 3.35 0 0 0
455 1 1 0 5.68 1.23 3.35 0 0 0
480 1 1 0 0 1.23 3.35 1 0 0
481 1 1 0 2.13 2.46 3.35 0 0 0
482 1 1 0 3.55 2.46 3.35 0 0 0
483 1 1 0 1.42 3.689 3.35 0 0 0
484 1 1 0 4.26 3.689 3.35 0 0 0
485 1 1 0 6.39 2.46 3.35 0 0 0
486 1 1 0 7.81 2.46 3.35 0 0 0
487 1 1 0 5.68 3.689 3.35 0 0 0
512 1 1 0 0 3.689 3.35 1 0 0
513 1 1 0 2.13 4.919 3.35 0 0 0
514 1 1 0 3.55 4.919 3.35 0 0 0
515 1 1 0 1.42 6.149 3.35 0 0 0
516 1 1 0 4.26 6.149 3.35 0 0 0
517 1 1 0 6.39 4.919 3.35 0 0 0
518 1 1 0 7.81 4.919 3.35 0 0 0
519 1 1 0 5.68 6.149 3.35 0 0 0
544 1 1 0 0 6.149 3.35 1 0 0
545 1 1 0 2.13 7.379 3.35 0 0 0
546 1 1 0 3.55 7.379 3.35 0 0 0
547 1 1 0 1.42 8.608 3.35 0 0 0
548 1 1 0 4.26 8.608 3.35 0 0 0
549 1 1 0 6.39 7.379 3.35 0 0 0
550 1 1 0 7.81 7.379 3.35 0 0 0
551 1 1 0 5.68 8.608 3.35 0 0 0
576 1 1 0 0 8.608 3.35 1 0 0
900 1 2 0 2.892324893057645 1.2134234849041339 6.7452782826359075 0 0 0
903 1 2 0 4.293554901108928 1.20937489718191 6.824340474339191 0 0 0
904 1 2 0 7.133406920639338 1.1423038505631629 6.887868335018633 0 0 0
929 1 2 0 0.8028774757931184 2.384355071892123 6.754397735501376 0 0 0
930 1 2 0 2.2055160337486974 2.442937234468537 6.767813256460551 0 0 0
932 1 2 0 2.8342496576547775 3.7021669066558314 6.78748398845161 0 0 0
933 1 2 0 4.991941788611988 2.4409083512594867 6.8230006812577715 0 0 0
934 1 2 0 6.44369116060799 2.375615031996555 6.876412653274508 0 0 0
935 1 2 0 4.288281901316366 3.6672861847535376 6.739562328703298 0 0 0
936 1 2 0 7.097771965323697 3.6735896595540147 6.823218415773918 0 0 0
961 1 2 0 0.6784397787973839 4.935870087038241 6.68850396476355 0 0 0
962 1 2 0 2.131027804495126 4.961634844173462 6.851214595493511 0 0 0
964 1 2 0 2.8331114229465144 6.157174238960887 6.774681233185012 0 0 0
965 1 2 0 4.9678551402984885 4.946919647729442 6.745977115701808 0 0 0
966 1 2 0 6.4264099524130565 4.949120444298251 6.766536142598501 0 0 0
967 1 2 0 4.268242954121999 6.152568543547031 6.777071304784667 0 0 0
968 1 2 0 7.134254758161783 6.190382533342304 6.743304308053072 0 0 0
993 1 2 0 0.7383543044483662 7.401900413093727 6.820196438142075 0 0 0
994 1 2 0 2.180587944311407 7.400486038398181 6.84216538071118 0 0 0
997 1 2 0 4.996605892600531 7.408199955388978 6.789392154446769 0 0 0
998 1 2 0 6.447361569474919 7.399709462330375 6.791430839303834 0 0 0
1348 1 2 0 2.1597443072638463 2.3666154631615686 10.18517829419714 0 0 0
1351 1 2 0 3.5816784024534027 2.3599427784143394 10.11795883287972 0 0 0
1378 1 2 0 1.4817901962195577 3.6152676377528254 10.093578116084313 0 0 0
1380 1 2 0 2.1689776653089012 4.8438136826138996 10.024560623041433 0 0 0
1381 1 2 0 4.320967617465168 3.587201667672351 10.030413426733745 0 0 0
1382 1 2 0 5.719117135785149 3.552413213816161 10.069628912954522 0 0 0
1383 1 2 0 3.5620548916204986 4.797681652951315 10.03068773093702 0 0 0
1410 1 2 0 1.4301437994610608 6.092125845693738 10.063689149619352 0 0 0
1412 1 2 0 2.1849785701115305 7.3166546142688675 10.088359799266666 0 0 0
1413 1 2 0 4.2698551695587454 6.0511744591595775 10.000790708561833 0 0 0
1414 1 2 0 5.729133486933923 5.986589098049326 10.040139397045149 0 0 0
1415 1 2 0 3.586304690535387 7.316059215798975 10.026623864169661 0 0 0
1826 1 2 0 2.0410189051592162 2.554504379562898 13.668257061115524 0 0 0
1828 1 2 0 2.8032049918706825 3.7716025254633077 13.577576869383549 0 0 0
1829 1 2 0 4.934131169422158 2.5573216869601394 13.646311984528529 0 0 0
1830 1 2 0 6.357597527881004 2.524921013179248 13.680454582791038 0 0 0
1831 1 2 0 4.19509289234809 3.7433347357290137 13.580250888083992 0 0 0
1858 1 2 0 2.0699944261709766 5.048901789561288 13.502313524361172 0 0 0
1860 1 2 0 2.7517815502161684 6.331880837244485 13.547493726096802 0 0 0
1861 1 2 0 4.942704941635593 5.00284604648093 13.65775369248369 0 0 0
1862 1 2 0 6.344161711869335 5.008277288350668 13.680083657024523 0 0 0
1863 1 2 0 4.168369361158603 6.250725878059797 13.531267147422401 0 0 0
1352 1 2 0 6.426756846305341 2.3518935114635324 10.142345868700422 0 0 0
1416 1 2 0 6.420570286294363 7.259887913405898 10.027709492730663 0 0 0
1384 1 2 0 6.490921378759801 4.759345500854393 10.07936035973165 0 0 0
1349 1 2 0 4.2984359872286975 1.1190207821965883 10.139250695411212 0 0 0
1350 1 2 0 5.6624244312095255 1.0956714399649834 10.189341277626802 0 0 0
1346 1 2 0 1.426840939727052 1.0934876113993377 10.19984732434925 0 0 0
1825 1 2 0 0.6017397283450127 2.583841638145545 13.639109426530466 0 0 0
1857 1 2 0 0.6509285525526387 5.046795232195331 13.497207464170115 0 0 0
1387 1 2 0 7.891341291916102 4.861376506355773 10.002071817415704 0 0 0
1419 1 2 0 7.844423513763085 7.237005618611335 9.983623762047092 0 0 0
1355 1 2 0 7.845260447496042 2.3797266533363266 10.181619319594157 0 0 0
1796 1 2 0 2.7720907835052544 1.310650551761735 13.651951615759707 0 0 0
1832 1 2 0 7.067835363679435 3.7722849034894503 13.637777518578302 0 0 0
1864 1 2 0 7.10692830979351 6.236291985732446 13.636259292348186 0 0 0
1890 1 2 0 2.039474273867648 7.507968534251725 13.432146306049798 0 0 0
1893 1 2 0 4.944142477501954 7.460731114381597 13.515029042753138 0 0 0
1889 1 2 0 0.5933741121284922 7.504019565962259 13.457568592544833 0 0 0
1894 1 2 0 6.356901879784477 7.39629549163641 13.537921923206135 0 0 0
1799 1 2 0 4.196009267865946 1.3282906839308362 13.67053478586576 0 0 0
1800 1 2 0 7.124709798897839 1.3194416368576918 13.75889982815522 0 0 0
1776 1 2 0 14.973104967981397 0.0025700649348436855 10.261041092446472 0 1 0
996 1 2 0 2.8693982535947624 8.629023322606736 6.855640439916611 0 0 0
1345 1 2 0 0.060573366579558835 1.1386112604768601 10.243525795878409 0 0 0
4762 256 10 0.21 1.229549219598068 8.146733800893882 15.953108113047163 0 1 0
1409 1 2 0 0.08059399531913544 6.106894909962075 10.079711800466137 0 0 0
1811 1 2 0 17.003410693148318 1.1867528482615037 13.673630855363784 0 0 0
2547 63 4 0.881919 5.24495006966432 4.257895432027762 16.364438443650958 0 1 0
1835 1 2 0 8.485636529514505 3.756662478858975 13.622330134073978 0 0 0
1803 1 2 0 8.49830329648271 1.2813015605242681 13.718409747507282 0 0 0
5287 19 12 -1.319327 15.885882215014693 11.6068257997 16.532145408456543 0 0 0
1987 1 2 0 0.016769564974189896 16.010363813053807 13.584727454540003 0 0 0
4219 222 10 0.21 12.677534909198275 0.4899347172749196 16.420346422403853 0 1 0
6610 243 16 -2.086039 11.724757576077316 15.647126746343599 16.587414729971282 0 0 0
3211 159 10 0.21 5.013150085984667 6.364847054380488 16.385657716439294 0 1 0
1000 1 2 0 7.178192274905113 8.623302443416488 6.797694707080458 0 0 0
999 1 2 0 4.309731516742276 8.604909723424052 6.8415874562520305 0 0 0
1130 1 2 0 10.660712104880941 17.21324687873633 6.754962312319092 0 0 0
1802 1 2 0 10.616602957398657 0.05996945958851198 13.606351663016323 0 0 0
1543 1 2 0 3.5634747736279735 17.166527188718593 10.150231938390533 0 0 0
3176 157 9 0.21 8.013610149319913 3.442529782593041 16.41124498110471 0 1 0
3210 159 10 0.21 3.7944461020051286 8.93833388455446 16.330966299221554 0 1 0
4311 228 8 2.274943 3.529808763255345 14.241394934188701 16.55063574679109 0 0 0
1377 1 2 0 0.03534034354995194 3.655777617273651 10.184748245945318 0 0 0
2003 1 2 0 16.974371290928094 16.11463267866242 13.538454653974679 0 0 0
1091 1 2 0 0.027489216020285312 16.011454187511468 6.809850373986788 0 0 0
3214 159 11 0.13 7.942434741366651 6.083233032043554 15.95229911118218 0 1 0
4549 243 7 1.956039 11.729524750465021 15.6488222414754 16.58843683792429 0 0 0
979 1 2 0 17.020465493217902 6.141972567283538 6.789280063866429 0 0 0
6507 228 17 -2.444943 3.4810461654157603 14.210828255031 16.52782266424835 0 0 0
1939 1 2 0 16.998906592458574 11.118019663038977 13.284296644318102 0 0 0
2327 19 4 0.881919 16.877546046180242 10.75717882907405 15.918441502625447 0 0 0
174 1 1 0 14.91 12.298 0 0 0 0
4306 228 5 2.057313 2.1531582333281376 13.909024937783517 16.54064534900648 0 0 0
907 1 2 0 8.565328728416215 1.1779576864836445 6.783615989995139 0 0 0
1417 1 2 0 8.584773488074536 6.053983239801159 10.01564438147129 0 0 0
1385 1 2 0 8.588393466978713 3.6317577129407037 10.057886168999163 0 0 0
939 1 2 0 8.535523764892408 3.656719731339992 6.828705858937308 0 0 0
1353 1 2 0 8.616221449523863 1.1725704964253838 10.179200789975004 0 0 0
4317 228 11 0.13 4.18371656927998 13.50886683521357 16.077447646460527 0 0 0
6023 159 16 -2.086039 5.328655758383682 7.414266298443654 16.464411423582845 0 1 0
1552 1 2 0 15.052383759470224 17.20209845334322 10.168802130493358 0 0 0
5671 95 13 -1.371919 15.507598105656665 3.7048819188635216 16.412589819062156 0 1 0
1544 1 2 0 6.4531297922813255 17.131881333166437 10.043359205703714 0 0 0
6701 256 16 -2.086039 0.25729602190922635 7.758648705946591 16.17421376745261 0 1 0
6502 228 14 -1.907313 2.1152560578424167 13.932176024938125 16.536785243069048 0 0 0
1867 1 2 0 8.49692353105542 6.178577511649305 13.431019674098371 0 0 0
971 1 2 0 8.533982116450202 6.180595467952891 6.676662551313009 0 0 0
1129 1 2 0 9.221665806004236 17.20123759011722 6.798180352302002 0 0 0
1808 1 2 0 15.574314185792025 1.2476315890911993 13.660694097603448 0 0 0
1872 1 2 0 15.630325324409734 6.239997694749625 13.375422907047883 0 0 0
1833 1 2 0 9.182960795215514 2.5540423438319504 13.65662273432489 0 0 0
1865 1 2 0 9.23418873672055 4.978649434653465 13.569820183213118 0 0 0
1360 1 2 0 14.933059299165153 2.4778107607808533 10.236125494960815 0 0 0
9 1 1 0 9.23 0 0 0 0 0
10 1 1 0 10.65 0 0 0 0 0
11 1 1 0 8.52 1.23 0 0 0 0
12 1 1 0 11.36 1.23 0 0 0 0
13 1 1 0 13.49 0 0 0 0 0
14 1 1 0 14.91 0 0 0 0 0
15 1 1 0 12.78 1.23 0 0 0 0
16 1 1 0 15.62 1.23 0 0 0 0
41 1 1 0 9.23 2.46 0 0 0 0
42 1 1 0 10.65 2.46 0 0 0 0
43 1 1 0 8.52 3.689 0 0 0 0
44 1 1 0 11.36 3.689 0 0 0 0
45 1 1 0 13.49 2.46 0 0 0 0
46 1 1 0 14.91 2.46 0 0 0 0
47 1 1 0 12.78 3.689 0 0 0 0
48 1 1 0 15.62 3.689 0 0 0 0
73 1 1 0 9.23 4.919 0 0 0 0
74 1 1 0 10.65 4.919 0 0 0 0
75 1 1 0 8.52 6.149 0 0 0 0
76 1 1 0 11.36 6.149 0 0 0 0
77 1 1 0 13.49 4.919 0 0 0 0
78 1 1 0 14.91 4.919 0 0 0 0
79 1 1 0 12.78 6.149 0 0 0 0
80 1 1 0 15.62 6.149 0 0 0 0
105 1 1 0 9.23 7.379 0 0 0 0
106 1 1 0 10.65 7.379 0 0 0 0
107 1 1 0 8.52 8.608 0 0 0 0
108 1 1 0 11.36 8.608 0 0 0 0
109 1 1 0 13.49 7.379 0 0 0 0
110 1 1 0 14.91 7.379 0 0 0 0
111 1 1 0 12.78 8.608 0 0 0 0
112 1 1 0 15.62 8.608 0 0 0 0
456 1 1 0 8.52 1.23 3.35 0 0 0
457 1 1 0 10.65 0 3.35 0 0 0
458 1 1 0 12.07 0 3.35 0 0 0
459 1 1 0 9.94 1.23 3.35 0 0 0
460 1 1 0 12.78 1.23 3.35 0 0 0
461 1 1 0 14.91 0 3.35 0 0 0
462 1 1 0 16.33 0 3.35 0 0 0
463 1 1 0 14.2 1.23 3.35 0 0 0
488 1 1 0 8.52 3.689 3.35 0 0 0
489 1 1 0 10.65 2.46 3.35 0 0 0
490 1 1 0 12.07 2.46 3.35 0 0 0
491 1 1 0 9.94 3.689 3.35 0 0 0
492 1 1 0 12.78 3.689 3.35 0 0 0
493 1 1 0 14.91 2.46 3.35 0 0 0
494 1 1 0 16.33 2.46 3.35 0 0 0
495 1 1 0 14.2 3.689 3.35 0 0 0
520 1 1 0 8.52 6.149 3.35 0 0 0
521 1 1 0 10.65 4.919 3.35 0 0 0
522 1 1 0 12.07 4.919 3.35 0 0 0
523 1 1 0 9.94 6.149 3.35 0 0 0
524 1 1 0 12.78 6.149 3.35 0 0 0
525 1 1 0 14.91 4.919 3.35 0 0 0
526 1 1 0 16.33 4.919 3.35 0 0 0
527 1 1 0 14.2 6.149 3.35 0 0 0
552 1 1 0 8.52 8.608 3.35 0 0 0
553 1 1 0 10.65 7.379 3.35 0 0 0
554 1 1 0 12.07 7.379 3.35 0 0 0
555 1 1 0 9.94 8.608 3.35 0 0 0
556 1 1 0 12.78 8.608 3.35 0 0 0
557 1 1 0 14.91 7.379 3.35 0 0 0
558 1 1 0 16.33 7.379 3.35 0 0 0
559 1 1 0 14.2 8.608 3.35 0 0 0
908 1 2 0 11.377782924912177 1.2306646553958622 6.745871457877103 0 0 0
911 1 2 0 12.795007300249676 1.211417427373114 6.733427249728546 0 0 0
912 1 2 0 15.535565143406323 1.2712923021925444 6.74488829423944 0 0 0
937 1 2 0 9.285910174974884 2.4432320016781497 6.779403410446354 0 0 0
938 1 2 0 10.673172044561973 2.4804111291690822 6.7548893542251385 0 0 0
940 1 2 0 11.325653398763103 3.722737721410889 6.822206164630453 0 0 0
941 1 2 0 13.446252169056512 2.4814291768835712 6.70288492804961 0 0 0
942 1 2 0 14.84186996862277 2.4647642938699184 6.742675208773526 0 0 0
943 1 2 0 12.722086745415282 3.752275605585191 6.820371075540708 0 0 0
944 1 2 0 15.633191351246852 3.6781339357369895 6.70937946263326 0 0 0
969 1 2 0 9.165974731553298 4.971596081555275 6.7607426732625555 0 0 0
970 1 2 0 10.595682543753119 4.935298989771668 6.782302464804582 0 0 0
972 1 2 0 11.380711888557142 6.165233978440993 6.716440990706857 0 0 0
973 1 2 0 13.45743843276864 4.950185814969804 6.780684991821838 0 0 0
974 1 2 0 14.876690476543677 4.95508951432697 6.738307826696009 0 0 0
975 1 2 0 12.779510088997172 6.225009348313678 6.7798596962450866 0 0 0
976 1 2 0 15.62191834710964 6.1834265641262 6.713508172729482 0 0 0
1001 1 2 0 9.222826725968316 7.385074847646249 6.61819444526585 0 0 0
1002 1 2 0 10.640294674813255 7.3676978635152715 6.633391251581461 0 0 0
1005 1 2 0 13.482789128990657 7.46664891218452 6.816071378644889 0 0 0
1006 1 2 0 14.941897413909237 7.442052093429942 6.856763423776548 0 0 0
1356 1 2 0 10.721153967361486 2.4509413094250396 10.223351147051664 0 0 0
1359 1 2 0 12.12371583250834 2.459352160349069 10.39675744670594 0 0 0
1386 1 2 0 9.984133629256348 3.7129657242732814 10.14924928445488 0 0 0
1388 1 2 0 10.705621849838659 4.939098304474578 10.16616801998617 0 0 0
1389 1 2 0 12.789243238426229 3.661323846746778 10.30255541516371 0 0 0
1390 1 2 0 14.227057030237722 3.6606349662576503 10.220290347019173 0 0 0
1391 1 2 0 12.066409886291614 4.9148677728848975 10.23759584033043 0 0 0
1418 1 2 0 10.041178409577961 6.160801940375335 10.094723070041695 0 0 0
1420 1 2 0 10.764906066122217 7.392558009663712 10.133856335228627 0 0 0
1421 1 2 0 12.888049905966197 6.138531266865118 10.200300054098319 0 0 0
1422 1 2 0 14.32999287374132 6.188156321891757 10.218374610398888 0 0 0
1423 1 2 0 12.213459833170852 7.374646126246891 10.071376033269793 0 0 0
1834 1 2 0 10.61944360208484 2.5145275061202823 13.669610149572577 0 0 0
1836 1 2 0 11.355450805170117 3.731931982654442 13.697058295853774 0 0 0
1837 1 2 0 13.44719246155763 2.557530465656216 13.65764860947014 0 0 0
1838 1 2 0 14.924736777290954 2.5635487314208825 13.670576669118581 0 0 0
1839 1 2 0 12.78100562321363 3.783951612231488 13.639564745004998 0 0 0
1866 1 2 0 10.65157090622071 4.924550373014183 13.63174906346071 0 0 0
1868 1 2 0 11.306341573656276 6.188529982348367 13.50628682789746 0 0 0
1869 1 2 0 13.542243821611718 5.004198507348987 13.561642350634775 0 0 0
1870 1 2 0 14.952525823589262 4.988486754078898 13.521680175136751 0 0 0
1871 1 2 0 12.76992981441925 6.175913460287033 13.37606225433682 0 0 0
1424 1 2 0 15.012456403988226 7.384820804050743 10.0799791803973 0 0 0
1357 1 2 0 12.809972851853741 1.2395260982574257 10.339303399510632 0 0 0
1358 1 2 0 14.232654599571198 1.2523295433647021 10.241731552719981 0 0 0
1354 1 2 0 10.028103557218015 1.2451707351629746 10.279120613261417 0 0 0
1392 1 2 0 14.991673226008814 4.9203565339642825 10.154110082647005 0 0 0
1395 1 2 0 16.453578172927955 4.867303164578253 10.168896113926431 0 0 0
1427 1 2 0 16.437257929331263 7.328428991354758 10.067957510176292 0 0 0
1363 1 2 0 16.416342384985263 2.4568474412136627 10.146382628088013 0 0 0
1840 1 2 0 15.645574302496383 3.7966394512722834 13.616931254801552 0 0 0
1902 1 2 0 14.893882468970855 7.487404898312109 13.302807774978051 0 0 0
1898 1 2 0 10.654187063806438 7.403664435181913 13.39691181560855 0 0 0
1901 1 2 0 13.46859176933887 7.499536807807754 13.366442813031473 0 0 0
1897 1 2 0 9.223567192772718 7.39061385983783 13.262990294511487 0 0 0
1804 1 2 0 11.353856630775532 1.3052582114565878 13.585713021884004 0 0 0
1807 1 2 0 12.739795738641789 1.3018111697705836 13.547217695452689 0 0 0
2707 95 4 0.881919 13.453888047209462 2.739142195945038 16.483592355500882 0 1 0
1007 1 2 0 12.738373061290874 8.692518393907337 6.744287204904264 0 0 0
4315 228 10 0.21 2.3066269961850634 11.75044531014763 16.609838831884886 0 0 0
1967 1 2 0 12.668939903354552 13.615342347724896 13.501710407571835 0 0 0
2932 140 4 0.881919 6.549171096195116 13.619000962313299 16.03848486130752 0 0 0
5668 95 13 -1.371919 13.443123294838198 2.7346140834639487 16.49356052753628 0 1 0
1453 1 2 0 12.899677365017723 8.58894168323393 10.066657591467955 0 0 0
931 1 2 0 0.06763828318485504 3.669541159069261 6.720290877070002 0 0 0
5893 140 13 -1.371919 6.536893617796734 13.613756610888833 16.053154226547843 0 0 0
5881 137 13 -1.371919 10.473537260341699 7.302497780384526 16.267653729385522 0 1 0
1806 1 2 0 14.900800299123674 0.027837230791272025 13.623581312778715 0 0 0
2710 95 4 0.881919 15.510841330047045 3.6980630452204752 16.392083223551733 0 1 0
963 1 2 0 0.008346399508568714 6.1855633132963455 6.702350487383879 0 0 0
655 1 1 0 14.2 15.987 3.35 0 0 0
1484 1 2 0 10.703765411746382 12.247882402020608 10.09858778361372 0 0 0
947 1 2 0 17.015379846020803 3.7527941480182574 6.714753211885955 0 0 0
1968 1 2 0 15.60864495779451 13.66172697136613 13.46497131202879 0 0 0
1102 1 2 0 14.966984014523566 14.753490258384689 6.766972489401414 0 0 0
3182 157 11 0.13 10.09732989628771 5.057606827969965 16.266801819930958 0 1 0
910 1 2 0 14.890608279237322 0.0061755302144653025 6.762173860289624 0 0 0
899 1 2 0 0.10271593500167597 1.1844373072411427 6.784356665490067 0 0 0
1037 1 2 0 13.502275986937965 9.864681997933625 6.7756582112290875 0 0 0
3206 159 7 1.956039 5.344003777078189 7.389267941191544 16.47224370551008 0 1 0
1895 1 2 0 4.147376213102206 8.706261713198236 13.556434873188996 0 0 0
1892 1 2 0 2.739385563666574 8.718595124969504 13.522481933860478 0 0 0
1896 1 2 0 7.066183241650924 8.615683288826386 13.465091604969302 0 0 0
2920 137 4 0.881919 10.48616424272665 7.311164519245984 16.252633786553858 0 1 0
171 1 1 0 8.52 13.527 0 0 0 0
1442 1 2 0 1.4935239473207729 8.603173035400118 10.128020773205309 0 0 0
1805 1 2 0 13.454828909367325 0.051343646603628605 13.597017687677164 0 0 0
4767 256 11 0.13 1.1771261876276622 4.873631643918582 16.137087552126417 0 1 0
651 1 1 0 9.94 15.987 3.35 0 0 0
2549 63 4 0.881919 3.0904438556336005 3.2967594406039966 16.447788423959476 0 1 0
1537 1 2 0 0.04902736268249278 16.061286360987463 9.982898686219734 0 0 0
207 1 1 0 12.78 15.987 0 0 0 0
1103 1 2 0 12.81289302907937 16.00964483375837 6.821096353119346 0 0 0
3185 157 11 0.13 6.6685587685002945 1.4224909241788672 16.089302094336738 0 1 0
1445 1 2 0 4.307866555058814 8.561658620834132 10.047739428963713 0 0 0
1446 1 2 0 5.7023254210817695 8.564437334900221 10.081175614191983 0 0 0
1794 1 2 0 2.0610720917561784 0.059933046728997366 13.607836883399832 0 0 0
915 1 2 0 16.96184128323767 1.2913042372698618 6.733184663420012 0 0 0
144 1 1 0 15.62 11.068 0 0 0 0
1548 1 2 0 10.713327989382917 17.115244831651832 10.036613826007336 0 0 0
5508 63 13 -1.371919 5.250523983318422 4.265845976245152 16.377009610448024 0 1 0
172 1 1 0 11.36 13.527 0 0 0 0
203 1 1 0 8.52 15.987 0 0 0 0
1991 1 2 0 4.247361539095534 16.06573134384135 13.50233490567051 0 0 0
1921 1 2 0 0.6611750236127149 9.919048307712325 13.34885360426691 0 0 0
1985 1 2 0 0.7184363524230084 14.810824290418987 13.631725479846674 0 0 0
1444 1 2 0 2.2378701464516326 9.856686035569062 10.19590108519013 0 0 0
1447 1 2 0 3.656110548635204 9.782888903663936 10.163962871414043 0 0 0
1448 1 2 0 6.417958577761386 9.789312136111253 10.121232229385969 0 0 0
129 1 1 0 0.71 9.838 0 0 0 0
130 1 1 0 2.13 9.838 0 0 0 0
131 1 1 0 0 11.068 0 0 0 0
132 1 1 0 2.84 11.068 0 0 0 0
133 1 1 0 4.97 9.838 0 0 0 0
134 1 1 0 6.39 9.838 0 0 0 0
135 1 1 0 4.26 11.068 0 0 0 0
136 1 1 0 7.1 11.068 0 0 0 0
161 1 1 0 0.71 12.298 0 0 0 0
162 1 1 0 2.13 12.298 0 0 0 0
163 1 1 0 0 13.527 0 0 0 0
164 1 1 0 2.84 13.527 0 0 0 0
165 1 1 0 4.97 12.298 0 0 0 0
166 1 1 0 6.39 12.298 0 0 0 0
167 1 1 0 4.26 13.527 0 0 0 0
168 1 1 0 7.1 13.527 0 0 0 0
193 1 1 0 0.71 14.757 0 0 0 0
194 1 1 0 2.13 14.757 0 0 0 0
195 1 1 0 0 15.987 0 0 0 0
196 1 1 0 2.84 15.987 0 0 0 0
197 1 1 0 4.97 14.757 0 0 0 0
198 1 1 0 6.39 14.757 0 0 0 0
199 1 1 0 4.26 15.987 0 0 0 0
200 1 1 0 7.1 15.987 0 0 0 0
577 1 1 0 2.13 9.838 3.35 0 0 0
578 1 1 0 3.55 9.838 3.35 0 0 0
579 1 1 0 1.42 11.068 3.35 0 0 0
580 1 1 0 4.26 11.068 3.35 0 0 0
581 1 1 0 6.39 9.838 3.35 0 0 0
582 1 1 0 7.81 9.838 3.35 0 0 0
583 1 1 0 5.68 11.068 3.35 0 0 0
608 1 1 0 0 11.068 3.35 1 0 0
609 1 1 0 2.13 12.298 3.35 0 0 0
610 1 1 0 3.55 12.298 3.35 0 0 0
611 1 1 0 1.42 13.527 3.35 0 0 0
612 1 1 0 4.26 13.527 3.35 0 0 0
613 1 1 0 6.39 12.298 3.35 0 0 0
614 1 1 0 7.81 12.298 3.35 0 0 0
615 1 1 0 5.68 13.527 3.35 0 0 0
640 1 1 0 0 13.527 3.35 1 0 0
641 1 1 0 2.13 14.757 3.35 0 0 0
642 1 1 0 3.55 14.757 3.35 0 0 0
643 1 1 0 1.42 15.987 3.35 0 0 0
644 1 1 0 4.26 15.987 3.35 0 0 0
645 1 1 0 6.39 14.757 3.35 0 0 0
646 1 1 0 7.81 14.757 3.35 0 0 0
647 1 1 0 5.68 15.987 3.35 0 0 0
672 1 1 0 0 15.987 3.35 1 0 0
1025 1 2 0 0.7148459942595996 9.839101017089577 6.87823601459129 0 0 0
1026 1 2 0 2.0620479299331422 9.864508314261544 6.789603598412131 0 0 0
1028 1 2 0 2.795809814162301 11.130674277842033 6.723562716486993 0 0 0
1029 1 2 0 5.003127637975289 9.909166955146457 6.789352228662996 0 0 0
1030 1 2 0 6.440185141093997 9.885072935658236 6.8084948254445665 0 0 0
1031 1 2 0 4.2573506631758615 11.145020521140838 6.7519221081884 0 0 0
1032 1 2 0 7.1332012575057755 11.105564327607308 6.811290843039363 0 0 0
1057 1 2 0 0.670568861053017 12.369635147627402 6.776267631328382 0 0 0
1058 1 2 0 2.100177007759421 12.379067940718008 6.709795121470284 0 0 0
1060 1 2 0 2.81966929216194 13.582227699775586 6.7151451625984695 0 0 0
1061 1 2 0 4.985905536552173 12.362094491761553 6.8300250316584465 0 0 0
1062 1 2 0 6.438676859987104 12.371602973253584 6.839890340523288 0 0 0
1063 1 2 0 4.289991700378093 13.553627934613683 6.777769326154543 0 0 0
1064 1 2 0 7.189472623935144 13.546466395108144 6.763884434992942 0 0 0
1089 1 2 0 0.7108987343266204 14.807864244806547 6.879222343664282 0 0 0
1090 1 2 0 2.134582686723739 14.800131164874692 6.835736161854907 0 0 0
1092 1 2 0 2.7835781007189486 16.044984354867328 6.769134208998348 0 0 0
1093 1 2 0 5.028927951991226 14.792749796156716 6.765115178230439 0 0 0
1094 1 2 0 6.437155769617832 14.743687039052492 6.770326258353058 0 0 0
1095 1 2 0 4.247423130323429 16.023918482341607 6.736292720069086 0 0 0
1096 1 2 0 7.135563301793906 16.00818070188972 6.841861145571671 0 0 0
1474 1 2 0 1.496915762776867 11.074792151233838 10.163640734116312 0 0 0
1476 1 2 0 2.1971436058034097 12.262536962420148 10.161794384147969 0 0 0
1477 1 2 0 4.340526359568452 11.019560352180537 10.173513143027805 0 0 0
1478 1 2 0 5.755714784223218 11.036693033488353 10.205090276728086 0 0 0
1479 1 2 0 3.6091375314652026 12.273702288073688 10.156615325254048 0 0 0
1506 1 2 0 1.501912914968521 13.466260677087421 10.100918822516451 0 0 0
1508 1 2 0 2.217347420144609 14.74722552609386 10.177901542842799 0 0 0
1509 1 2 0 4.325616684554706 13.47530763479365 10.133384124477573 0 0 0
1510 1 2 0 5.782681232366346 13.392976987658454 10.146510626896495 0 0 0
1511 1 2 0 3.6226553358972517 14.715996769925594 10.128369290508948 0 0 0
1538 1 2 0 1.472470649451925 15.989230916624832 10.176832589627262 0 0 0
1541 1 2 0 4.271438214767518 15.917408799960262 10.074054602862955 0 0 0
1542 1 2 0 5.7880597345351585 15.933338511172849 10.056596978712118 0 0 0
1922 1 2 0 2.091749818056243 9.93230411347859 13.502136570355637 0 0 0
1924 1 2 0 2.82989425723285 11.184105017149898 13.466478802552754 0 0 0
1925 1 2 0 4.918643299691262 9.877644808697102 13.542511029467406 0 0 0
1926 1 2 0 6.371420485837271 9.832392175096006 13.484729009632307 0 0 0
1927 1 2 0 4.251189350118504 11.141891735875623 13.470324638291805 0 0 0
1954 1 2 0 2.0963926526084924 12.366561293383336 13.565796954053678 0 0 0
1956 1 2 0 2.834512765097151 13.585771862227563 13.669334600975048 0 0 0
1957 1 2 0 4.95314208636945 12.309396999965877 13.49593516105392 0 0 0
1958 1 2 0 6.403108813354682 12.29670444726702 13.428472791282935 0 0 0
1959 1 2 0 4.299773399590022 13.533844371911837 13.488698311441054 0 0 0
1986 1 2 0 2.144254398878171 14.778291933039593 13.680712005993438 0 0 0
1989 1 2 0 4.982123348246998 14.792910872030431 13.506505950273333 0 0 0
1990 1 2 0 6.375888358302347 14.762899282857662 13.514688764659912 0 0 0
1480 1 2 0 6.512376571058948 12.22102705017922 10.159041009522888 0 0 0
1512 1 2 0 6.522590701004628 14.655693108989084 10.120467765782166 0 0 0
1953 1 2 0 0.6539091175924088 12.37383719526388 13.496854151123435 0 0 0
1515 1 2 0 7.924474916216557 14.744215039939306 10.206610612896275 0 0 0
1451 1 2 0 7.851115205829626 9.777993575367727 10.15687215277591 0 0 0
1483 1 2 0 7.87763543613665 12.190660447565865 10.194186008647701 0 0 0
1928 1 2 0 7.098190224151772 11.07752929653017 13.582750576833753 0 0 0
1960 1 2 0 7.12107384338132 13.508709330248209 13.483732694307362 0 0 0
1992 1 2 0 7.036429835927895 15.975024282823357 13.567080319315522 0 0 0
1988 1 2 0 2.8139295794933394 16.01217138128576 13.545237001783873 0 0 0
1441 1 2 0 0.0681161155070315 8.610879728376457 10.032473552037148 0 0 0
1505 1 2 0 0.05727818747993902 13.578340711086957 10.064690598946994 0 0 0
1963 1 2 0 8.538466128471324 13.58723391839313 13.504565314752137 0 0 0
1995 1 2 0 8.52709554515654 15.978247506797576 13.50725151653484 0 0 0
1551 1 2 0 12.165082823869877 17.146700947867238 10.120034043410522 0 0 0
2000 1 2 0 15.557430732688564 16.12903982182993 13.539825509233113 0 0 0
5288 19 13 -1.371919 16.878624415693547 10.747915546683059 15.931990172612302 0 0 0
1843 1 2 0 17.020359347531453 3.7233063311069245 13.50224107697718 0 0 0
1473 1 2 0 0.05163506563736361 11.081747554646908 10.091094636873557 0 0 0
621 1 1 0 14.91 12.298 3.35 0 0 0
1547 1 2 0 7.869789506156543 17.13930625418165 10.135405827182106 0 0 0
5510 63 13 -1.371919 3.1054287971308896 3.3018069220650346 16.463862207924173 0 1 0
1801 1 2 0 9.164597972492018 0.011641053019828162 13.71475255400462 0 0 0
5290 19 13 -1.371919 14.592925846367203 11.225635532251529 16.001928766873277 0 0 0
5878 137 13 -1.371919 9.34670437389886 9.337432873061928 16.078746094810594 0 1 0
2917 137 4 0.881919 9.354346958365463 9.344584657330659 16.0549269448792 0 1 0
2329 19 4 0.881919 14.58574332566326 11.222457942399611 15.987808745973718 0 0 0
5289 19 13 -1.371919 16.092730502852763 12.957699184380512 16.268016713689548 0 0 0
2328 19 4 0.881919 16.097343702348116 12.954659737357991 16.25290724130982 0 0 0