
    -----------------------------------------------------------------------
          Psi4: An Open-Source Ab Initio Electronic Structure Package
                               Psi4 1.9 release

                         Git: Rev {} zzzzzzz 


    D. G. A. Smith, L. A. Burns, A. C. Simmonett, R. M. Parrish,
    M. C. Schieber, R. Galvelis, P. Kraus, H. Kruse, R. Di Remigio,
    A. Alenaizan, A. M. James, S. Lehtola, J. P. Misiewicz, M. Scheurer,
    R. A. Shaw, J. B. Schriber, Y. Xie, Z. L. Glick, D. A. Sirianni,
    J. S. O'Brien, J. M. Waldrop, A. Kumar, E. G. Hohenstein,
    B. P. Pritchard, B. R. Brooks, H. F. Schaefer III, A. Yu. Sokolov,
    K. Patkowski, A. E. DePrince III, U. Bozkaya, R. A. King,
    F. A. Evangelista, J. M. Turney, T. D. Crawford, C. D. Sherrill,
    J. Chem. Phys. 152(18) 184108 (2020). https://doi.org/10.1063/5.0006002

                            Additional Code Authors
    E. T. Seidl, C. L. Janssen, E. F. Valeev, M. L. Leininger,
    J. F. Gonthier, R. M. Richard, H. R. McAlexander, M. Saitow, X. Wang,
    P. Verma, M. H. Lechner, A. Jiang, S. Behnle, A. G. Heide,
    M. F. Herbst, and D. L. Poole

             Previous Authors, Complete List of Code Contributors,
                       and Citations for Specific Modules
    https://github.com/psi4/psi4/blob/master/codemeta.json
    https://github.com/psi4/psi4/graphs/contributors
    http://psicode.org/psi4manual/master/introduction.html#citing-psifour

    -----------------------------------------------------------------------


    Psi4 started on: Saturday, 27 January 2024 12:16AM

    Process ID: 3703083
    Host:       n2cn1128
    PSIDATADIR: /opt/software/pc2/EB-SW/software/PSI4/1.9-foss-2022a/share/psi4
    Memory:     500.0 MiB
    Threads:    16
    
  ==> Input File <==

--------------------------------------------------------------------------
memory 64 GB # how much memory is available ! Depends on the nodes/cores !

molecule dimer {
# monomer A
+1 1    # Charge and multiplicity
C  0.680067 1.417258 -10.815929
C -0.680504 1.419286 -10.815545
N -1.085635 1.420284  -9.497221
C  0.000108 1.423560  -8.715820
C -2.477365 1.469690  -9.029242
N  1.085222 1.420284  -9.497221
H  1.385146 1.409430 -11.633368
H -1.385302 1.419096 -11.633214
H -0.000009 1.425307  -7.634731
C  2.478117 1.403392  -9.032123
H  2.490592 1.430737  -7.941870
H  2.967028 0.489946  -9.379299
H  3.001428 2.278875  -9.423595
H -2.857359 2.491761  -9.109201
H -3.082679 0.799606  -9.642306
H -2.518128 1.142706  -7.989294
--
# monomer B
0 1     # Charge and multiplicity
C   -3.66844126402057      7.80375217008252      0.00190004133558
C   -4.84759871934653      7.13124183134024     -0.00046653359696
C   -4.89495929917518      5.69633040353158     -0.00103944469517
C   -3.65374067877320      4.98073034095895      0.00662099703436
C   -2.40942512149445      7.11398103667468      0.00209438359570
C   -2.42547734410473      5.68112195090346     -0.00491050527438
C   -1.19474401643570      7.78614419430947      0.00356656413763
C   0.03795902893699      7.09942164575698      0.00139585983271
C   0.03033258741920      5.66948955970466     -0.00408752508301
C   -1.20098450790502      4.96927034791531      0.00488220885047
C   1.27795782581485      7.77285944319479      0.00277170839332
C   2.48535808472416      7.08769688523756      0.00049722048857
C   2.48612868491717      5.65477081024076     -0.00644052849921
C   1.25408291964399      4.95607811366431      0.00518741308898
C   3.75171459140595      7.76391215098033      0.00062407186893
C   4.92356605618520      7.07878077698995     -0.00143240883900
C   4.95560727132542      5.64344746336949     -0.00159282164606
C   3.70680153420475      4.94121020833308      0.00349873852374
H   -3.65852113775815      8.89082741913536      0.00358502958574
H   -1.18921332975660      8.87412108735996      0.00753844057883
H   1.28429423888630      8.86083343548850      0.00693053253426
H   3.75354208679975      8.85103527897216      0.00214659618464
H   5.86995870320703      7.61379483465560     -0.00235777588134
H   -5.78823170750226      7.67630221293400     -0.00202638095293
C   -6.09197395869619      4.99326001364347     -0.00291168518608
C   -6.12866148031747      3.58258016879823     -0.00171050815740
C   -3.66457974004527      3.56418217974434     -0.00463560277484
C   -4.89429820469869      2.86108077590057      0.00453338221034
C   -2.43733499489796      2.84761165708481      0.00719617576166
C   -1.20922785759670      3.54788693497833     -0.00648285103018
C   1.24714157216223      3.53468075142962     -0.00729145743546
C   0.01517603956900      2.83311183930540      0.00439272578912
C   2.46764517244071      2.82128997725533      0.00449278391269
C   3.70254947457969      3.52466015442405     -0.00899517692985
C   6.14498038638375      4.92757236613191     -0.00282626685777
C   6.16658835886151      3.51658447594213     -0.00065971342101
C   4.92460995845939      2.80840792535402      0.00587903281610
H   7.08990550964105      5.46688776622306     -0.00658814770723
H   -7.03104175110130      5.54268795285765     -0.00714490013730
C   -7.33969804112295      2.85841153457957     -0.00333767559888
C   -7.36488195805880      1.47032337158330     -0.00157213747140
C   -4.90350460894690      1.44442681216000     -0.00628840166334
C   -6.13225715261081      0.73993935705394      0.00600164231964
C   -3.67687480051673      0.72669714267312      0.00433931473643
C   -2.44565658606518      1.42964113326212     -0.00597039546461
C   -1.22360068130162      0.71532450163492      0.00545886906656
C   0.00763786931376      1.41738314923765      0.00392452278437
C   1.23121980774686      0.70211669058719     -0.01490206287210
C   2.46082110053113      1.40329203612573      0.00460244601878
C   3.68443025419614      0.68719842821222      0.00377365974158
C   4.91870890153864      1.39173456118907     -0.00862816189375
C   7.36980207796101      2.77948220318441     -0.00242013321349
C   7.38016266612146      1.39121750785509     -0.00087345036788
C   6.13979953912259      0.67411862320065      0.00545489144369
H   -8.27919079934664      3.40711804112415     -0.00763522772059
H   8.31511347147953      3.31811809662368     -0.00663070901292
C   -8.59175593758115      0.72483255304480     -0.00123170985383
C   -8.59902460370342     -0.63263980622873      0.00089141472904
C   -6.13981313911873     -0.67413663715361     -0.00609792660607
C   -7.38018411213749     -1.39126618958160      0.00131813493501
C   -4.91868448025621     -1.39175501803000      0.00624257154343
C   -3.68443829568458     -0.68723731573599     -0.00478966852105
C   -2.46081704024768     -1.40334517882457      0.00575341766833
C   -1.23116201232071     -0.70217386488055     -0.00636696112346
C   -0.00756962538737     -1.41741884941102      0.00108956317991
C   1.22364771588843     -0.71527537726392      0.01109518512883
C   2.44567064933149     -1.42964328900682     -0.00065482763106
C   3.67686670284649     -0.72670743155550     -0.00479541202602
C   6.13224884641929     -0.73997883984993     -0.00632338623858
C   4.90351914550401     -1.44445752054090      0.00751768830159
C   8.59901484869081      0.63260386666793     -0.00101133422380
C   8.59174548810050     -0.72485086719319      0.00072504603735
C   7.36486276438985     -1.47033266560598      0.00049486934466
H   -9.52830597181814      1.27684744919284     -0.00270163681798
H   9.54141097460619      1.17457248844457     -0.00206336648518
C   -7.36983790976868     -2.77954514593389      0.00312634335708
C   -4.92459910905015     -2.80843725734101     -0.00460528907921
C   -6.16662249566744     -3.51665219282533      0.00169655107992
C   -3.70251035970491     -3.52468154912026      0.00571878010666
C   -2.46764698511392     -2.82132596280400     -0.00632585824990
C   -0.01513347410770     -2.83314164539971     -0.00604426974092
C   -1.24712184122656     -3.53473217556300      0.00551968366725
C   1.20924506964357     -3.54791467864352      0.00805871345849
C   2.43733602215464     -2.84764173817541     -0.00608104485234
C   4.89430234377080     -2.86112296828604     -0.00526030478103
C   3.66461525504104     -3.56421984553201      0.00761911515957
C   6.12863901474565     -3.58258405771778      0.00096495711699
C   7.33967266469532     -2.85841330737039      0.00248018319869
H   -9.54144911125902     -1.17456346666430      0.00226083090216
H   9.52826186807155     -1.27691907390448      0.00197485379837
H   -8.31516504384864     -3.31814985321231      0.00729857188773
H   8.27915514249207     -3.40714078989363      0.00681973918158
C   -6.14499418870218     -4.92764727278338      0.00302254913999
C   -3.70678334799751     -4.94126171411716     -0.00679841894792
C   -4.95559005800169     -5.64349397349412      0.00116871569699
C   -2.48612132622665     -5.65478557440947      0.00614125209662
C   -1.25405833548005     -4.95612205000132     -0.00503435388927
C   1.20101257386816     -4.96928038819302     -0.00385322963129
C   -0.03033667441341     -5.66952030313900      0.00398997003238
C   3.65375010132847     -4.98074377541453     -0.00309522988330
C   2.42549269587528     -5.68117463552727      0.00628170066869
C   6.09196561781097     -4.99325796338655      0.00325918379042
C   4.89497644461045     -5.69634842095790      0.00202298796027
H   -7.08989238804069     -5.46699984223871      0.00742531082125
H   7.03105520920009     -5.54265853633254      0.00683896355417
C   -4.92354532219813     -7.07882109967734      0.00061394679214
C   -2.48534208823777     -7.08772807792913     -0.00189594564379
C   -3.75168589177895     -7.76394715763627     -0.00170126671874
C   -0.03794895698805     -7.09946487446944     -0.00168022049625
C   -1.27795610040136     -7.77290438466689     -0.00366491325785
C   2.40944432072629     -7.11402201200282     -0.00081701968533
C   1.19474993715296     -7.78618536556242     -0.00296931056689
C   4.84762105249800     -7.13126211057943      0.00168979497423
C   3.66847160587561     -7.80378799294376     -0.00065863938960
H   -5.86994035041618     -7.61383059804164      0.00215798365757
H   5.78824962538815     -7.67633218931421      0.00281691445618
H   -3.75352693944918     -8.85107156923607     -0.00353718114765
H   -1.28430440589466     -8.86087539249706     -0.00809229711623
H   1.18922157469537     -8.87416062058945     -0.00706194725726
H   3.65854661482387     -8.89086063405326     -0.00231318081200

    units angstrom      # Angstroms are the default
    no_reorient         # Geometry fixed, default
    symmetry c1         # C1 symmetry, default
}

set {
    scf_type DF         # Density fitting, faster than exact integrals
    freeze_core True    # Freeze core electrons
    basis jun-cc-pVDZ   # Jun-cc-pVDZ basis set, recommended for sSAPT0 in https://doi.org/10.1063/1.4867135
}

energy('ssapt0')        # Compute sSAPT0 energy, includes also SAPT0
--------------------------------------------------------------------------

  Memory set to  59.605 GiB by Python driver.

Scratch directory: /tmp/
   => Loading Basis Set <=

    Name: JUN-CC-PVDZ
    Role: ORBITAL
    Keyword: BASIS
    atoms 1-2, 4-5, 10, 17-34, 41-53, 56-70, 73-89, 92-104, 109-119, 122-130 entry C          line   164 file /opt/software/pc2/EB-SW/software/PSI4/1.9-foss-2022a/share/psi4/basis/jun-cc-pvdz.gbs 
    atoms 3, 6                                                               entry N          line   198 file /opt/software/pc2/EB-SW/software/PSI4/1.9-foss-2022a/share/psi4/basis/jun-cc-pvdz.gbs 
    atoms 7-9, 11-16, 35-40, 54-55, 71-72, 90-91, 105-108, 120-121, 131-136  entry H          line    36 file /opt/software/pc2/EB-SW/software/PSI4/1.9-foss-2022a/share/psi4/basis/jun-cc-pvdz.gbs 

   => Loading Basis Set <=

    Name: JUN-CC-PVDZ
    Role: ORBITAL
    Keyword: BASIS
    atoms 1-2, 4-5, 10, 17-34, 41-53, 56-70, 73-89, 92-104, 109-119, 122-130 entry C          line   164 file /opt/software/pc2/EB-SW/software/PSI4/1.9-foss-2022a/share/psi4/basis/jun-cc-pvdz.gbs 
    atoms 3, 6                                                               entry N          line   198 file /opt/software/pc2/EB-SW/software/PSI4/1.9-foss-2022a/share/psi4/basis/jun-cc-pvdz.gbs 
    atoms 7-9, 11-16, 35-40, 54-55, 71-72, 90-91, 105-108, 120-121, 131-136  entry H          line    36 file /opt/software/pc2/EB-SW/software/PSI4/1.9-foss-2022a/share/psi4/basis/jun-cc-pvdz.gbs 


  //>>>>>>>>>>>>>>>>>>>>>>>>>>>>>>>>>>>//
  //              Dimer HF             //
  //<<<<<<<<<<<<<<<<<<<<<<<<<<<<<<<<<<<//

   => Libint2 <=

    Primary   basis highest AM E, G, H:  5, 4, 3
    Auxiliary basis highest AM E, G, H:  6, 5, 4
    Onebody   basis highest AM E, G, H:  6, 5, 4
    Solid Harmonics ordering:            gaussian

*** tstart() called on n2cn1128
*** at Sat Jan 27 00:16:48 2024

   => Loading Basis Set <=

    Name: JUN-CC-PVDZ
    Role: ORBITAL
    Keyword: BASIS
    atoms 1-2, 4-5, 10, 17-34, 41-53, 56-70, 73-89, 92-104, 109-119, 122-130 entry C          line   164 file /opt/software/pc2/EB-SW/software/PSI4/1.9-foss-2022a/share/psi4/basis/jun-cc-pvdz.gbs 
    atoms 3, 6                                                               entry N          line   198 file /opt/software/pc2/EB-SW/software/PSI4/1.9-foss-2022a/share/psi4/basis/jun-cc-pvdz.gbs 
    atoms 7-9, 11-16, 35-40, 54-55, 71-72, 90-91, 105-108, 120-121, 131-136  entry H          line    36 file /opt/software/pc2/EB-SW/software/PSI4/1.9-foss-2022a/share/psi4/basis/jun-cc-pvdz.gbs 


         ---------------------------------------------------------
                                   SCF
               by Justin Turney, Rob Parrish, Andy Simmonett
                          and Daniel G. A. Smith
                              RHF Reference
                       16 Threads,  61035 MiB Core
         ---------------------------------------------------------

  ==> Geometry <==

    Molecular point group: c1
    Full point group: C1

    Geometry (in Angstrom), charge = 1, multiplicity = 1:

       Center              X                  Y                   Z               Mass       
    ------------   -----------------  -----------------  -----------------  -----------------
         C            0.680062820275     1.308604348936   -10.084008932179    12.000000000000
         C           -0.680508179725     1.310632348936   -10.083624932179    12.000000000000
         N           -1.085639179725     1.311630348936    -8.765300932179    14.003074004430
         C            0.000103820275     1.314906348936    -7.983899932179    12.000000000000
         C           -2.477369179725     1.361036348936    -8.297321932179    12.000000000000
         N            1.085217820275     1.311630348936    -8.765300932179    14.003074004430
         H            1.385141820275     1.300776348936   -10.901447932179     1.007825032230
         H           -1.385306179725     1.310442348936   -10.901293932179     1.007825032230
         H           -0.000013179725     1.316653348936    -6.902810932179     1.007825032230
         C            2.478112820275     1.294738348936    -8.300202932179    12.000000000000
         H            2.490587820275     1.322083348936    -7.209949932179     1.007825032230
         H            2.967023820275     0.381292348936    -8.647378932179     1.007825032230
         H            3.001423820275     2.170221348936    -8.691674932179     1.007825032230
         H           -2.857363179725     2.383107348936    -8.377280932179     1.007825032230
         H           -3.082683179725     0.690952348936    -8.910385932179     1.007825032230
         H           -2.518132179725     1.034052348936    -7.257373932179     1.007825032230
         C           -3.668445443746     7.695098519018     0.733820109157    12.000000000000
         C           -4.847602899072     7.022588180276     0.731453534224    12.000000000000
         C           -4.894963478901     5.587676752467     0.730880623126    12.000000000000
         C           -3.653744858499     4.872076689895     0.738541064855    12.000000000000
         C           -2.409429301220     7.005327385610     0.734014451417    12.000000000000
         C           -2.425481523830     5.572468299839     0.727009562547    12.000000000000
         C           -1.194748196161     7.677490543245     0.735486631959    12.000000000000
         C            0.037954849212     6.990767994693     0.733315927654    12.000000000000
         C            0.030328407694     5.560835908640     0.727832542738    12.000000000000
         C           -1.200988687630     4.860616696851     0.736802276671    12.000000000000
         C            1.277953646089     7.664205792130     0.734691776214    12.000000000000
         C            2.485353904999     6.979043234173     0.732417288310    12.000000000000
         C            2.486124505192     5.546117159176     0.725479539322    12.000000000000
         C            1.254078739919     4.847424462600     0.737107480910    12.000000000000
         C            3.751710411681     7.655258499916     0.732544139690    12.000000000000
         C            4.923561876460     6.970127125926     0.730487658982    12.000000000000
         C            4.955603091600     5.534793812305     0.730327246175    12.000000000000
         C            3.706797354479     4.832556557269     0.735418806345    12.000000000000
         H           -3.658525317484     8.782173768071     0.735505097407     1.007825032230
         H           -1.189217509482     8.765467436296     0.739458508400     1.007825032230
         H            1.284290059161     8.752179784424     0.738850600355     1.007825032230
         H            3.753537907074     8.742381627908     0.734066664006     1.007825032230
         H            5.869954523482     7.505141183591     0.729562291940     1.007825032230
         H           -5.788235887228     7.567648561870     0.729893686868     1.007825032230
         C           -6.091978138422     4.884606362579     0.729008382635    12.000000000000
         C           -6.128665660043     3.473926517734     0.730209559664    12.000000000000
         C           -3.664583919771     3.455528528680     0.727284465046    12.000000000000
         C           -4.894302384424     2.752427124836     0.736453450031    12.000000000000
         C           -2.437339174623     2.738958006020     0.739116243583    12.000000000000
         C           -1.209232037322     3.439233283914     0.725437216791    12.000000000000
         C            1.247137392437     3.426027100365     0.724628610385    12.000000000000
         C            0.015171859844     2.724458188241     0.736312793610    12.000000000000
         C            2.467640992715     2.712636326191     0.736412851734    12.000000000000
         C            3.702545294854     3.416006503360     0.722924890891    12.000000000000
         C            6.144976206658     4.818918715067     0.729093800963    12.000000000000
         C            6.166584179136     3.407930824878     0.731260354400    12.000000000000
         C            4.924605778734     2.699754274290     0.737799100637    12.000000000000
         H            7.089901329916     5.358234115159     0.725331920114     1.007825032230
         H           -7.031045930827     5.434034301793     0.724775167684     1.007825032230
         C           -7.339702220848     2.749757883515     0.728582392222    12.000000000000
         C           -7.364886137784     1.361669720519     0.730347930350    12.000000000000
         C           -4.903508788672     1.335773161096     0.725631666158    12.000000000000
         C           -6.132261332336     0.631285705989     0.737921710141    12.000000000000
         C           -3.676878980242     0.618043491609     0.736259382557    12.000000000000
         C           -2.445660765791     1.320987482198     0.725949672356    12.000000000000
         C           -1.223604861027     0.606670850570     0.737378936887    12.000000000000
         C            0.007633689588     1.308729498173     0.735844590605    12.000000000000
         C            1.231215628021     0.593463039523     0.717018004949    12.000000000000
         C            2.460816920806     1.294638385061     0.736522513840    12.000000000000
         C            3.684426074471     0.578544777148     0.735693727563    12.000000000000
         C            4.918704721813     1.283080910125     0.723291905927    12.000000000000
         C            7.369797898236     2.670828552120     0.729499934607    12.000000000000
         C            7.380158486396     1.282563856791     0.731046617453    12.000000000000
         C            6.139795359397     0.565464972136     0.737374959265    12.000000000000
         H           -8.279194979072     3.298464390060     0.724284840100     1.007825032230
         H            8.315109291754     3.209464445559     0.725289358808     1.007825032230
         C           -8.591760117307     0.616178901980     0.730688357967    12.000000000000
         C           -8.599028783429    -0.741293457293     0.732811482550    12.000000000000
         C           -6.139817318844    -0.782790288218     0.725822141215    12.000000000000
         C           -7.380188291863    -1.499919840646     0.733238202756    12.000000000000
         C           -4.918688659982    -1.500408669094     0.738162639364    12.000000000000
         C           -3.684442475410    -0.795890966800     0.727130399300    12.000000000000
         C           -2.460821219973    -1.511998829889     0.737673485489    12.000000000000
         C           -1.231166192046    -0.810827515945     0.725553106697    12.000000000000
         C           -0.007573805113    -1.526072500475     0.733009631001    12.000000000000
         C            1.223643536163    -0.823929028328     0.743015252950    12.000000000000
         C            2.445666469606    -1.538296940071     0.731265240190    12.000000000000
         C            3.676862523121    -0.835361082620     0.727124655795    12.000000000000
         C            6.132244666694    -0.848632490914     0.725596681582    12.000000000000
         C            4.903514965779    -1.553111171605     0.739437756123    12.000000000000
         C            8.599010668965     0.523950215603     0.730908733597    12.000000000000
         C            8.591741308375    -0.833504518258     0.732645113858    12.000000000000
         C            7.364858584664    -1.578986316670     0.732414937166    12.000000000000
         H           -9.528310151544     1.168193798128     0.729218431003     1.007825032230
         H            9.541406794881     1.065918837380     0.729856701336     1.007825032230
         C           -7.369842089494    -2.888198796998     0.735046411178    12.000000000000
         C           -4.924603288776    -2.917090908405     0.727314778742    12.000000000000
         C           -6.166626675393    -3.625305843890     0.733616618901    12.000000000000
         C           -3.702514539430    -3.633335200185     0.737638847928    12.000000000000
         C           -2.467651164839    -2.929979613868     0.725594209571    12.000000000000
         C           -0.015137653833    -2.941795296464     0.725875798080    12.000000000000
         C           -1.247126020952    -3.643385826627     0.737439751488    12.000000000000
         C            1.209240889918    -3.656568329708     0.739978781279    12.000000000000
         C            2.437331842429    -2.956295389240     0.725839022969    12.000000000000
         C            4.894298164045    -2.969776619350     0.726659763040    12.000000000000
         C            3.664611075316    -3.672873496596     0.739539182981    12.000000000000
         C            6.128634835020    -3.691237708782     0.732885024938    12.000000000000
         C            7.339668484970    -2.967066958435     0.734400251020    12.000000000000
         H           -9.541453290984    -1.283217117729     0.734180898723     1.007825032230
         H            9.528257688346    -1.385572724969     0.733894921619     1.007825032230
         H           -8.315169223574    -3.426803504277     0.739218639709     1.007825032230
         H            8.279150962767    -3.515794440958     0.738739807003     1.007825032230
         C           -6.144998368428    -5.036300923848     0.734942616961    12.000000000000
         C           -3.706787527723    -5.049915365182     0.725121648873    12.000000000000
         C           -4.955594237727    -5.752147624559     0.733088783518    12.000000000000
         C           -2.486125505952    -5.763439225474     0.738061319918    12.000000000000
         C           -1.254062515205    -5.064775701066     0.726885713932    12.000000000000
         C            1.201008394143    -5.077934039257     0.728066838190    12.000000000000
         C           -0.030340854139    -5.778173954203     0.735910037853    12.000000000000
         C            3.653745921603    -5.089397426479     0.728824837938    12.000000000000
         C            2.425488516150    -5.789828286592     0.738201768490    12.000000000000
         C            6.091961438086    -5.101911614451     0.735179251611    12.000000000000
         C            4.894972264885    -5.805002072022     0.733943055781    12.000000000000
         H           -7.089896567766    -5.575653493303     0.739345378642     1.007825032230
         H            7.031051029475    -5.651312187397     0.738759031375     1.007825032230
         C           -4.923549501924    -7.187474750742     0.732534014613    12.000000000000
         C           -2.485346267963    -7.196381728994     0.730024122177    12.000000000000
         C           -3.751690071504    -7.872600808701     0.730218801102    12.000000000000
         C           -0.037953136713    -7.208118525534     0.730239847325    12.000000000000
         C           -1.277960280127    -7.881558035731     0.728255154563    12.000000000000
         C            2.409440141001    -7.222675663067     0.731103048136    12.000000000000
         C            1.194745757428    -7.894839016627     0.728950757254    12.000000000000
         C            4.847616872773    -7.239915761644     0.733609862795    12.000000000000
         C            3.668467426150    -7.912441644008     0.731261428431    12.000000000000
         H           -5.869944530142    -7.722484249106     0.734078051479     1.007825032230
         H            5.788245445663    -7.784985840379     0.734736982277     1.007825032230
         H           -3.753531119175    -8.959725220301     0.728382886673     1.007825032230
         H           -1.284308585620    -8.969529043562     0.723827770705     1.007825032230
         H            1.189217394970    -8.982814271654     0.724858120564     1.007825032230
         H            3.658542435098    -8.999514285118     0.729606887009     1.007825032230

  Running in c1 symmetry.

  Rotational constants: A =      0.00052  B =      0.00052  C =      0.00035 [cm^-1]
  Rotational constants: A =     15.60772  B =     15.58779  C =     10.45880 [MHz]
  Nuclear repulsion = 17381.684289172317222

  Charge       = 1
  Multiplicity = 1
  Electrons    = 652
  Nalpha       = 326
  Nbeta        = 326

  ==> Algorithm <==

  SCF Algorithm Type is DF.
  DIIS enabled.
  MOM disabled.
  Fractional occupation disabled.
  Guess Type is SAD.
  Energy threshold   = 1.00e-08
  Density threshold  = 1.00e-08
  Integral threshold = 1.00e-12

  ==> Primary Basis <==

  Basis Set: JUN-CC-PVDZ
    Blend: JUN-CC-PVDZ
    Number of shells: 923
    Number of basis functions: 2019
    Number of Cartesian functions: 2122
    Spherical Harmonics?: true
    Max angular momentum: 2

   => Loading Basis Set <=

    Name: (JUN-CC-PVDZ AUX)
    Role: JKFIT
    Keyword: DF_BASIS_SCF
    atoms 1-2, 4-5, 10, 17-34, 41-53, 56-70, 73-89, 92-104, 109-119, 122-130 entry C          line   146 file /opt/software/pc2/EB-SW/software/PSI4/1.9-foss-2022a/share/psi4/basis/jun-cc-pvdz-jkfit.gbs 
    atoms 3, 6                                                               entry N          line   202 file /opt/software/pc2/EB-SW/software/PSI4/1.9-foss-2022a/share/psi4/basis/jun-cc-pvdz-jkfit.gbs 
    atoms 7-9, 11-16, 35-40, 54-55, 71-72, 90-91, 105-108, 120-121, 131-136  entry H          line    70 file /opt/software/pc2/EB-SW/software/PSI4/1.9-foss-2022a/share/psi4/basis/jun-cc-pvdz-jkfit.gbs 

  ==> Integral Setup <==

  ==> DiskDFJK: Density-Fitted J/K Matrices <==

    J tasked:                  Yes
    K tasked:                  Yes
    wK tasked:                  No
    OpenMP threads:             16
    Integrals threads:          16
    Memory [MiB]:            45776
    Algorithm:                Disk
    Integral Cache:           SAVE
    Schwarz Cutoff:          1E-12
    Fitting Condition:       1E-10

   => Auxiliary Basis Set <=

  Basis Set: (JUN-CC-PVDZ AUX)
    Blend: JUN-CC-PVDZ-JKFIT
    Number of shells: 3078
    Number of basis functions: 8896
    Number of Cartesian functions: 10198
    Spherical Harmonics?: true
    Max angular momentum: 3

  Minimum eigenvalue in the overlap matrix is 9.0525867499E-11.
  Reciprocal condition number of the overlap matrix is 3.9701860382E-12.
    Using canonical orthogonalization.
  Overall, 37 of 2019 possible MOs eliminated.


  ==> Pre-Iterations <==

  SCF Guess: Superposition of Atomic Densities via on-the-fly atomic UHF (no occupation information).

   -------------------------
    Irrep   Nso     Nmo    
   -------------------------
     A       2019    1982 
   -------------------------
    Total    2019    1982
   -------------------------

  ==> Iterations <==

                           Total Energy        Delta E     RMS |[F,P]|

   @DF-RHF iter SAD: -3967.13312417978068   -3.96713e+03   0.00000e+00 
   @DF-RHF iter   1: -3952.09173906642491    1.50414e+01   7.16501e-04 ADIIS/DIIS
   @DF-RHF iter   2: -3953.49027766475638   -1.39854e+00   2.33049e-04 ADIIS/DIIS
   @DF-RHF iter   3: -3953.61510234509478   -1.24825e-01   9.86054e-05 DIIS
   @DF-RHF iter   4: -3953.63712570391272   -2.20234e-02   4.06134e-05 DIIS
   @DF-RHF iter   5: -3953.64126797273275   -4.14227e-03   9.89809e-06 DIIS
   @DF-RHF iter   6: -3953.64168212991262   -4.14157e-04   4.57003e-06 DIIS
   @DF-RHF iter   7: -3953.64186150912246   -1.79379e-04   2.20009e-06 DIIS
   @DF-RHF iter   8: -3953.64192183019622   -6.03211e-05   1.11257e-06 DIIS
   @DF-RHF iter   9: -3953.64193909826417   -1.72681e-05   3.55314e-07 DIIS
   @DF-RHF iter  10: -3953.64194027120766   -1.17294e-06   1.46112e-07 DIIS
   @DF-RHF iter  11: -3953.64194042266445   -1.51457e-07   5.95236e-08 DIIS
   @DF-RHF iter  12: -3953.64194045504337   -3.23789e-08   2.94744e-08 DIIS
   @DF-RHF iter  13: -3953.64194046150169   -6.45832e-09   9.38855e-09 DIIS
  Energy and wave function converged.


  ==> Post-Iterations <==

    Orbital Energies [Eh]
    ---------------------

    Doubly Occupied:                                                      

       1A    -15.826698     2A    -15.826172     3A    -11.521488  
       4A    -11.452577     5A    -11.451023     6A    -11.441503  
       7A    -11.441397     8A    -11.310633     9A    -11.310123  
      10A    -11.310009    11A    -11.309704    12A    -11.309678  
      13A    -11.309574    14A    -11.309214    15A    -11.309051  
      16A    -11.309025    17A    -11.308858    18A    -11.308707  
      19A    -11.308519    20A    -11.308485    21A    -11.308322  
      22A    -11.308278    23A    -11.308126    24A    -11.308047  
      25A    -11.307814    26A    -11.307778    27A    -11.307554  
      28A    -11.307532    29A    -11.307466    30A    -11.307413  
      31A    -11.307309    32A    -11.307176    33A    -11.307173  
      34A    -11.306828    35A    -11.306799    36A    -11.306765  
      37A    -11.306760    38A    -11.306637    39A    -11.306338  
      40A    -11.306318    41A    -11.306252    42A    -11.306250  
      43A    -11.306166    44A    -11.306147    45A    -11.305883  
      46A    -11.305865    47A    -11.305732    48A    -11.305719  
      49A    -11.305487    50A    -11.305432    51A    -11.305413  
      52A    -11.305315    53A    -11.305176    54A    -11.305174  
      55A    -11.305158    56A    -11.305145    57A    -11.304871  
      58A    -11.304853    59A    -11.304834    60A    -11.304560  
      61A    -11.304499    62A    -11.304485    63A    -11.304308  
      64A    -11.304295    65A    -11.304256    66A    -11.304241  
      67A    -11.304238    68A    -11.304230    69A    -11.303880  
      70A    -11.303862    71A    -11.303467    72A    -11.303455  
      73A    -11.303317    74A    -11.303311    75A    -11.303201  
      76A    -11.303196    77A    -11.302751    78A    -11.302467  
      79A    -11.302438    80A    -11.298199    81A    -11.298122  
      82A    -11.298069    83A    -11.298048    84A    -11.297993  
      85A    -11.297972    86A    -11.297475    87A    -11.297447  
      88A    -11.297042    89A    -11.297027    90A    -11.296949  
      91A    -11.296925    92A    -11.296543    93A    -11.296522  
      94A    -11.296322    95A    -11.296314    96A    -11.296173  
      97A    -11.296091    98A    -11.295627    99A    -11.295624  
     100A    -11.295478   101A    -11.295452   102A    -11.294155  
     103A    -11.294153   104A     -1.570408   105A     -1.425932  
     106A     -1.299891   107A     -1.284243   108A     -1.284178  
     109A     -1.265211   110A     -1.265207   111A     -1.260703  
     112A     -1.245353   113A     -1.240165   114A     -1.233258  
     115A     -1.233208   116A     -1.230984   117A     -1.217950  
     118A     -1.217946   119A     -1.200572   120A     -1.200563  
     121A     -1.197699   122A     -1.188761   123A     -1.188756  
     124A     -1.181323   125A     -1.173100   126A     -1.159619  
     127A     -1.157403   128A     -1.157353   129A     -1.157130  
     130A     -1.155517   131A     -1.132881   132A     -1.132867  
     133A     -1.120880   134A     -1.120876   135A     -1.112312  
     136A     -1.112305   137A     -1.110846   138A     -1.109829  
     139A     -1.091114   140A     -1.091098   141A     -1.084759  
     142A     -1.082646   143A     -1.082644   144A     -1.070170  
     145A     -1.066678   146A     -1.066665   147A     -1.051472  
     148A     -1.051246   149A     -1.048077   150A     -1.045093  
     151A     -1.045071   152A     -1.034789   153A     -1.015469  
     154A     -1.015453   155A     -1.014864   156A     -0.999917  
     157A     -0.999888   158A     -0.989060   159A     -0.950754  
     160A     -0.950692   161A     -0.949691   162A     -0.949173  
     163A     -0.949151   164A     -0.937526   165A     -0.937462  
     166A     -0.935299   167A     -0.935141   168A     -0.934023  
     169A     -0.916093   170A     -0.912348   171A     -0.909113  
     172A     -0.895598   173A     -0.892634   174A     -0.892555  
     175A     -0.890395   176A     -0.887577   177A     -0.878750  
     178A     -0.878746   179A     -0.871753   180A     -0.871752  
     181A     -0.842635   182A     -0.829081   183A     -0.829030  
     184A     -0.827637   185A     -0.827599   186A     -0.826990  
     187A     -0.826509   188A     -0.826262   189A     -0.811387  
     190A     -0.808634   191A     -0.805745   192A     -0.805073  
     193A     -0.795088   194A     -0.782394   195A     -0.778245  
     196A     -0.777213   197A     -0.774307   198A     -0.771393  
     199A     -0.771351   200A     -0.769400   201A     -0.768869  
     202A     -0.768846   203A     -0.763202   204A     -0.758345  
     205A     -0.758335   206A     -0.743477   207A     -0.743470  
     208A     -0.730730   209A     -0.729927   210A     -0.729923  
     211A     -0.726324   212A     -0.726316   213A     -0.722967  
     214A     -0.721510   215A     -0.717630   216A     -0.709153  
     217A     -0.697415   218A     -0.694963   219A     -0.694903  
     220A     -0.694315   221A     -0.694286   222A     -0.693423  
     223A     -0.685393   224A     -0.685373   225A     -0.684132  
     226A     -0.683156   227A     -0.680330   228A     -0.680319  
     229A     -0.673322   230A     -0.663924   231A     -0.658981  
     232A     -0.658974   233A     -0.652877   234A     -0.652859  
     235A     -0.644439   236A     -0.644383   237A     -0.643269  
     238A     -0.643158   239A     -0.642857   240A     -0.642641  
     241A     -0.639090   242A     -0.639024   243A     -0.638871  
     244A     -0.638661   245A     -0.635965   246A     -0.635939  
     247A     -0.632207   248A     -0.621124   249A     -0.621121  
     250A     -0.620452   251A     -0.620449   252A     -0.617391  
     253A     -0.614874   254A     -0.612715   255A     -0.612669  
     256A     -0.610708   257A     -0.610660   258A     -0.604194  
     259A     -0.603013   260A     -0.603012   261A     -0.601917  
     262A     -0.598595   263A     -0.594842   264A     -0.590589  
     265A     -0.588833   266A     -0.588510   267A     -0.580147  
     268A     -0.580109   269A     -0.577498   270A     -0.577443  
     271A     -0.572488   272A     -0.571961   273A     -0.571957  
     274A     -0.561314   275A     -0.561235   276A     -0.559475  
     277A     -0.559464   278A     -0.553340   279A     -0.553328  
     280A     -0.542167   281A     -0.540689   282A     -0.540679  
     283A     -0.538751   284A     -0.538738   285A     -0.534472  
     286A     -0.525149   287A     -0.521348   288A     -0.521343  
     289A     -0.517942   290A     -0.516417   291A     -0.514084  
     292A     -0.510814   293A     -0.510779   294A     -0.503316  
     295A     -0.491698   296A     -0.491610   297A     -0.485977  
     298A     -0.485730   299A     -0.485645   300A     -0.478451  
     301A     -0.477739   302A     -0.451815   303A     -0.451802  
     304A     -0.431276   305A     -0.431265   306A     -0.429468  
     307A     -0.429449   308A     -0.428708   309A     -0.398690  
     310A     -0.398663   311A     -0.395012   312A     -0.383703  
     313A     -0.381355   314A     -0.381323   315A     -0.376461  
     316A     -0.376428   317A     -0.352141   318A     -0.346830  
     319A     -0.346808   320A     -0.344970   321A     -0.330360  
     322A     -0.299744   323A     -0.298315   324A     -0.298290  
     325A     -0.248460   326A     -0.248428  

    Virtual:                                                              

     327A     -0.060673   328A     -0.055682   329A     -0.055571  
     330A     -0.054472   331A     -0.046960   332A     -0.042070  
     333A     -0.024511   334A     -0.021581   335A     -0.019825  
     336A     -0.018532   337A     -0.009633   338A     -0.009550  
     339A     -0.003570   340A      0.001976   341A      0.004126  
     342A      0.006165   343A      0.006394   344A      0.006897  
     345A      0.008980   346A      0.009426   347A      0.010486  
     348A      0.010843   349A      0.014180   350A      0.014962  
     351A      0.017552   352A      0.018802   353A      0.021889  
     354A      0.022207   355A      0.024495   356A      0.024699  
     357A      0.025492   358A      0.025580   359A      0.028920  
     360A      0.029895   361A      0.034889   362A      0.035046  
     363A      0.035582   364A      0.035828   365A      0.035878  
     366A      0.036503   367A      0.039913   368A      0.041783  
     369A      0.042194   370A      0.043343   371A      0.044176  
     372A      0.045694   373A      0.045941   374A      0.047532  
     375A      0.047859   376A      0.051181   377A      0.054115  
     378A      0.059143   379A      0.060197   380A      0.060474  
     381A      0.060564   382A      0.062248   383A      0.062610  
     384A      0.063253   385A      0.063736   386A      0.065920  
     387A      0.066265   388A      0.069264   389A      0.069320  
     390A      0.070327   391A      0.070655   392A      0.070761  
     393A      0.075096   394A      0.075352   395A      0.076129  
     396A      0.077781   397A      0.078032   398A      0.078646  
     399A      0.080228   400A      0.080378   401A      0.084489  
     402A      0.087430   403A      0.088230   404A      0.090122  
     405A      0.090386   406A      0.090806   407A      0.091674  
     408A      0.092866   409A      0.095590   410A      0.095706  
     411A      0.100018   412A      0.100151   413A      0.102120  
     414A      0.102272   415A      0.103559   416A      0.104975  
     417A      0.108027   418A      0.108656   419A      0.110986  
     420A      0.111264   421A      0.112393   422A      0.112562  
     423A      0.112599   424A      0.113269   425A      0.116176  
     426A      0.116821   427A      0.116869   428A      0.117059  
     429A      0.120227   430A      0.120849   431A      0.125842  
     432A      0.125962   433A      0.126847   434A      0.126865  
     435A      0.127658   436A      0.128809   437A      0.131890  
     438A      0.134559   439A      0.134635   440A      0.134912  
     441A      0.136182   442A      0.137692   443A      0.137732  
     444A      0.137897   445A      0.137927   446A      0.139963  
     447A      0.144679   448A      0.145385   449A      0.146407  
     450A      0.147350   451A      0.147676   452A      0.147964  
     453A      0.148321   454A      0.148425   455A      0.149866  
     456A      0.156901   457A      0.158639   458A      0.158690  
     459A      0.159909   460A      0.160254   461A      0.160666  
     462A      0.161579   463A      0.161804   464A      0.162298  
     465A      0.163709   466A      0.164639   467A      0.165180  
     468A      0.165780   469A      0.165863   470A      0.166257  
     471A      0.167632   472A      0.167976   473A      0.168070  
     474A      0.168219   475A      0.170993   476A      0.171835  
     477A      0.173703   478A      0.174056   479A      0.174191  
     480A      0.175490   481A      0.178950   482A      0.179143  
     483A      0.179788   484A      0.180107   485A      0.181936  
     486A      0.181993   487A      0.182583   488A      0.184399  
     489A      0.185881   490A      0.185994   491A      0.187598  
     492A      0.188608   493A      0.189457   494A      0.190030  
     495A      0.191412   496A      0.191786   497A      0.192584  
     498A      0.194260   499A      0.194606   500A      0.196708  
     501A      0.197310   502A      0.197441   503A      0.198138  
     504A      0.198701   505A      0.199686   506A      0.199958  
     507A      0.200318   508A      0.200714   509A      0.203740  
     510A      0.203843   511A      0.205863   512A      0.208032  
     513A      0.209492   514A      0.212690   515A      0.212965  
     516A      0.214236   517A      0.216877   518A      0.217207  
     519A      0.217339   520A      0.217394   521A      0.218742  
     522A      0.219945   523A      0.220379   524A      0.221176  
     525A      0.223476   526A      0.223597   527A      0.224487  
     528A      0.224566   529A      0.227390   530A      0.227458  
     531A      0.230001   532A      0.230528   533A      0.231609  
     534A      0.233414   535A      0.235047   536A      0.235123  
     537A      0.236136   538A      0.236228   539A      0.236462  
     540A      0.236624   541A      0.237660   542A      0.240114  
     543A      0.240889   544A      0.242642   545A      0.243271  
     546A      0.244293   547A      0.244391   548A      0.247006  
     549A      0.248175   550A      0.248602   551A      0.251463  
     552A      0.253009   553A      0.253345   554A      0.254453  
     555A      0.257367   556A      0.259166   557A      0.259369  
     558A      0.259518   559A      0.259654   560A      0.260118  
     561A      0.263800   562A      0.264056   563A      0.264272  
     564A      0.265766   565A      0.265883   566A      0.267283  
     567A      0.270770   568A      0.271030   569A      0.271249  
     570A      0.273014   571A      0.273091   572A      0.273919  
     573A      0.274930   574A      0.275073   575A      0.275397  
     576A      0.276166   577A      0.277653   578A      0.278326  
     579A      0.278718   580A      0.279991   581A      0.280074  
     582A      0.280722   583A      0.281123   584A      0.283621  
     585A      0.283823   586A      0.284410   587A      0.284524  
     588A      0.285550   589A      0.286060   590A      0.288588  
     591A      0.289706   592A      0.290104   593A      0.290632  
     594A      0.291867   595A      0.292481   596A      0.296421  
     597A      0.296461   598A      0.297937   599A      0.298399  
     600A      0.298517   601A      0.300112   602A      0.300958  
     603A      0.301289   604A      0.304025   605A      0.304484  
     606A      0.305727   607A      0.306840   608A      0.306916  
     609A      0.306991   610A      0.307685   611A      0.308822  
     612A      0.309573   613A      0.311460   614A      0.312194  
     615A      0.312929   616A      0.314465   617A      0.319959  
     618A      0.319989   619A      0.321698   620A      0.321843  
     621A      0.323723   622A      0.325055   623A      0.325692  
     624A      0.326376   625A      0.327889   626A      0.328636  
     627A      0.330448   628A      0.330751   629A      0.333853  
     630A      0.334448   631A      0.335476   632A      0.337227  
     633A      0.337369   634A      0.337512   635A      0.337740  
     636A      0.339694   637A      0.339776   638A      0.340261  
     639A      0.341275   640A      0.341728   641A      0.344357  
     642A      0.344478   643A      0.347942   644A      0.348844  
     645A      0.350218   646A      0.350395   647A      0.352476  
     648A      0.353039   649A      0.353313   650A      0.353561  
     651A      0.353940   652A      0.354050   653A      0.355228  
     654A      0.355471   655A      0.355605   656A      0.357137  
     657A      0.357654   658A      0.358144   659A      0.358801  
     660A      0.361477   661A      0.361517   662A      0.361652  
     663A      0.361708   664A      0.363074   665A      0.364443  
     666A      0.364611   667A      0.366599   668A      0.366677  
     669A      0.367552   670A      0.369263   671A      0.369724  
     672A      0.370775   673A      0.371765   674A      0.372112  
     675A      0.372957   676A      0.373258   677A      0.373688  
     678A      0.374538   679A      0.375044   680A      0.378512  
     681A      0.379701   682A      0.380020   683A      0.384620  
     684A      0.384807   685A      0.385696   686A      0.385724  
     687A      0.387172   688A      0.387286   689A      0.389203  
     690A      0.389448   691A      0.389700   692A      0.390278  
     693A      0.390378   694A      0.391258   695A      0.391352  
     696A      0.393284   697A      0.393403   698A      0.395854  
     699A      0.396445   700A      0.396507   701A      0.397448  
     702A      0.399774   703A      0.406581   704A      0.406671  
     705A      0.407134   706A      0.408734   707A      0.408798  
     708A      0.409526   709A      0.410134   710A      0.411270  
     711A      0.411845   712A      0.412158   713A      0.412234  
     714A      0.412402   715A      0.414300   716A      0.415578  
     717A      0.416998   718A      0.417641   719A      0.419496  
     720A      0.419889   721A      0.422155   722A      0.422670  
     723A      0.424106   724A      0.424921   725A      0.425135  
     726A      0.426004   727A      0.426673   728A      0.427313  
     729A      0.431799   730A      0.431909   731A      0.432261  
     732A      0.432438   733A      0.433687   734A      0.434935  
     735A      0.436596   736A      0.436900   737A      0.437096  
     738A      0.437284   739A      0.438023   740A      0.440171  
     741A      0.441017   742A      0.441663   743A      0.441832  
     744A      0.442756   745A      0.447342   746A      0.447889  
     747A      0.448098   748A      0.448346   749A      0.449010  
     750A      0.449981   751A      0.450602   752A      0.452985  
     753A      0.453176   754A      0.456531   755A      0.459044  
     756A      0.459535   757A      0.460355   758A      0.460616  
     759A      0.461608   760A      0.462115   761A      0.463490  
     762A      0.463848   763A      0.463913   764A      0.471199  
     765A      0.471232   766A      0.473609   767A      0.474468  
     768A      0.474595   769A      0.474910   770A      0.475101  
     771A      0.476151   772A      0.477999   773A      0.479435  
     774A      0.479971   775A      0.480645   776A      0.486446  
     777A      0.489585   778A      0.490473   779A      0.490652  
     780A      0.493084   781A      0.493950   782A      0.494148  
     783A      0.496145   784A      0.496229   785A      0.501107  
     786A      0.502133   787A      0.502274   788A      0.506035  
     789A      0.509130   790A      0.512571   791A      0.515481  
     792A      0.515515   793A      0.517485   794A      0.518468  
     795A      0.518718   796A      0.523898   797A      0.524036  
     798A      0.524661   799A      0.528569   800A      0.529747  
     801A      0.530475   802A      0.530740   803A      0.531295  
     804A      0.532278   805A      0.533747   806A      0.534470  
     807A      0.534707   808A      0.535766   809A      0.536943  
     810A      0.539193   811A      0.544376   812A      0.545195  
     813A      0.545734   814A      0.546183   815A      0.546303  
     816A      0.550959   817A      0.551391   818A      0.553680  
     819A      0.555195   820A      0.555298   821A      0.558079  
     822A      0.559163   823A      0.560374   824A      0.561006  
     825A      0.561648   826A      0.568466   827A      0.570245  
     828A      0.574003   829A      0.575132   830A      0.575669  
     831A      0.576577   832A      0.576788   833A      0.578107  
     834A      0.580226   835A      0.586996   836A      0.587715  
     837A      0.588510   838A      0.588619   839A      0.596103  
     840A      0.596699   841A      0.602418   842A      0.610453  
     843A      0.611675   844A      0.611823   845A      0.613685  
     846A      0.615662   847A      0.615785   848A      0.616137  
     849A      0.616206   850A      0.622391   851A      0.624518  
     852A      0.624533   853A      0.629528   854A      0.632167  
     855A      0.636079   856A      0.640736   857A      0.641137  
     858A      0.644526   859A      0.644794   860A      0.646196  
     861A      0.646929   862A      0.647705   863A      0.647977  
     864A      0.648457   865A      0.652996   866A      0.656134  
     867A      0.656863   868A      0.657662   869A      0.657870  
     870A      0.658501   871A      0.663648   872A      0.663972  
     873A      0.666868   874A      0.667318   875A      0.675642  
     876A      0.676204   877A      0.677798   878A      0.684698  
     879A      0.686642   880A      0.689165   881A      0.690366  
     882A      0.695514   883A      0.697137   884A      0.697727  
     885A      0.698558   886A      0.701231   887A      0.701624  
     888A      0.703130   889A      0.703951   890A      0.706887  
     891A      0.707038   892A      0.710103   893A      0.716414  
     894A      0.725064   895A      0.728143   896A      0.737898  
     897A      0.740112   898A      0.742607   899A      0.744727  
     900A      0.744801   901A      0.748239   902A      0.748909  
     903A      0.750742   904A      0.751404   905A      0.755131  
     906A      0.757359   907A      0.757708   908A      0.759863  
     909A      0.760179   910A      0.762468   911A      0.763262  
     912A      0.766918   913A      0.770152   914A      0.770757  
     915A      0.771458   916A      0.772702   917A      0.773823  
     918A      0.774851   919A      0.782207   920A      0.782558  
     921A      0.783626   922A      0.784730   923A      0.787518  
     924A      0.789046   925A      0.790533   926A      0.791527  
     927A      0.792413   928A      0.792734   929A      0.793280  
     930A      0.795722   931A      0.796945   932A      0.799458  
     933A      0.801128   934A      0.802986   935A      0.806434  
     936A      0.809552   937A      0.810878   938A      0.813125  
     939A      0.815309   940A      0.816120   941A      0.816967  
     942A      0.818660   943A      0.819758   944A      0.821048  
     945A      0.822811   946A      0.823700   947A      0.824688  
     948A      0.825255   949A      0.825537   950A      0.825688  
     951A      0.827235   952A      0.830791   953A      0.831872  
     954A      0.834050   955A      0.835139   956A      0.837033  
     957A      0.837269   958A      0.842419   959A      0.843029  
     960A      0.843643   961A      0.845851   962A      0.846214  
     963A      0.847220   964A      0.848399   965A      0.850798  
     966A      0.854443   967A      0.854931   968A      0.855782  
     969A      0.856582   970A      0.859527   971A      0.863275  
     972A      0.863365   973A      0.868453   974A      0.872031  
     975A      0.872538   976A      0.872907   977A      0.874082  
     978A      0.876604   979A      0.877726   980A      0.878077  
     981A      0.878294   982A      0.878751   983A      0.881824  
     984A      0.883711   985A      0.885046   986A      0.887200  
     987A      0.889203   988A      0.889352   989A      0.889905  
     990A      0.890346   991A      0.894039   992A      0.894413  
     993A      0.894723   994A      0.899612   995A      0.900762  
     996A      0.904622   997A      0.905451   998A      0.906341  
     999A      0.906921  1000A      0.907130  1001A      0.907976  
    1002A      0.909008  1003A      0.909444  1004A      0.909736  
    1005A      0.912567  1006A      0.913150  1007A      0.913272  
    1008A      0.913940  1009A      0.915170  1010A      0.921754  
    1011A      0.922608  1012A      0.924384  1013A      0.924731  
    1014A      0.927230  1015A      0.930117  1016A      0.937976  
    1017A      0.938905  1018A      0.939423  1019A      0.945544  
    1020A      0.948920  1021A      0.949777  1022A      0.950327  
    1023A      0.950413  1024A      0.951231  1025A      0.956007  
    1026A      0.956813  1027A      0.956897  1028A      0.958446  
    1029A      0.960949  1030A      0.961136  1031A      0.961763  
    1032A      0.962322  1033A      0.965569  1034A      0.969400  
    1035A      0.970844  1036A      0.971551  1037A      0.972801  
    1038A      0.975432  1039A      0.975608  1040A      0.977041  
    1041A      0.977136  1042A      0.979048  1043A      0.980728  
    1044A      0.985756  1045A      0.986440  1046A      0.987094  
    1047A      0.989311  1048A      0.991917  1049A      0.992225  
    1050A      0.992685  1051A      1.000811  1052A      1.000877  
    1053A      1.002475  1054A      1.002710  1055A      1.003010  
    1056A      1.003574  1057A      1.003845  1058A      1.004319  
    1059A      1.007833  1060A      1.008524  1061A      1.008783  
    1062A      1.010184  1063A      1.010195  1064A      1.013953  
    1065A      1.016289  1066A      1.016370  1067A      1.016852  
    1068A      1.019910  1069A      1.019971  1070A      1.020477  
    1071A      1.022724  1072A      1.022857  1073A      1.023033  
    1074A      1.023629  1075A      1.024536  1076A      1.024959  
    1077A      1.025903  1078A      1.026628  1079A      1.027344  
    1080A      1.027552  1081A      1.027818  1082A      1.028085  
    1083A      1.028585  1084A      1.029551  1085A      1.030911  
    1086A      1.031297  1087A      1.031706  1088A      1.032641  
    1089A      1.033143  1090A      1.033531  1091A      1.034151  
    1092A      1.034801  1093A      1.035229  1094A      1.035787  
    1095A      1.036196  1096A      1.036509  1097A      1.036840  
    1098A      1.037263  1099A      1.037464  1100A      1.037507  
    1101A      1.039021  1102A      1.040315  1103A      1.041638  
    1104A      1.042694  1105A      1.045320  1106A      1.045444  
    1107A      1.049234  1108A      1.052595  1109A      1.053774  
    1110A      1.053832  1111A      1.055035  1112A      1.056225  
    1113A      1.057046  1114A      1.057441  1115A      1.057924  
    1116A      1.060126  1117A      1.066022  1118A      1.066912  
    1119A      1.068786  1120A      1.072438  1121A      1.074919  
    1122A      1.076591  1123A      1.077022  1124A      1.078175  
    1125A      1.084377  1126A      1.084522  1127A      1.085805  
    1128A      1.087327  1129A      1.089591  1130A      1.089823  
    1131A      1.090671  1132A      1.093646  1133A      1.093814  
    1134A      1.094856  1135A      1.098078  1136A      1.098249  
    1137A      1.101235  1138A      1.101932  1139A      1.102920  
    1140A      1.103393  1141A      1.106060  1142A      1.106964  
    1143A      1.107673  1144A      1.108029  1145A      1.110629  
    1146A      1.113263  1147A      1.113321  1148A      1.116090  
    1149A      1.118871  1150A      1.119626  1151A      1.124080  
    1152A      1.125745  1153A      1.126639  1154A      1.131915  
    1155A      1.132025  1156A      1.133107  1157A      1.136909  
    1158A      1.140629  1159A      1.140679  1160A      1.142055  
    1161A      1.143519  1162A      1.146498  1163A      1.148166  
    1164A      1.148459  1165A      1.149498  1166A      1.157000  
    1167A      1.158041  1168A      1.158542  1169A      1.158756  
    1170A      1.160998  1171A      1.161086  1172A      1.161888  
    1173A      1.167157  1174A      1.169154  1175A      1.169374  
    1176A      1.171207  1177A      1.172062  1178A      1.173304  
    1179A      1.174983  1180A      1.177902  1181A      1.178857  
    1182A      1.179441  1183A      1.183709  1184A      1.189453  
    1185A      1.189988  1186A      1.203874  1187A      1.204320  
    1188A      1.204383  1189A      1.208296  1190A      1.209143  
    1191A      1.210908  1192A      1.215349  1193A      1.218100  
    1194A      1.218315  1195A      1.220615  1196A      1.223680  
    1197A      1.223972  1198A      1.224750  1199A      1.227024  
    1200A      1.228507  1201A      1.240847  1202A      1.240977  
    1203A      1.243062  1204A      1.246430  1205A      1.246919  
    1206A      1.249607  1207A      1.250932  1208A      1.251030  
    1209A      1.252522  1210A      1.257361  1211A      1.259078  
    1212A      1.261757  1213A      1.261791  1214A      1.264399  
    1215A      1.265131  1216A      1.266910  1217A      1.268557  
    1218A      1.269856  1219A      1.270390  1220A      1.275793  
    1221A      1.275898  1222A      1.276307  1223A      1.276540  
    1224A      1.278421  1225A      1.278737  1226A      1.282474  
    1227A      1.282581  1228A      1.285003  1229A      1.286905  
    1230A      1.287499  1231A      1.291517  1232A      1.291666  
    1233A      1.296326  1234A      1.296487  1235A      1.297945  
    1236A      1.301143  1237A      1.302022  1238A      1.303086  
    1239A      1.312262  1240A      1.312390  1241A      1.313250  
    1242A      1.314103  1243A      1.316537  1244A      1.319302  
    1245A      1.319389  1246A      1.323022  1247A      1.323968  
    1248A      1.325176  1249A      1.326305  1250A      1.328216  
    1251A      1.328822  1252A      1.330511  1253A      1.342776  
    1254A      1.343172  1255A      1.346205  1256A      1.349887  
    1257A      1.350304  1258A      1.350840  1259A      1.351013  
    1260A      1.352436  1261A      1.356080  1262A      1.360678  
    1263A      1.360972  1264A      1.363784  1265A      1.363905  
    1266A      1.364089  1267A      1.367900  1268A      1.368241  
    1269A      1.368806  1270A      1.370100  1271A      1.376369  
    1272A      1.376598  1273A      1.378981  1274A      1.379825  
    1275A      1.382043  1276A      1.382352  1277A      1.382449  
    1278A      1.382752  1279A      1.385694  1280A      1.385817  
    1281A      1.389687  1282A      1.390602  1283A      1.392164  
    1284A      1.394486  1285A      1.394888  1286A      1.397663  
    1287A      1.403659  1288A      1.404626  1289A      1.405083  
    1290A      1.406320  1291A      1.407263  1292A      1.408434  
    1293A      1.409269  1294A      1.419203  1295A      1.419428  
    1296A      1.424422  1297A      1.425040  1298A      1.425982  
    1299A      1.427041  1300A      1.427175  1301A      1.429558  
    1302A      1.434487  1303A      1.439672  1304A      1.440069  
    1305A      1.441292  1306A      1.447120  1307A      1.452394  
    1308A      1.452399  1309A      1.454267  1310A      1.459422  
    1311A      1.461376  1312A      1.461619  1313A      1.470642  
    1314A      1.472277  1315A      1.472743  1316A      1.485351  
    1317A      1.495170  1318A      1.496012  1319A      1.496245  
    1320A      1.502722  1321A      1.509087  1322A      1.509143  
    1323A      1.510794  1324A      1.524099  1325A      1.539302  
    1326A      1.549061  1327A      1.549085  1328A      1.554279  
    1329A      1.557919  1330A      1.559861  1331A      1.560742  
    1332A      1.561169  1333A      1.562702  1334A      1.563412  
    1335A      1.566270  1336A      1.566740  1337A      1.567052  
    1338A      1.569714  1339A      1.570215  1340A      1.570879  
    1341A      1.571139  1342A      1.571769  1343A      1.572807  
    1344A      1.575236  1345A      1.575428  1346A      1.576169  
    1347A      1.577138  1348A      1.579745  1349A      1.581829  
    1350A      1.582479  1351A      1.586480  1352A      1.587122  
    1353A      1.590398  1354A      1.590595  1355A      1.591113  
    1356A      1.591769  1357A      1.593601  1358A      1.594124  
    1359A      1.594421  1360A      1.595508  1361A      1.596281  
    1362A      1.596450  1363A      1.598857  1364A      1.601049  
    1365A      1.607478  1366A      1.607631  1367A      1.608134  
    1368A      1.611572  1369A      1.611972  1370A      1.612232  
    1371A      1.612481  1372A      1.620209  1373A      1.620440  
    1374A      1.623697  1375A      1.623937  1376A      1.624169  
    1377A      1.624758  1378A      1.624855  1379A      1.626276  
    1380A      1.626889  1381A      1.632239  1382A      1.632869  
    1383A      1.633446  1384A      1.634181  1385A      1.643423  
    1386A      1.644731  1387A      1.648442  1388A      1.651489  
    1389A      1.651779  1390A      1.652044  1391A      1.653138  
    1392A      1.655173  1393A      1.665016  1394A      1.665180  
    1395A      1.665789  1396A      1.667945  1397A      1.670390  
    1398A      1.671760  1399A      1.671804  1400A      1.674887  
    1401A      1.676557  1402A      1.676747  1403A      1.678041  
    1404A      1.678314  1405A      1.680161  1406A      1.681031  
    1407A      1.687303  1408A      1.692196  1409A      1.693732  
    1410A      1.694738  1411A      1.701802  1412A      1.703676  
    1413A      1.703793  1414A      1.705586  1415A      1.706315  
    1416A      1.719417  1417A      1.721090  1418A      1.724072  
    1419A      1.735783  1420A      1.738142  1421A      1.741637  
    1422A      1.743451  1423A      1.743681  1424A      1.752625  
    1425A      1.755746  1426A      1.758217  1427A      1.758451  
    1428A      1.763313  1429A      1.764938  1430A      1.774401  
    1431A      1.778131  1432A      1.779302  1433A      1.782433  
    1434A      1.783189  1435A      1.783641  1436A      1.785507  
    1437A      1.786086  1438A      1.786866  1439A      1.788539  
    1440A      1.788955  1441A      1.792156  1442A      1.792609  
    1443A      1.792880  1444A      1.793591  1445A      1.799878  
    1446A      1.801388  1447A      1.811742  1448A      1.812161  
    1449A      1.812216  1450A      1.815698  1451A      1.816171  
    1452A      1.816418  1453A      1.818841  1454A      1.818972  
    1455A      1.821015  1456A      1.821332  1457A      1.823706  
    1458A      1.825951  1459A      1.826572  1460A      1.828650  
    1461A      1.828857  1462A      1.831222  1463A      1.837112  
    1464A      1.837981  1465A      1.838952  1466A      1.839653  
    1467A      1.839695  1468A      1.840377  1469A      1.841204  
    1470A      1.842072  1471A      1.845152  1472A      1.845805  
    1473A      1.850479  1474A      1.859036  1475A      1.859195  
    1476A      1.860954  1477A      1.861270  1478A      1.863072  
    1479A      1.866637  1480A      1.870907  1481A      1.871372  
    1482A      1.872301  1483A      1.874378  1484A      1.876777  
    1485A      1.877748  1486A      1.878144  1487A      1.880269  
    1488A      1.880866  1489A      1.881603  1490A      1.887335  
    1491A      1.892868  1492A      1.893409  1493A      1.893615  
    1494A      1.894154  1495A      1.894840  1496A      1.895683  
    1497A      1.897949  1498A      1.899299  1499A      1.899707  
    1500A      1.900842  1501A      1.901563  1502A      1.903669  
    1503A      1.906728  1504A      1.908974  1505A      1.910264  
    1506A      1.914506  1507A      1.914980  1508A      1.916012  
    1509A      1.916474  1510A      1.916773  1511A      1.922533  
    1512A      1.924201  1513A      1.925626  1514A      1.926625  
    1515A      1.927728  1516A      1.929076  1517A      1.936196  
    1518A      1.937531  1519A      1.940736  1520A      1.944367  
    1521A      1.947007  1522A      1.947301  1523A      1.948927  
    1524A      1.949372  1525A      1.950568  1526A      1.950768  
    1527A      1.962105  1528A      1.962356  1529A      1.965986  
    1530A      1.967298  1531A      1.968164  1532A      1.971508  
    1533A      1.971859  1534A      1.972367  1535A      1.972807  
    1536A      1.973239  1537A      1.974924  1538A      1.975453  
    1539A      1.975875  1540A      1.976688  1541A      1.979590  
    1542A      1.983383  1543A      1.986286  1544A      1.988287  
    1545A      1.988856  1546A      1.990848  1547A      1.994552  
    1548A      1.996952  1549A      1.997574  1550A      2.002864  
    1551A      2.005240  1552A      2.007603  1553A      2.008717  
    1554A      2.010634  1555A      2.011588  1556A      2.012145  
    1557A      2.014020  1558A      2.014481  1559A      2.015618  
    1560A      2.016059  1561A      2.021991  1562A      2.024193  
    1563A      2.024437  1564A      2.025918  1565A      2.030472  
    1566A      2.032848  1567A      2.034513  1568A      2.035551  
    1569A      2.036092  1570A      2.037236  1571A      2.037987  
    1572A      2.038383  1573A      2.038896  1574A      2.041861  
    1575A      2.043599  1576A      2.043920  1577A      2.045053  
    1578A      2.046205  1579A      2.046804  1580A      2.047233  
    1581A      2.047557  1582A      2.048716  1583A      2.049711  
    1584A      2.051178  1585A      2.052317  1586A      2.053033  
    1587A      2.053081  1588A      2.056397  1589A      2.056834  
    1590A      2.057720  1591A      2.061636  1592A      2.065281  
    1593A      2.066526  1594A      2.067407  1595A      2.067781  
    1596A      2.068664  1597A      2.069632  1598A      2.072175  
    1599A      2.072798  1600A      2.073647  1601A      2.075246  
    1602A      2.080887  1603A      2.082077  1604A      2.082313  
    1605A      2.082637  1606A      2.083046  1607A      2.083692  
    1608A      2.083894  1609A      2.086117  1610A      2.089933  
    1611A      2.090425  1612A      2.090772  1613A      2.091982  
    1614A      2.092255  1615A      2.098133  1616A      2.098222  
    1617A      2.099501  1618A      2.100345  1619A      2.100661  
    1620A      2.109841  1621A      2.110345  1622A      2.112272  
    1623A      2.112937  1624A      2.113727  1625A      2.114948  
    1626A      2.115393  1627A      2.115900  1628A      2.119067  
    1629A      2.119339  1630A      2.127009  1631A      2.127251  
    1632A      2.135372  1633A      2.136299  1634A      2.137350  
    1635A      2.138252  1636A      2.142153  1637A      2.143984  
    1638A      2.144197  1639A      2.145792  1640A      2.146323  
    1641A      2.146882  1642A      2.147702  1643A      2.149861  
    1644A      2.151943  1645A      2.153050  1646A      2.154765  
    1647A      2.155237  1648A      2.156625  1649A      2.157144  
    1650A      2.158717  1651A      2.159979  1652A      2.161708  
    1653A      2.163373  1654A      2.164905  1655A      2.169497  
    1656A      2.169777  1657A      2.175608  1658A      2.178867  
    1659A      2.179104  1660A      2.179871  1661A      2.179904  
    1662A      2.180783  1663A      2.184673  1664A      2.188386  
    1665A      2.188979  1666A      2.190107  1667A      2.193322  
    1668A      2.194049  1669A      2.194354  1670A      2.197498  
    1671A      2.202413  1672A      2.203305  1673A      2.204329  
    1674A      2.205026  1675A      2.205963  1676A      2.217458  
    1677A      2.218674  1678A      2.219960  1679A      2.221538  
    1680A      2.222977  1681A      2.226727  1682A      2.229831  
    1683A      2.230555  1684A      2.238981  1685A      2.240312  
    1686A      2.246527  1687A      2.247742  1688A      2.251999  
    1689A      2.252783  1690A      2.253272  1691A      2.259861  
    1692A      2.260379  1693A      2.265068  1694A      2.268778  
    1695A      2.279644  1696A      2.280772  1697A      2.281030  
    1698A      2.283056  1699A      2.285088  1700A      2.286690  
    1701A      2.287055  1702A      2.288270  1703A      2.289408  
    1704A      2.290772  1705A      2.294784  1706A      2.297172  
    1707A      2.297936  1708A      2.298182  1709A      2.300211  
    1710A      2.300559  1711A      2.301364  1712A      2.302041  
    1713A      2.304124  1714A      2.304555  1715A      2.322412  
    1716A      2.326351  1717A      2.326968  1718A      2.327479  
    1719A      2.338780  1720A      2.339883  1721A      2.343612  
    1722A      2.345358  1723A      2.346956  1724A      2.347964  
    1725A      2.352095  1726A      2.374235  1727A      2.375382  
    1728A      2.378995  1729A      2.383543  1730A      2.387231  
    1731A      2.397100  1732A      2.398905  1733A      2.407371  
    1734A      2.408686  1735A      2.420284  1736A      2.420374  
    1737A      2.423722  1738A      2.423987  1739A      2.428074  
    1740A      2.428350  1741A      2.446110  1742A      2.447473  
    1743A      2.447850  1744A      2.449713  1745A      2.458726  
    1746A      2.462655  1747A      2.463388  1748A      2.463705  
    1749A      2.467877  1750A      2.472727  1751A      2.494720  
    1752A      2.494883  1753A      2.496061  1754A      2.498189  
    1755A      2.498784  1756A      2.500249  1757A      2.502645  
    1758A      2.503662  1759A      2.504379  1760A      2.505662  
    1761A      2.507264  1762A      2.511650  1763A      2.511818  
    1764A      2.519929  1765A      2.527055  1766A      2.528308  
    1767A      2.536993  1768A      2.540649  1769A      2.541157  
    1770A      2.541302  1771A      2.542418  1772A      2.545614  
    1773A      2.546049  1774A      2.549237  1775A      2.550902  
    1776A      2.557561  1777A      2.557710  1778A      2.568758  
    1779A      2.568975  1780A      2.569327  1781A      2.569855  
    1782A      2.573021  1783A      2.573371  1784A      2.576210  
    1785A      2.588388  1786A      2.596310  1787A      2.597281  
    1788A      2.599564  1789A      2.601093  1790A      2.603528  
    1791A      2.604211  1792A      2.605163  1793A      2.608186  
    1794A      2.609238  1795A      2.612277  1796A      2.612488  
    1797A      2.621113  1798A      2.621527  1799A      2.624072  
    1800A      2.626800  1801A      2.627707  1802A      2.628816  
    1803A      2.633480  1804A      2.634236  1805A      2.638788  
    1806A      2.640180  1807A      2.641239  1808A      2.642705  
    1809A      2.646833  1810A      2.647021  1811A      2.647272  
    1812A      2.648295  1813A      2.651752  1814A      2.653076  
    1815A      2.659546  1816A      2.663905  1817A      2.675776  
    1818A      2.677104  1819A      2.680716  1820A      2.686413  
    1821A      2.686466  1822A      2.687014  1823A      2.688378  
    1824A      2.688642  1825A      2.690611  1826A      2.708496  
    1827A      2.708713  1828A      2.715356  1829A      2.715713  
    1830A      2.726667  1831A      2.730627  1832A      2.734821  
    1833A      2.735297  1834A      2.740343  1835A      2.750889  
    1836A      2.754044  1837A      2.755083  1838A      2.756314  
    1839A      2.757445  1840A      2.757509  1841A      2.763136  
    1842A      2.765476  1843A      2.769727  1844A      2.770266  
    1845A      2.771196  1846A      2.771437  1847A      2.782851  
    1848A      2.783135  1849A      2.790074  1850A      2.795435  
    1851A      2.795674  1852A      2.797126  1853A      2.797540  
    1854A      2.800910  1855A      2.814827  1856A      2.820558  
    1857A      2.820729  1858A      2.826227  1859A      2.827022  
    1860A      2.829754  1861A      2.850466  1862A      2.851370  
    1863A      2.866977  1864A      2.874355  1865A      2.874474  
    1866A      2.884270  1867A      2.886273  1868A      2.891165  
    1869A      2.891239  1870A      2.919188  1871A      2.920589  
    1872A      2.921288  1873A      2.921779  1874A      2.932418  
    1875A      2.947847  1876A      2.948513  1877A      2.979144  
    1878A      2.985101  1879A      2.985600  1880A      2.991671  
    1881A      2.995013  1882A      3.002603  1883A      3.003276  
    1884A      3.004795  1885A      3.013026  1886A      3.013085  
    1887A      3.020640  1888A      3.028693  1889A      3.048876  
    1890A      3.065050  1891A      3.067723  1892A      3.069526  
    1893A      3.069675  1894A      3.078164  1895A      3.082487  
    1896A      3.083188  1897A      3.088301  1898A      3.089822  
    1899A      3.098293  1900A      3.099459  1901A      3.103853  
    1902A      3.104209  1903A      3.105817  1904A      3.106624  
    1905A      3.110160  1906A      3.118977  1907A      3.122902  
    1908A      3.129749  1909A      3.131604  1910A      3.131719  
    1911A      3.149665  1912A      3.150736  1913A      3.177078  
    1914A      3.209362  1915A      3.216054  1916A      3.216285  
    1917A      3.216916  1918A      3.217784  1919A      3.220063  
    1920A      3.224136  1921A      3.227299  1922A      3.231028  
    1923A      3.231400  1924A      3.248477  1925A      3.249167  
    1926A      3.249911  1927A      3.258116  1928A      3.316162  
    1929A      3.317282  1930A      3.324790  1931A      3.370389  
    1932A      3.384622  1933A      3.386847  1934A      3.392044  
    1935A      3.399392  1936A      3.402702  1937A      3.414982  
    1938A      3.419288  1939A      3.420091  1940A      3.425751  
    1941A      3.428605  1942A      3.435618  1943A      3.440663  
    1944A      3.442546  1945A      3.448143  1946A      3.464089  
    1947A      3.494924  1948A      3.529499  1949A      3.530480  
    1950A      3.531173  1951A      3.538638  1952A      3.545646  
    1953A      3.591040  1954A      3.592524  1955A      3.619707  
    1956A      3.622336  1957A      3.660284  1958A      3.702154  
    1959A      3.704985  1960A      3.705908  1961A      3.717820  
    1962A      3.733725  1963A      3.734698  1964A      3.797813  
    1965A      3.799040  1966A      3.827366  1967A      3.830402  
    1968A      3.860124  1969A      3.868144  1970A      3.892539  
    1971A      3.894919  1972A      3.903866  1973A      3.904901  
    1974A      3.913578  1975A      3.918741  1976A      3.925538  
    1977A      3.979615  1978A      3.982287  1979A      4.025156  
    1980A      4.182592  1981A      4.255490  1982A      4.346374  

    Final Occupation by Irrep:
              A 
    DOCC [   326 ]
    NA   [   326 ]
    NB   [   326 ]

  @DF-RHF Final Energy: -3953.64194046150169

   => Energetics <=

    Nuclear Repulsion Energy =          17381.6842891723172215
    One-Electron Energy =              -39979.7548105229361681
    Two-Electron Energy =               18644.4285808891181659
    Total Energy =                      -3953.6419404615007807

Computation Completed


Properties will be evaluated at   0.000000,   0.000000,   0.000000 [a0]

Properties computed using the SCF density matrix


 Multipole Moments:

 ------------------------------------------------------------------------------------
     Multipole            Electronic (a.u.)      Nuclear  (a.u.)        Total (a.u.)
 ------------------------------------------------------------------------------------

 L = 1.  Multiply by 2.5417464519 to convert [e a0] to [Debye]
 Dipole X            :         -0.0021026            0.0004804           -0.0016222
 Dipole Y            :         -6.6273447            8.7122315            2.0848868
 Dipole Z            :         40.8721738          -56.4165013          -15.5443275
 Magnitude           :                                                   15.6835223

 ------------------------------------------------------------------------------------

*** tstop() called on n2cn1128 at Sat Jan 27 02:00:06 2024
Module time:
	user time   =   26946.79 seconds =     449.11 minutes
	system time =    2251.20 seconds =      37.52 minutes
	total time  =       6198 seconds =     103.30 minutes
Total time:
	user time   =   26946.79 seconds =     449.11 minutes
	system time =    2251.20 seconds =      37.52 minutes
	total time  =       6198 seconds =     103.30 minutes

  //>>>>>>>>>>>>>>>>>>>>>>>>>>>>>>>>>>>//
  //            Monomer A HF           //
  //<<<<<<<<<<<<<<<<<<<<<<<<<<<<<<<<<<<//

   => Libint2 <=

    Primary   basis highest AM E, G, H:  5, 4, 3
    Auxiliary basis highest AM E, G, H:  6, 5, 4
    Onebody   basis highest AM E, G, H:  6, 5, 4
    Solid Harmonics ordering:            gaussian

*** tstart() called on n2cn1128
*** at Sat Jan 27 02:00:06 2024

   => Loading Basis Set <=

    Name: JUN-CC-PVDZ
    Role: ORBITAL
    Keyword: BASIS
    atoms 1-2, 4-5, 10, 17-34, 41-53, 56-70, 73-89, 92-104, 109-119, 122-130 entry C          line   164 file /opt/software/pc2/EB-SW/software/PSI4/1.9-foss-2022a/share/psi4/basis/jun-cc-pvdz.gbs 
    atoms 3, 6                                                               entry N          line   198 file /opt/software/pc2/EB-SW/software/PSI4/1.9-foss-2022a/share/psi4/basis/jun-cc-pvdz.gbs 
    atoms 7-9, 11-16, 35-40, 54-55, 71-72, 90-91, 105-108, 120-121, 131-136  entry H          line    36 file /opt/software/pc2/EB-SW/software/PSI4/1.9-foss-2022a/share/psi4/basis/jun-cc-pvdz.gbs 


         ---------------------------------------------------------
                                   SCF
               by Justin Turney, Rob Parrish, Andy Simmonett
                          and Daniel G. A. Smith
                              RHF Reference
                       16 Threads,  61035 MiB Core
         ---------------------------------------------------------

  ==> Geometry <==

    Molecular point group: c1
    Full point group: C1

    Geometry (in Angstrom), charge = 1, multiplicity = 1:

       Center              X                  Y                   Z               Mass       
    ------------   -----------------  -----------------  -----------------  -----------------
         C            0.680062820275     1.308604348936   -10.084008932179    12.000000000000
         C           -0.680508179725     1.310632348936   -10.083624932179    12.000000000000
         N           -1.085639179725     1.311630348936    -8.765300932179    14.003074004430
[...]
    1579A      2.159756  1580A      2.160105  1581A      2.162418  
    1582A      2.162749  1583A      2.171092  1584A      2.171366  
    1585A      2.179518  1586A      2.180762  1587A      2.180900  
    1588A      2.182222  1589A      2.184232  1590A      2.188264  
    1591A      2.188580  1592A      2.190438  1593A      2.191279  
    1594A      2.191427  1595A      2.192535  1596A      2.194924  
    1597A      2.196657  1598A      2.197805  1599A      2.200001  
    1600A      2.200290  1601A      2.200713  1602A      2.201228  
    1603A      2.202901  1604A      2.204082  1605A      2.205452  
    1606A      2.208997  1607A      2.211304  1608A      2.213601  
    1609A      2.213877  1610A      2.220144  1611A      2.222097  
    1612A      2.222680  1613A      2.224043  1614A      2.224671  
    1615A      2.224741  1616A      2.228759  1617A      2.231947  
    1618A      2.232017  1619A      2.232311  1620A      2.232986  
    1621A      2.238641  1622A      2.238796  1623A      2.239409  
    1624A      2.241331  1625A      2.247372  1626A      2.247717  
    1627A      2.248165  1628A      2.248589  1629A      2.260261  
    1630A      2.261429  1631A      2.263285  1632A      2.264830  
    1633A      2.266345  1634A      2.266588  1635A      2.269486  
    1636A      2.273151  1637A      2.275188  1638A      2.282775  
    1639A      2.284242  1640A      2.290134  1641A      2.290968  
    1642A      2.295096  1643A      2.296254  1644A      2.296759  
    1645A      2.303702  1646A      2.304115  1647A      2.309022  
    1648A      2.310779  1649A      2.314122  1650A      2.324404  
    1651A      2.324845  1652A      2.325170  1653A      2.327065  
    1654A      2.329354  1655A      2.330540  1656A      2.331062  
    1657A      2.332909  1658A      2.334136  1659A      2.335001  
    1660A      2.335645  1661A      2.336830  1662A      2.339609  
    1663A      2.341350  1664A      2.342140  1665A      2.342330  
    1666A      2.344772  1667A      2.345778  1668A      2.346298  
    1669A      2.349053  1670A      2.349399  1671A      2.367877  
    1672A      2.372197  1673A      2.372791  1674A      2.382655  
    1675A      2.383570  1676A      2.387921  1677A      2.390122  
    1678A      2.391584  1679A      2.392708  1680A      2.396887  
    1681A      2.418290  1682A      2.419456  1683A      2.423377  
    1684A      2.427500  1685A      2.431809  1686A      2.440112  
    1687A      2.441272  1688A      2.443007  1689A      2.445506  
    1690A      2.451921  1691A      2.453062  1692A      2.453488  
    1693A      2.464274  1694A      2.464316  1695A      2.467517  
    1696A      2.467715  1697A      2.467995  1698A      2.471902  
    1699A      2.472162  1700A      2.474422  1701A      2.490939  
    1702A      2.491290  1703A      2.494295  1704A      2.502356  
    1705A      2.504004  1706A      2.506214  1707A      2.506858  
    1708A      2.511436  1709A      2.516158  1710A      2.539049  
    1711A      2.539129  1712A      2.539966  1713A      2.542014  
    1714A      2.542627  1715A      2.544777  1716A      2.547459  
    1717A      2.548366  1718A      2.549100  1719A      2.551008  
    1720A      2.556517  1721A      2.556670  1722A      2.564193  
    1723A      2.571079  1724A      2.571465  1725A      2.574307  
    1726A      2.579960  1727A      2.583632  1728A      2.584159  
    1729A      2.585002  1730A      2.586215  1731A      2.588435  
    1732A      2.588848  1733A      2.593199  1734A      2.593491  
    1735A      2.601310  1736A      2.601412  1737A      2.612606  
    1738A      2.612827  1739A      2.613168  1740A      2.613661  
    1741A      2.616819  1742A      2.617184  1743A      2.631124  
    1744A      2.632572  1745A      2.640482  1746A      2.641346  
    1747A      2.642497  1748A      2.643710  1749A      2.645378  
    1750A      2.647254  1751A      2.648542  1752A      2.648819  
    1753A      2.649178  1754A      2.652718  1755A      2.655647  
    1756A      2.656037  1757A      2.657027  1758A      2.665959  
    1759A      2.666039  1760A      2.667530  1761A      2.670353  
    1762A      2.670500  1763A      2.671951  1764A      2.673544  
    1765A      2.677025  1766A      2.677508  1767A      2.684220  
    1768A      2.685457  1769A      2.686988  1770A      2.691043  
    1771A      2.691193  1772A      2.691533  1773A      2.692293  
    1774A      2.696020  1775A      2.697247  1776A      2.703938  
    1777A      2.720613  1778A      2.730614  1779A      2.730676  
    1780A      2.730839  1781A      2.731169  1782A      2.731782  
    1783A      2.734898  1784A      2.746140  1785A      2.752435  
    1786A      2.760476  1787A      2.760846  1788A      2.765867  
    1789A      2.772078  1790A      2.775739  1791A      2.779410  
    1792A      2.779878  1793A      2.799002  1794A      2.799852  
    1795A      2.801335  1796A      2.802141  1797A      2.802168  
    1798A      2.802209  1799A      2.808311  1800A      2.810810  
    1801A      2.814713  1802A      2.815151  1803A      2.815524  
    1804A      2.815887  1805A      2.827913  1806A      2.828148  
    1807A      2.833813  1808A      2.840012  1809A      2.840118  
    1810A      2.841513  1811A      2.841858  1812A      2.845043  
    1813A      2.859577  1814A      2.865148  1815A      2.865316  
    1816A      2.870254  1817A      2.871078  1818A      2.872082  
    1819A      2.874088  1820A      2.888144  1821A      2.895894  
    1822A      2.896781  1823A      2.906992  1824A      2.912385  
    1825A      2.917583  1826A      2.917720  1827A      2.921840  
    1828A      2.927401  1829A      2.929491  1830A      2.934669  
    1831A      2.934705  1832A      2.943724  1833A      2.962964  
    1834A      2.964718  1835A      2.965211  1836A      2.968545  
    1837A      2.976085  1838A      2.991302  1839A      2.991610  
    1840A      2.992502  1841A      3.003689  1842A      3.029319  
    1843A      3.029847  1844A      3.035292  1845A      3.035701  
    1846A      3.038501  1847A      3.046764  1848A      3.047389  
    1849A      3.047956  1850A      3.057471  1851A      3.057528  
    1852A      3.063091  1853A      3.072826  1854A      3.108449  
    1855A      3.112743  1856A      3.113058  1857A      3.122197  
    1858A      3.126769  1859A      3.127380  1860A      3.132312  
    1861A      3.133903  1862A      3.139428  1863A      3.141850  
    1864A      3.142927  1865A      3.148077  1866A      3.148548  
    1867A      3.149343  1868A      3.149988  1869A      3.153447  
    1870A      3.162081  1871A      3.167868  1872A      3.173114  
    1873A      3.174902  1874A      3.175011  1875A      3.193043  
    1876A      3.194080  1877A      3.220202  1878A      3.253228  
    1879A      3.259346  1880A      3.260734  1881A      3.261282  
    1882A      3.261891  1883A      3.264177  1884A      3.268028  
    1885A      3.271037  1886A      3.274925  1887A      3.275249  
    1888A      3.284129  1889A      3.292621  1890A      3.293501  
    1891A      3.294164  1892A      3.302013  1893A      3.302726  
    1894A      3.315540  1895A      3.360914  1896A      3.362007  
    1897A      3.369562  1898A      3.391155  1899A      3.415266  
    1900A      3.429479  1901A      3.431950  1902A      3.438419  
    1903A      3.445076  1904A      3.448290  1905A      3.460498  
    1906A      3.464318  1907A      3.465000  1908A      3.470690  
    1909A      3.473623  1910A      3.480551  1911A      3.486021  
    1912A      3.493277  1913A      3.509079  1914A      3.521596  
    1915A      3.540188  1916A      3.564802  1917A      3.574251  
    1918A      3.575931  1919A      3.583353  1920A      3.589801  
    1921A      3.635820  1922A      3.637357  1923A      3.642823  
    1924A      3.664518  1925A      3.666625  1926A      3.704912  
    1927A      3.747286  1928A      3.749105  1929A      3.750312  
    1930A      3.755628  1931A      3.763119  1932A      3.778575  
    1933A      3.779043  1934A      3.813754  1935A      3.841829  
    1936A      3.843250  1937A      3.865939  1938A      3.871425  
    1939A      3.874566  1940A      3.904519  1941A      3.912799  
    1942A      3.937847  1943A      3.940362  1944A      3.948174  
    1945A      3.949105  1946A      3.956267  1947A      3.958375  
    1948A      3.964300  1949A      3.970667  1950A      4.024590  
    1951A      4.027419  1952A      4.070686  1953A      4.202680  
    1954A      4.205787  1955A      4.228714  1956A      4.301859  
    1957A      4.337170  1958A      4.357740  1959A      4.392613  
    1960A      4.480475  1961A      4.732198  1962A      4.770240  
    1963A      4.826604  1964A      4.843741  1965A      4.933334  
    1966A      5.047032  1967A      5.054222  1968A      5.063546  
    1969A      5.108163  1970A      5.124258  1971A      5.388804  
    1972A      5.418676  1973A      5.729764  1974A      5.749619  
    1975A      6.065135  1976A     18.196746  1977A     18.450745  
    1978A     18.468229  1979A     18.556075  1980A     18.828791  
    1981A     25.336812  1982A     25.372779  

    Final Occupation by Irrep:
              A 
    DOCC [   300 ]
    NA   [   300 ]
    NB   [   300 ]

  @DF-RHF Final Energy: -3650.33782112600102

   => Energetics <=

    Nuclear Repulsion Energy =          15611.4211649754306563
    One-Electron Energy =              -36072.0814453886268893
    Two-Electron Energy =               16810.3224592871956702
    Total Energy =                      -3650.3378211260023818

Computation Completed


Properties will be evaluated at   0.000000,   0.000000,   0.000000 [a0]

Properties computed using the SCF density matrix


 Multipole Moments:

 ------------------------------------------------------------------------------------
     Multipole            Electronic (a.u.)      Nuclear  (a.u.)        Total (a.u.)
 ------------------------------------------------------------------------------------

 L = 1.  Multiply by 2.5417464519 to convert [e a0] to [Debye]
 Dipole X            :         -0.0010954            0.0002112           -0.0008843
 Dipole Y            :        123.2128904         -123.2131634           -0.0002730
 Dipole Z            :       -829.8807498          829.8804763           -0.0002736
 Magnitude           :                                                    0.0009650

 ------------------------------------------------------------------------------------

*** tstop() called on n2cn1128 at Sat Jan 27 03:26:16 2024
Module time:
	user time   =   18663.44 seconds =     311.06 minutes
	system time =    1538.30 seconds =      25.64 minutes
	total time  =       3333 seconds =      55.55 minutes
Total time:
	user time   =   51496.69 seconds =     858.28 minutes
	system time =    4411.03 seconds =      73.52 minutes
	total time  =      11368 seconds =     189.47 minutes
  Constructing Basis Sets for SAPT...

   => Loading Basis Set <=

    Name: (JUN-CC-PVDZ AUX)
    Role: RIFIT
    Keyword: DF_BASIS_SAPT
    atoms 1-2, 4-5, 10, 17-34, 41-53, 56-70, 73-89, 92-104, 109-119, 122-130 entry C          line   100 file /opt/software/pc2/EB-SW/software/PSI4/1.9-foss-2022a/share/psi4/basis/jun-cc-pvdz-ri.gbs 
    atoms 3, 6                                                               entry N          line   144 file /opt/software/pc2/EB-SW/software/PSI4/1.9-foss-2022a/share/psi4/basis/jun-cc-pvdz-ri.gbs 
    atoms 7-9, 11-16, 35-40, 54-55, 71-72, 90-91, 105-108, 120-121, 131-136  entry H          line    30 file /opt/software/pc2/EB-SW/software/PSI4/1.9-foss-2022a/share/psi4/basis/jun-cc-pvdz-ri.gbs 

   => Loading Basis Set <=

    Name: (JUN-CC-PVDZ AUX)
    Role: JKFIT
    Keyword: DF_BASIS_ELST
    atoms 1-2, 4-5, 10, 17-34, 41-53, 56-70, 73-89, 92-104, 109-119, 122-130 entry C          line   146 file /opt/software/pc2/EB-SW/software/PSI4/1.9-foss-2022a/share/psi4/basis/jun-cc-pvdz-jkfit.gbs 
    atoms 3, 6                                                               entry N          line   202 file /opt/software/pc2/EB-SW/software/PSI4/1.9-foss-2022a/share/psi4/basis/jun-cc-pvdz-jkfit.gbs 
    atoms 7-9, 11-16, 35-40, 54-55, 71-72, 90-91, 105-108, 120-121, 131-136  entry H          line    70 file /opt/software/pc2/EB-SW/software/PSI4/1.9-foss-2022a/share/psi4/basis/jun-cc-pvdz-jkfit.gbs 


  //>>>>>>>>>>>>>>>>>>>>>>>>>>>>>>>>>>>//
  //               SSAPT0              //
  //<<<<<<<<<<<<<<<<<<<<<<<<<<<<<<<<<<<//


*** tstart() called on n2cn1128
*** at Sat Jan 27 03:26:18 2024

        SAPT0  
    Ed Hohenstein
     6 June 2009

      Orbital Information
  --------------------------
    NSO        =      2019
    NMO        =      1982
    NRI        =      7157
    NRI (Elst) =      8896
    NOCC A     =        26
    NOCC B     =       300
    FOCC A     =         7
    FOCC B     =        96
    NVIR A     =      1956
    NVIR B     =      1682

    Elst10,r            =    -0.005615137840 [Eh]
    Exch10              =    -0.000000033358 [Eh]
    Exch10 (S^2)        =    -0.000000033358 [Eh]

    Iter     Energy [mEh]          dE [mEh]         Residual      Time [s]
       1      -0.00711536       0.007115358       0.799577147           427
       2      -0.00673257      -0.000382792       0.207369062           738
       3      -0.00740443       0.000671859       0.057242763           998
       4      -0.00744573       0.000041304       0.026126614          1230
       5      -0.00741508      -0.000030651       0.008253212          1425
       6      -0.00741461      -0.000000465       0.002573286          1648
       7      -0.00741676       0.000002147       0.000835879          1844
       8      -0.00741716       0.000000399       0.000226229          2047
       9      -0.00741707      -0.000000086       0.000080386          2251
      10      -0.00741703      -0.000000048       0.000021584          2438
      11      -0.00741703       0.000000003       0.000005980          2587
      12      -0.00741703       0.000000003       0.000001900          2773
      13      -0.00741703       0.000000000       0.000000624          2944

    CHF Iterations converged


    Iter     Energy [mEh]          dE [mEh]         Residual      Time [s]
       1      -1.97056979       1.970569792      24.166271249           205
       2      -1.28968311      -0.680886677       2.737995360           392
       3      -1.28800653      -0.001676590       1.004349296           628
       4      -1.31349595       0.025489428       0.314158626           897
       5      -1.31651052       0.003014564       0.124082914          1120
       6      -1.31589872      -0.000611800       0.083634740          1346
       7      -1.31515185      -0.000746871       0.034200920          1557
       8      -1.31524848       0.000096635       0.015792854          1798
       9      -1.31538856       0.000140075       0.006803477          2063
      10      -1.31536605      -0.000022508       0.005815724          2300
      11      -1.31534054      -0.000025506       0.003434782          2508
      12      -1.31534346       0.000002922       0.002251768          2779
      13      -1.31535257       0.000009106       0.001047276          3007
      14      -1.31535346       0.000000893       0.000527867          3268
      15      -1.31535177      -0.000001696       0.000302617          3504
      16      -1.31535070      -0.000001067       0.000112977          3749
      17      -1.31535127       0.000000568       0.000052376          4032
      18      -1.31535143       0.000000164       0.000026448          4267
      19      -1.31535134      -0.000000091       0.000018770          4484
      20      -1.31535129      -0.000000053       0.000008146          4700
      21      -1.31535130       0.000000018       0.000004110          4910
      22      -1.31535132       0.000000012       0.000001628          5101
      23      -1.31535132      -0.000000000       0.000000543          5292

    CHF Iterations converged

    Ind20,r (A<-B)      =    -0.000007417032 [Eh]
    Ind20,r (B<-A)      =    -0.001315351316 [Eh]
    Ind20,r             =    -0.001322768348 [Eh]
    Exch-Ind20,r (A<-B) =     0.000000002409 [Eh]
    Exch-Ind20,r (B<-A) =     0.000000010845 [Eh]
    Exch-Ind20,r        =     0.000000013253 [Eh]
    Disp20              =    -0.000393100375 [Eh]
    Disp20 (SS)         =    -0.000196550187 [Eh]
    Disp20 (OS)         =    -0.000196550187 [Eh]
    Exch-Disp20         =     0.000000005578 [Eh]
    Exch-Disp20 (SS)    =     0.000000004168 [Eh]
    Exch-Disp20 (OS)    =     0.000000001410 [Eh]

    SAPT Results 
  --------------------------------------------------------------------------------------------------------
    Electrostatics                 -5.61513784 [mEh]      -3.52355219 [kcal/mol]     -14.74254237 [kJ/mol]
      Elst10,r                     -5.61513784 [mEh]      -3.52355219 [kcal/mol]     -14.74254237 [kJ/mol]

    Exchange                       -0.00003336 [mEh]      -0.00002093 [kcal/mol]      -0.00008758 [kJ/mol]
      Exch10                       -0.00003336 [mEh]      -0.00002093 [kcal/mol]      -0.00008758 [kJ/mol]
      Exch10(S^2)                  -0.00003336 [mEh]      -0.00002093 [kcal/mol]      -0.00008758 [kJ/mol]

    Induction                      -1.33331729 [mEh]      -0.83666923 [kcal/mol]      -3.50062405 [kJ/mol]
      Ind20,r                      -1.32276835 [mEh]      -0.83004967 [kcal/mol]      -3.47292782 [kJ/mol]
      Exch-Ind20,r                  0.00001325 [mEh]       0.00000832 [kcal/mol]       0.00003480 [kJ/mol]
      delta HF,r (2)               -0.01056219 [mEh]      -0.00662788 [kcal/mol]      -0.02773103 [kJ/mol]

    Dispersion                     -0.39309480 [mEh]      -0.24667071 [kcal/mol]      -1.03207025 [kJ/mol]
      Disp20                       -0.39310037 [mEh]      -0.24667421 [kcal/mol]      -1.03208489 [kJ/mol]
      Exch-Disp20                   0.00000558 [mEh]       0.00000350 [kcal/mol]       0.00001464 [kJ/mol]
      Disp20 (SS)                  -0.19655019 [mEh]      -0.12333710 [kcal/mol]      -0.51604245 [kJ/mol]
      Disp20 (OS)                  -0.19655019 [mEh]      -0.12333710 [kcal/mol]      -0.51604245 [kJ/mol]
      Exch-Disp20 (SS)              0.00000417 [mEh]       0.00000262 [kcal/mol]       0.00001094 [kJ/mol]
      Exch-Disp20 (OS)              0.00000141 [mEh]       0.00000088 [kcal/mol]       0.00000370 [kJ/mol]

  Total HF                         -6.94848848 [mEh]      -4.36024235 [kcal/mol]     -18.24325400 [kJ/mol]
  Total SAPT0                      -7.34158328 [mEh]      -4.60691306 [kcal/mol]     -19.27532425 [kJ/mol]

  Special recipe for scaled SAPT0 (see Manual):
    Electrostatics sSAPT0          -5.61513784 [mEh]      -3.52355219 [kcal/mol]     -14.74254237 [kJ/mol]
    Exchange sSAPT0                -0.00003336 [mEh]      -0.00002093 [kcal/mol]      -0.00008758 [kJ/mol]
    Induction sSAPT0               -1.33331729 [mEh]      -0.83666923 [kcal/mol]      -3.50062405 [kJ/mol]
    Dispersion sSAPT0              -0.39309480 [mEh]      -0.24667071 [kcal/mol]      -1.03207025 [kJ/mol]
  Total sSAPT0                     -7.34158328 [mEh]      -4.60691306 [kcal/mol]     -19.27532425 [kJ/mol]
  --------------------------------------------------------------------------------------------------------

*** tstop() called on n2cn1128 at Sat Jan 27 09:53:56 2024
Module time:
	user time   =   74956.68 seconds =    1249.28 minutes
	system time =    4311.26 seconds =      71.85 minutes
	total time  =      23258 seconds =     387.63 minutes
Total time:
	user time   =  126454.94 seconds =    2107.58 minutes
	system time =    8722.30 seconds =     145.37 minutes
	total time  =      34628 seconds =     577.13 minutes

    Psi4 stopped on: Saturday, 27 January 2024 09:53AM
    Psi4 wall time for execution: 9:37:09.39

*** Psi4 exiting successfully. Buy a developer a beer!
