
    -----------------------------------------------------------------------
          Psi4: An Open-Source Ab Initio Electronic Structure Package
                               Psi4 1.9 release

                         Git: Rev {} zzzzzzz 


    D. G. A. Smith, L. A. Burns, A. C. Simmonett, R. M. Parrish,
    M. C. Schieber, R. Galvelis, P. Kraus, H. Kruse, R. Di Remigio,
    A. Alenaizan, A. M. James, S. Lehtola, J. P. Misiewicz, M. Scheurer,
    R. A. Shaw, J. B. Schriber, Y. Xie, Z. L. Glick, D. A. Sirianni,
    J. S. O'Brien, J. M. Waldrop, A. Kumar, E. G. Hohenstein,
    B. P. Pritchard, B. R. Brooks, H. F. Schaefer III, A. Yu. Sokolov,
    K. Patkowski, A. E. DePrince III, U. Bozkaya, R. A. King,
    F. A. Evangelista, J. M. Turney, T. D. Crawford, C. D. Sherrill,
    J. Chem. Phys. 152(18) 184108 (2020). https://doi.org/10.1063/5.0006002

                            Additional Code Authors
    E. T. Seidl, C. L. Janssen, E. F. Valeev, M. L. Leininger,
    J. F. Gonthier, R. M. Richard, H. R. McAlexander, M. Saitow, X. Wang,
    P. Verma, M. H. Lechner, A. Jiang, S. Behnle, A. G. Heide,
    M. F. Herbst, and D. L. Poole

             Previous Authors, Complete List of Code Contributors,
                       and Citations for Specific Modules
    https://github.com/psi4/psi4/blob/master/codemeta.json
    https://github.com/psi4/psi4/graphs/contributors
    http://psicode.org/psi4manual/master/introduction.html#citing-psifour

    -----------------------------------------------------------------------


    Psi4 started on: Monday, 22 January 2024 10:20PM

    Process ID: 369855
    Host:       d-16-5-1
    PSIDATADIR: /home/gridsan/tfroembgen/.conda/envs/psi4test/share/psi4
    Memory:     500.0 MiB
    Threads:    12
    
  ==> Input File <==

--------------------------------------------------------------------------
memory 32 GB # how much memory is available ! Depends on the nodes/cores !

molecule dimer {
# monomer A
+1 1    # Charge and multiplicity
C  0.680067 1.417258  -9.215929
C -0.680504 1.419286  -9.215545
N -1.085635 1.420284  -7.897221
C  0.000108 1.423560  -7.115820
C -2.477365 1.469690  -7.429242
N  1.085222 1.420284  -7.897221
H  1.385146 1.409430 -10.033368
H -1.385302 1.419096 -10.033214
H -0.000009 1.425307  -6.034731
C  2.478117 1.403392  -7.432123
H  2.490592 1.430737  -6.341870
H  2.967028 0.489946  -7.779299
H  3.001428 2.278875  -7.823595
H -2.857359 2.491761  -7.509201
H -3.082679 0.799606  -8.042306
H -2.518128 1.142706  -6.389294
--
# monomer B
0 1     # Charge and multiplicity
C   1.22531237526482      0.70753866091955      0.00613762728373
C   1.22532433589282     -0.70753852257020     -0.00619318228664
C   -0.00000567409046      1.41496628609039     -0.00672680580738
C   2.45644923379077      1.41832825917820      0.00902448468363
C   0.00001130712078     -1.41497612663474      0.00347275151708
C   -1.22530046906674      0.70754574598412      0.00838914760619
C   2.45643823516184     -1.41832293188077     -0.00843833914343
C   -0.00000085313587      2.83680140328112     -0.00913035594137
C   3.68182717731192      0.70931832800114     -0.00808954934571
C   2.45512052870677      2.83422403348893     -0.00819210630633
C   3.68182158506039     -0.70933346742900      0.00798293467272
C   -1.22531311884624     -0.70752714354401     -0.00512042085974
C   1.22670006104402      3.54346985599427      0.00816696660346
C   0.00000526469929     -2.83678176723568      0.00832091913869
C   -2.45643555300670      1.41831729028492      0.00842454345199
C   2.45512389762097     -2.83422965658853      0.00783102630520
C   -1.22671388474763      3.54346943575023      0.00827029982280
C   4.91451777504333      1.42717324448953     -0.00160886631602
C   3.69315067131765      3.54279566454522     -0.00155906667985
C   -2.45643712022637     -1.41831290883911     -0.00846337726810
C   1.22670532178455     -3.54347386990643     -0.00780316414624
C   -2.45512491866593      2.83421703463423     -0.00818572995999
C   4.91452486062398     -1.42718653794377      0.00136387641845
C   1.22142509354026      4.97013443726031      0.00150231067809
C   4.89300870916237      2.82518837202648     -0.00039219795739
C   -1.22669652864725     -3.54347062507680     -0.00753595973677
C   -3.68181849668397      0.70932533873199     -0.00807686886569
C   3.69314758099218     -3.54280096939050      0.00148176697923
C   -1.22143177215231      4.97012866986289      0.00168580605083
C   6.13477145276790      0.68054831910577     -0.00083909176631
C   3.65678936045204      4.97295361556775     -0.00065042889723
C   -2.45512642789169     -2.83421472106065      0.00758666850712
C   -3.68181869921921     -0.70932533146830      0.00810055625144
C   4.89301309775526     -2.82519973363176      0.00021895393805
C   -0.00000059327114      5.65044773803267      0.00045449734393
C   6.13477559217374     -0.68055448207492      0.00042622874941
C   2.47813196269732      5.65357712333155      0.00063835075260
C   1.22142288457925     -4.97012668293268     -0.00129718634452
C   -3.69316190412301      3.54279732619245     -0.00139355922051
C   -1.22142804110313     -4.97011793159564     -0.00140994817719
C   -4.91452132810043      1.42717581899491     -0.00153192130862
C   3.65678749952045     -4.97295485423912      0.00080007163680
C   -2.47813805026426      5.65357479452875      0.00092287576113
C   -3.69314125872231     -3.54278984697859      0.00136564082345
C   -4.91451200321153     -1.42718062802730      0.00139857359209
C   -0.00000552908399     -5.65043791501335      0.00005899322272
C   -4.89302000425900      2.82518897091939     -0.00040227981744
C   2.47812647313991     -5.65357317188818     -0.00029052915548
C   -3.65679823041642      4.97295655404175     -0.00047374852278
C   -4.89299899901461     -2.82519139505969      0.00006491824035
C   -2.47812801824129     -5.65356579800621     -0.00056571680280
C   -6.13477002348955      0.68054913825639     -0.00086464346868
C   -3.65678835334731     -4.97294365097028      0.00058578382008
C   -6.13476456307132     -0.68055354348201      0.00040575295444
H   5.83528897565761      3.36927626695423      0.00396712770529
H   7.07385965258860      1.22821762089947     -0.00037744837300
H   4.60066374401555      5.51238117445323     -0.00014522814529
H   5.83528386714679     -3.36930568472863     -0.00423551337640
H   -0.00001167146422      6.73853104613662     -0.00389474766392
H   7.07386165167227     -1.22822657074368     -0.00008250934481
H   2.47331421164041      6.74068466339473      0.00017162982210
H   4.60066897122302     -5.51237575717576      0.00039007446835
H   -2.47331820069565      6.74068209160650      0.00047297644710
H   -0.00000978838621     -6.73852780445195      0.00458867820736
H   -5.83530143450167      3.36927132229595      0.00410314985360
H   2.47330840367253     -6.74068500242887      0.00027980126949
H   -4.60067436136587      5.51237839860371      0.00002010017831
H   -5.83527902699321     -3.36928859177951     -0.00451481925734
H   -2.47329986759855     -6.74067870613986     -0.00016951527498
H   -7.07385728692578      1.22822084484047     -0.00046143985387
H   -4.60067330624313     -5.51236229778631      0.00021776644566
H   -7.07385645456741     -1.22822025997701     -0.00017736581114

    units angstrom      # Angstroms are the default
    no_reorient         # Geometry fixed, default
    symmetry c1         # C1 symmetry, default
}

set {
    scf_type DF         # Density fitting, faster than exact integrals
    freeze_core True    # Freeze core electrons
    basis jun-cc-pVDZ   # Jun-cc-pVDZ basis set, recommended for sSAPT0 in https://doi.org/10.1063/1.4867135
}

energy('ssapt0')        # Compute sSAPT0 energy, includes also SAPT0
--------------------------------------------------------------------------

  Memory set to  29.802 GiB by Python driver.

Scratch directory: /state/partition1/slurm_tmp/24798313.4294967291.0/
   => Loading Basis Set <=

    Name: JUN-CC-PVDZ
    Role: ORBITAL
    Keyword: BASIS
    atoms 1-2, 4-5, 10, 17-70 entry C          line   164 file /home/gridsan/tfroembgen/.conda/envs/psi4test/share/psi4/basis/jun-cc-pvdz.gbs 
    atoms 3, 6                entry N          line   198 file /home/gridsan/tfroembgen/.conda/envs/psi4test/share/psi4/basis/jun-cc-pvdz.gbs 
    atoms 7-9, 11-16, 71-88   entry H          line    36 file /home/gridsan/tfroembgen/.conda/envs/psi4test/share/psi4/basis/jun-cc-pvdz.gbs 

   => Loading Basis Set <=

    Name: JUN-CC-PVDZ
    Role: ORBITAL
    Keyword: BASIS
    atoms 1-2, 4-5, 10, 17-70 entry C          line   164 file /home/gridsan/tfroembgen/.conda/envs/psi4test/share/psi4/basis/jun-cc-pvdz.gbs 
    atoms 3, 6                entry N          line   198 file /home/gridsan/tfroembgen/.conda/envs/psi4test/share/psi4/basis/jun-cc-pvdz.gbs 
    atoms 7-9, 11-16, 71-88   entry H          line    36 file /home/gridsan/tfroembgen/.conda/envs/psi4test/share/psi4/basis/jun-cc-pvdz.gbs 


  //>>>>>>>>>>>>>>>>>>>>>>>>>>>>>>>>>>>//
  //              Dimer HF             //
  //<<<<<<<<<<<<<<<<<<<<<<<<<<<<<<<<<<<//

   => Libint2 <=

    Primary   basis highest AM E, G, H:  7, 7, 4
    Auxiliary basis highest AM E, G, H:  7, 7, 5
    Onebody   basis highest AM E, G, H:  7, 7, 5
    Solid Harmonics ordering:            gaussian

*** tstart() called on d-16-5-1
*** at Mon Jan 22 22:20:45 2024

   => Loading Basis Set <=

    Name: JUN-CC-PVDZ
    Role: ORBITAL
    Keyword: BASIS
    atoms 1-2, 4-5, 10, 17-70 entry C          line   164 file /home/gridsan/tfroembgen/.conda/envs/psi4test/share/psi4/basis/jun-cc-pvdz.gbs 
    atoms 3, 6                entry N          line   198 file /home/gridsan/tfroembgen/.conda/envs/psi4test/share/psi4/basis/jun-cc-pvdz.gbs 
    atoms 7-9, 11-16, 71-88   entry H          line    36 file /home/gridsan/tfroembgen/.conda/envs/psi4test/share/psi4/basis/jun-cc-pvdz.gbs 


         ---------------------------------------------------------
                                   SCF
               by Justin Turney, Rob Parrish, Andy Simmonett
                          and Daniel G. A. Smith
                              RHF Reference
                       12 Threads,  30517 MiB Core
         ---------------------------------------------------------

  ==> Geometry <==

    Molecular point group: c1
    Full point group: C1

    Geometry (in Angstrom), charge = 1, multiplicity = 1:

       Center              X                  Y                   Z               Mass       
    ------------   -----------------  -----------------  -----------------  -----------------
         C            0.680066520158     1.235968212970    -8.198380356379    12.000000000000
         C           -0.680504479842     1.237996212970    -8.197996356379    12.000000000000
         N           -1.085635479842     1.238994212970    -6.879672356379    14.003074004430
         C            0.000107520158     1.242270212970    -6.098271356379    12.000000000000
         C           -2.477365479842     1.288400212970    -6.411693356379    12.000000000000
         N            1.085221520158     1.238994212970    -6.879672356379    14.003074004430
         H            1.385145520158     1.228140212970    -9.015819356379     1.007825032230
         H           -1.385302479842     1.237806212970    -9.015665356379     1.007825032230
         H           -0.000009479842     1.244017212970    -5.017182356379     1.007825032230
         C            2.478116520158     1.222102212970    -6.414574356379    12.000000000000
         H            2.490591520158     1.249447212970    -5.324321356379     1.007825032230
         H            2.967027520158     0.308656212970    -6.761750356379     1.007825032230
         H            3.001427520158     2.097585212970    -6.806046356379     1.007825032230
         H           -2.857359479842     2.310471212970    -6.491652356379     1.007825032230
         H           -3.082679479842     0.618316212970    -7.024757356379     1.007825032230
         H           -2.518128479842     0.961416212970    -5.371745356379     1.007825032230
         C            1.225311895423     0.526248873889     1.023686270905    12.000000000000
         C            1.225323856051    -0.888828309601     1.011355461334    12.000000000000
         C           -0.000006153932     1.233676499060     1.010821837813    12.000000000000
         C            2.456448753949     1.237038472148     1.026573128304    12.000000000000
         C            0.000010827279    -1.596265913665     1.021021395138    12.000000000000
         C           -1.225300948908     0.526255958954     1.025937791227    12.000000000000
         C            2.456437755320    -1.599612718911     1.009110304477    12.000000000000
         C           -0.000001332978     2.655511616251     1.008418287679    12.000000000000
         C            3.681826697470     0.528028540971     1.009459094275    12.000000000000
         C            2.455120048865     2.652934246459     1.009356537315    12.000000000000
         C            3.681821105219    -0.890623254459     1.025531578294    12.000000000000
         C           -1.225313598688    -0.888816930574     1.012428222761    12.000000000000
         C            1.226699581202     3.362180068964     1.025715610224    12.000000000000
         C            0.000004784858    -3.018071554266     1.025869562760    12.000000000000
         C           -2.456436032848     1.237027503255     1.025973187073    12.000000000000
         C            2.455123417779    -3.015519443619     1.025379669926    12.000000000000
         C           -1.226714364589     3.362179648720     1.025818943444    12.000000000000
         C            4.914517295202     1.245883457459     1.015939777305    12.000000000000
         C            3.693150191476     3.361505877515     1.015989576941    12.000000000000
         C           -2.456437600068    -1.599602695869     1.009085266353    12.000000000000
         C            1.226704841943    -3.724763656937     1.009745479475    12.000000000000
         C           -2.455125398508     2.652927247604     1.009362913661    12.000000000000
         C            4.914524380782    -1.608476324974     1.018912520039    12.000000000000
         C            1.221424613699     4.788844650230     1.019050954299    12.000000000000
         C            4.893008229321     2.643898584996     1.017156445663    12.000000000000
         C           -1.226697008489    -3.724760412107     1.010012683884    12.000000000000
         C           -3.681818976526     0.528035551702     1.009471774755    12.000000000000
         C            3.693147101150    -3.724090756421     1.019030410600    12.000000000000
         C           -1.221432251994     4.788838882833     1.019234449672    12.000000000000
         C            6.134770972926     0.499258532075     1.016709551855    12.000000000000
         C            3.656788880610     4.791663828537     1.016898214724    12.000000000000
         C           -2.455126907733    -3.015504508091     1.025135312128    12.000000000000
         C           -3.681819179061    -0.890615118499     1.025649199872    12.000000000000
         C            4.893012617914    -3.006489520662     1.017767597559    12.000000000000
         C           -0.000001073113     5.469157951002     1.018003140965    12.000000000000
         C            6.134775112332    -0.861844269105     1.017974872370    12.000000000000
         C            2.478131482856     5.472287336301     1.018186994373    12.000000000000
         C            1.221422404738    -5.151416469963     1.016251457276    12.000000000000
         C           -3.693162383965     3.361507539162     1.016155084400    12.000000000000
         C           -1.221428520945    -5.151407718626     1.016138695444    12.000000000000
         C           -4.914521807942     1.245886031965     1.016016722312    12.000000000000
         C            3.656787019679    -5.154244641269     1.018348715258    12.000000000000
         C           -2.478138530106     5.472285007498     1.018471519382    12.000000000000
         C           -3.693141738564    -3.724079634009     1.018914284444    12.000000000000
         C           -4.914512483053    -1.608470415058     1.018947217213    12.000000000000
         C           -0.000006008926    -5.831727702044     1.017607636844    12.000000000000
         C           -4.893020484101     2.643899183889     1.017146363803    12.000000000000
         C            2.478125993298    -5.834862958919     1.017258114465    12.000000000000
         C           -3.656798710258     4.791666767011     1.017074895098    12.000000000000
         C           -4.892999478856    -3.006481182090     1.017613561861    12.000000000000
         C           -2.478128498083    -5.834855585037     1.016982926818    12.000000000000
         C           -6.134770503331     0.499259351226     1.016684000152    12.000000000000
         C           -3.656788833189    -5.154233438001     1.018134427441    12.000000000000
         C           -6.134765042913    -0.861843330512     1.017954396575    12.000000000000
         H            5.835288495816     3.187986479924     1.021515771326     1.007825032230
         H            7.073859172747     1.046927833869     1.017171195248     1.007825032230
         H            4.600663264174     5.331091387423     1.017403415476     1.007825032230
         H            5.835283387305    -3.550595471759     1.013313130244     1.007825032230
         H           -0.000012151306     6.557241259106     1.013653895957     1.007825032230
         H            7.073861171831    -1.409516357774     1.017466134276     1.007825032230
         H            2.473313731799     6.559394876364     1.017720273443     1.007825032230
         H            4.600668491381    -5.693665544206     1.017938718089     1.007825032230
         H           -2.473318680537     6.559392304576     1.018021620068     1.007825032230
         H           -0.000010268228    -6.919817591482     1.022137321828     1.007825032230
         H           -5.835301914343     3.187981535266     1.021651793474     1.007825032230
         H            2.473307923831    -6.921974789459     1.017828444890     1.007825032230
         H           -4.600674841208     5.331088611573     1.017568743799     1.007825032230
         H           -5.835279506835    -3.550578378810     1.013033824364     1.007825032230
         H           -2.473300347440    -6.921968493170     1.017379128346     1.007825032230
         H           -7.073857766768     1.046931057810     1.017087203767     1.007825032230
         H           -4.600673786085    -5.693652084817     1.017766410067     1.007825032230
         H           -7.073856934409    -1.409510047007     1.017371277810     1.007825032230

  Running in c1 symmetry.

  Rotational constants: A =      0.00130  B =      0.00127  C =      0.00106 [cm^-1]
  Rotational constants: A =     38.92175  B =     38.08156  C =     31.63445 [MHz]
  Nuclear repulsion = 7781.827054515113559

  Charge       = 1
  Multiplicity = 1
  Electrons    = 394
  Nalpha       = 197
  Nbeta        = 197

  ==> Algorithm <==

  SCF Algorithm Type is DF.
  DIIS enabled.
  MOM disabled.
  Fractional occupation disabled.
  Guess Type is SAD.
  Energy threshold   = 1.00e-08
  Density threshold  = 1.00e-08
  Integral threshold = 1.00e-12

  ==> Primary Basis <==

  Basis Set: JUN-CC-PVDZ
    Blend: JUN-CC-PVDZ
    Number of shells: 569
    Number of basis functions: 1233
    Number of Cartesian functions: 1294
    Spherical Harmonics?: true
    Max angular momentum: 2

   => Loading Basis Set <=

    Name: (JUN-CC-PVDZ AUX)
    Role: JKFIT
    Keyword: DF_BASIS_SCF
    atoms 1-2, 4-5, 10, 17-70 entry C          line   146 file /home/gridsan/tfroembgen/.conda/envs/psi4test/share/psi4/basis/jun-cc-pvdz-jkfit.gbs 
    atoms 3, 6                entry N          line   202 file /home/gridsan/tfroembgen/.conda/envs/psi4test/share/psi4/basis/jun-cc-pvdz-jkfit.gbs 
    atoms 7-9, 11-16, 71-88   entry H          line    70 file /home/gridsan/tfroembgen/.conda/envs/psi4test/share/psi4/basis/jun-cc-pvdz-jkfit.gbs 

  ==> Integral Setup <==

  ==> DiskDFJK: Density-Fitted J/K Matrices <==

    J tasked:                  Yes
    K tasked:                  Yes
    wK tasked:                  No
    OpenMP threads:             12
    Integrals threads:          12
    Memory [MiB]:            22888
    Algorithm:                Core
    Integral Cache:           SAVE
    Schwarz Cutoff:          1E-12
    Fitting Condition:       1E-10

   => Auxiliary Basis Set <=

  Basis Set: (JUN-CC-PVDZ AUX)
    Blend: JUN-CC-PVDZ-JKFIT
    Number of shells: 1890
    Number of basis functions: 5440
    Number of Cartesian functions: 6226
    Spherical Harmonics?: true
    Max angular momentum: 3

  Minimum eigenvalue in the overlap matrix is 8.3985703471E-10.
  Reciprocal condition number of the overlap matrix is 3.7567012628E-11.
    Using canonical orthogonalization.
  Overall, 14 of 1233 possible MOs eliminated.


  ==> Pre-Iterations <==

  SCF Guess: Superposition of Atomic Densities via on-the-fly atomic UHF (no occupation information).

   -------------------------
    Irrep   Nso     Nmo    
   -------------------------
     A       1233    1219 
   -------------------------
    Total    1233    1219
   -------------------------

  ==> Iterations <==

                           Total Energy        Delta E     RMS |[F,P]|

   @DF-RHF iter SAD: -2365.39398042595030   -2.36539e+03   0.00000e+00 
   @DF-RHF iter   1: -2358.18828052642402    7.20570e+00   9.48176e-04 ADIIS/DIIS
   @DF-RHF iter   2: -2359.08898064993946   -9.00700e-01   3.23990e-04 ADIIS/DIIS
   @DF-RHF iter   3: -2359.18136328869014   -9.23826e-02   1.18983e-04 ADIIS/DIIS
   @DF-RHF iter   4: -2359.19465643273543   -1.32931e-02   4.50648e-05 DIIS
   @DF-RHF iter   5: -2359.19663469996340   -1.97827e-03   1.02831e-05 DIIS
   @DF-RHF iter   6: -2359.19681422562235   -1.79526e-04   5.18742e-06 DIIS
   @DF-RHF iter   7: -2359.19688434874115   -7.01231e-05   2.25724e-06 DIIS
   @DF-RHF iter   8: -2359.19690496093608   -2.06122e-05   1.13158e-06 DIIS
   @DF-RHF iter   9: -2359.19691003349453   -5.07256e-06   2.59832e-07 DIIS
   @DF-RHF iter  10: -2359.19691027526051   -2.41766e-07   8.72349e-08 DIIS
   @DF-RHF iter  11: -2359.19691029310343   -1.78429e-08   3.31968e-08 DIIS
   @DF-RHF iter  12: -2359.19691029674914   -3.64571e-09   1.48688e-08 DIIS
   @DF-RHF iter  13: -2359.19691029728847   -5.39330e-10   7.04882e-09 DIIS
  Energy and wave function converged.


  ==> Post-Iterations <==

    Orbital Energies [Eh]
    ---------------------

    Doubly Occupied:                                                      

       1A    -15.825459     2A    -15.824937     3A    -11.520149  
       4A    -11.451599     5A    -11.450044     6A    -11.440297  
       7A    -11.440203     8A    -11.317889     9A    -11.317268  
      10A    -11.317079    11A    -11.316582    12A    -11.316210  
      13A    -11.316135    14A    -11.315686    15A    -11.315649  
      16A    -11.315352    17A    -11.314967    18A    -11.314865  
      19A    -11.314490    20A    -11.314478    21A    -11.314362  
      22A    -11.314341    23A    -11.314061    24A    -11.314057  
      25A    -11.313917    26A    -11.313844    27A    -11.313660  
      28A    -11.313191    29A    -11.313182    30A    -11.313092  
      31A    -11.313055    32A    -11.312681    33A    -11.312676  
      34A    -11.312468    35A    -11.312427    36A    -11.311903  
      37A    -11.311815    38A    -11.311770    39A    -11.311767  
      40A    -11.311362    41A    -11.311331    42A    -11.310636  
      43A    -11.310549    44A    -11.307361    45A    -11.307237  
      46A    -11.307222    47A    -11.306699    48A    -11.306693  
      49A    -11.305798    50A    -11.305795    51A    -11.305773  
      52A    -11.305767    53A    -11.305159    54A    -11.305155  
      55A    -11.304302    56A    -11.304297    57A    -11.304255  
      58A    -11.303866    59A    -11.303858    60A    -11.302428  
      61A    -11.302422    62A     -1.569220    63A     -1.424736  
      64A     -1.300639    65A     -1.275661    66A     -1.275554  
      67A     -1.244849    68A     -1.244844    69A     -1.236862  
      70A     -1.229850    71A     -1.212338    72A     -1.204173  
      73A     -1.191190    74A     -1.191111    75A     -1.180122  
      76A     -1.167898    77A     -1.167882    78A     -1.137865  
      79A     -1.137855    80A     -1.134044    81A     -1.120539  
      82A     -1.120519    83A     -1.109670    84A     -1.094278  
      85A     -1.080088    86A     -1.077578    87A     -1.077533  
      88A     -1.072342    89A     -1.067174    90A     -1.042255  
      91A     -1.042247    92A     -1.016557    93A     -1.016541  
      94A     -1.013742    95A     -0.987787    96A     -0.949103  
      97A     -0.949049    98A     -0.943709    99A     -0.941897  
     100A     -0.941806   101A     -0.936653   102A     -0.936633  
     103A     -0.916529   104A     -0.907918   105A     -0.891383  
     106A     -0.873051   107A     -0.872063   108A     -0.867284  
     109A     -0.867281   110A     -0.849033   111A     -0.849017  
     112A     -0.841465   113A     -0.807537   114A     -0.803686  
     115A     -0.802105   116A     -0.800151   117A     -0.788702  
     118A     -0.788637   119A     -0.786560   120A     -0.786490  
     121A     -0.781289   122A     -0.777116   123A     -0.773283  
     124A     -0.771399   125A     -0.753660   126A     -0.753589  
     127A     -0.748494   128A     -0.748427   129A     -0.720235  
     130A     -0.716387   131A     -0.715536   132A     -0.708057  
     133A     -0.708040   134A     -0.706445   135A     -0.704464  
     136A     -0.704461   137A     -0.693893   138A     -0.693877  
     139A     -0.684689   140A     -0.682476   141A     -0.682459  
     142A     -0.663362   143A     -0.659035   144A     -0.656846  
     145A     -0.654209   146A     -0.654141   147A     -0.648777  
     148A     -0.646618   149A     -0.646579   150A     -0.639021  
     151A     -0.632407   152A     -0.632259   153A     -0.621471  
     154A     -0.621437   155A     -0.621023   156A     -0.620936  
     157A     -0.613772   158A     -0.609017   159A     -0.608945  
     160A     -0.593590   161A     -0.593587   162A     -0.592856  
     163A     -0.592788   164A     -0.587407   165A     -0.584312  
     166A     -0.584251   167A     -0.577520   168A     -0.577464  
     169A     -0.554639   170A     -0.550339   171A     -0.547558  
     172A     -0.543035   173A     -0.540123   174A     -0.536492  
     175A     -0.536431   176A     -0.526201   177A     -0.526105  
     178A     -0.515362   179A     -0.506497   180A     -0.506367  
     181A     -0.493667   182A     -0.493647   183A     -0.460350  
     184A     -0.460348   185A     -0.459017   186A     -0.429804  
     187A     -0.429798   188A     -0.404131   189A     -0.394049  
     190A     -0.392951   191A     -0.392928   192A     -0.365895  
     193A     -0.352072   194A     -0.340049   195A     -0.340039  
     196A     -0.279849   197A     -0.279833  

    Virtual:                                                              

     198A     -0.059702   199A     -0.054293   200A     -0.046728  
     201A     -0.041004   202A     -0.040902   203A     -0.040443  
     204A     -0.024102   205A     -0.022085   206A     -0.021527  
     207A     -0.017241   208A     -0.001795   209A      0.001943  
     210A      0.002188   211A      0.003172   212A      0.004083  
     213A      0.005766   214A      0.006289   215A      0.009126  
     216A      0.009245   217A      0.010423   218A      0.010683  
     219A      0.012006   220A      0.014167   221A      0.018284  
     222A      0.024499   223A      0.028720   224A      0.029202  
     225A      0.029587   226A      0.031033   227A      0.031745  
     228A      0.031794   229A      0.034151   230A      0.035822  
     231A      0.038729   232A      0.042198   233A      0.044044  
     234A      0.044456   235A      0.044650   236A      0.045279  
     237A      0.048139   238A      0.048544   239A      0.053872  
     240A      0.056442   241A      0.057219   242A      0.063300  
     243A      0.064043   244A      0.064249   245A      0.064886  
     246A      0.069393   247A      0.071133   248A      0.071426  
     249A      0.072804   250A      0.074263   251A      0.077101  
     252A      0.079224   253A      0.083798   254A      0.084092  
     255A      0.085059   256A      0.086983   257A      0.087601  
     258A      0.087682   259A      0.088780   260A      0.091532  
     261A      0.092169   262A      0.095461   263A      0.097658  
     264A      0.102430   265A      0.102599   266A      0.105827  
     267A      0.106000   268A      0.107919   269A      0.110586  
     270A      0.111840   271A      0.114147   272A      0.116733  
     273A      0.119237   274A      0.120685   275A      0.123055  
     276A      0.126774   277A      0.129435   278A      0.130014  
     279A      0.132461   280A      0.133210   281A      0.134671  
     282A      0.135446   283A      0.136859   284A      0.137675  
     285A      0.139397   286A      0.139549   287A      0.141246  
     288A      0.142070   289A      0.144291   290A      0.146117  
     291A      0.146825   292A      0.147984   293A      0.151500  
     294A      0.153456   295A      0.156180   296A      0.157694  
     297A      0.158192   298A      0.161766   299A      0.162264  
     300A      0.162341   301A      0.163099   302A      0.163699  
     303A      0.164533   304A      0.166565   305A      0.167632  
     306A      0.169332   307A      0.169848   308A      0.173699  
     309A      0.174638   310A      0.176690   311A      0.177953  
     312A      0.178360   313A      0.179204   314A      0.180980  
     315A      0.181661   316A      0.182034   317A      0.184059  
     318A      0.184385   319A      0.185297   320A      0.188495  
     321A      0.191914   322A      0.193561   323A      0.195091  
     324A      0.196239   325A      0.198185   326A      0.198852  
     327A      0.201537   328A      0.202621   329A      0.203652  
     330A      0.204098   331A      0.205621   332A      0.206853  
     333A      0.207184   334A      0.207956   335A      0.211610  
     336A      0.215202   337A      0.215793   338A      0.215930  
     339A      0.217796   340A      0.218316   341A      0.218380  
     342A      0.219207   343A      0.220398   344A      0.222728  
     345A      0.222905   346A      0.228449   347A      0.230576  
     348A      0.231766   349A      0.235330   350A      0.236146  
     351A      0.237286   352A      0.242352   353A      0.242889  
     354A      0.245501   355A      0.245846   356A      0.250953  
     357A      0.251301   358A      0.252582   359A      0.253028  
     360A      0.255297   361A      0.256478   362A      0.257634  
     363A      0.257975   364A      0.259604   365A      0.260081  
     366A      0.260478   367A      0.261050   368A      0.263029  
     369A      0.264826   370A      0.265533   371A      0.267115  
     372A      0.269504   373A      0.269990   374A      0.270199  
     375A      0.270689   376A      0.272567   377A      0.273275  
     378A      0.275876   379A      0.277274   380A      0.279346  
     381A      0.280534   382A      0.281446   383A      0.283653  
     384A      0.287875   385A      0.291383   386A      0.292107  
     387A      0.293734   388A      0.295105   389A      0.296406  
     390A      0.297344   391A      0.299181   392A      0.299619  
     393A      0.300575   394A      0.302518   395A      0.303115  
     396A      0.303225   397A      0.307881   398A      0.310072  
     399A      0.313474   400A      0.314531   401A      0.316900  
     402A      0.319099   403A      0.320461   404A      0.321311  
     405A      0.321430   406A      0.324448   407A      0.325674  
     408A      0.331132   409A      0.331588   410A      0.332123  
     411A      0.336620   412A      0.337425   413A      0.338184  
     414A      0.338833   415A      0.339682   416A      0.340124  
     417A      0.342415   418A      0.343874   419A      0.344862  
     420A      0.345383   421A      0.346149   422A      0.349501  
     423A      0.350518   424A      0.350752   425A      0.353021  
     426A      0.353148   427A      0.353296   428A      0.354483  
     429A      0.354780   430A      0.356393   431A      0.357606  
     432A      0.359584   433A      0.361975   434A      0.367094  
     435A      0.367232   436A      0.368746   437A      0.370418  
     438A      0.370531   439A      0.374213   440A      0.381252  
     441A      0.383024   442A      0.383299   443A      0.385768  
     444A      0.390185   445A      0.390408   446A      0.391706  
     447A      0.391887   448A      0.395497   449A      0.396904  
     450A      0.397536   451A      0.398347   452A      0.399654  
     453A      0.404382   454A      0.404745   455A      0.406500  
     456A      0.406668   457A      0.407343   458A      0.409013  
     459A      0.411342   460A      0.413377   461A      0.414985  
     462A      0.415292   463A      0.418117   464A      0.420101  
     465A      0.423551   466A      0.428275   467A      0.428575  
     468A      0.429985   469A      0.430917   470A      0.439896  
     471A      0.439944   472A      0.441188   473A      0.441813  
     474A      0.442548   475A      0.444290   476A      0.446634  
     477A      0.448152   478A      0.448330   479A      0.453060  
     480A      0.454813   481A      0.456916   482A      0.459079  
     483A      0.459304   484A      0.460585   485A      0.462714  
     486A      0.465180   487A      0.465876   488A      0.471149  
     489A      0.472258   490A      0.472449   491A      0.480056  
     492A      0.484555   493A      0.486236   494A      0.488347  
     495A      0.490275   496A      0.494139   497A      0.494370  
     498A      0.494805   499A      0.498450   500A      0.498685  
     501A      0.499679   502A      0.501657   503A      0.501755  
     504A      0.506552   505A      0.506764   506A      0.507715  
     507A      0.508088   508A      0.515009   509A      0.515554  
     510A      0.516794   511A      0.531994   512A      0.532877  
     513A      0.542370   514A      0.542986   515A      0.543830  
     516A      0.550304   517A      0.559873   518A      0.559958  
     519A      0.566179   520A      0.567278   521A      0.572610  
     522A      0.572737   523A      0.573062   524A      0.590031  
     525A      0.594942   526A      0.595386   527A      0.600046  
     528A      0.612577   529A      0.612945   530A      0.615544  
     531A      0.617296   532A      0.623089   533A      0.623345  
     534A      0.626916   535A      0.636405   536A      0.656772  
     537A      0.661501   538A      0.661996   539A      0.662528  
     540A      0.671593   541A      0.678257   542A      0.685867  
     543A      0.686552   544A      0.689075   545A      0.689381  
     546A      0.689939   547A      0.691241   548A      0.694964  
     549A      0.702339   550A      0.703121   551A      0.703549  
     552A      0.707946   553A      0.710135   554A      0.714849  
     555A      0.719788   556A      0.727375   557A      0.736955  
     558A      0.740744   559A      0.743172   560A      0.746809  
     561A      0.748765   562A      0.751898   563A      0.753519  
     564A      0.757141   565A      0.760213   566A      0.761376  
     567A      0.761945   568A      0.765571   569A      0.771808  
     570A      0.773395   571A      0.774157   572A      0.776055  
     573A      0.777482   574A      0.782391   575A      0.785643  
     576A      0.787922   577A      0.790131   578A      0.794423  
     579A      0.800786   580A      0.802987   581A      0.804661  
     582A      0.808102   583A      0.810809   584A      0.812339  
     585A      0.817650   586A      0.819014   587A      0.819550  
     588A      0.821064   589A      0.822033   590A      0.823816  
     591A      0.824176   592A      0.827948   593A      0.833457  
     594A      0.835152   595A      0.835536   596A      0.840335  
     597A      0.842785   598A      0.844016   599A      0.845680  
     600A      0.848031   601A      0.854152   602A      0.854650  
     603A      0.856017   604A      0.856411   605A      0.858274  
     606A      0.861440   607A      0.862288   608A      0.863321  
     609A      0.868196   610A      0.868500   611A      0.871573  
     612A      0.874551   613A      0.878016   614A      0.878735  
     615A      0.881345   616A      0.881972   617A      0.882647  
     618A      0.887944   619A      0.888490   620A      0.890849  
     621A      0.892365   622A      0.896835   623A      0.900970  
     624A      0.903236   625A      0.903576   626A      0.911488  
     627A      0.916452   628A      0.916760   629A      0.917481  
     630A      0.917868   631A      0.919363   632A      0.919729  
     633A      0.923054   634A      0.924973   635A      0.926356  
     636A      0.933587   637A      0.933753   638A      0.939832  
     639A      0.944091   640A      0.944543   641A      0.951108  
     642A      0.955187   643A      0.959522   644A      0.961695  
     645A      0.962582   646A      0.963319   647A      0.965098  
     648A      0.965609   649A      0.973958   650A      0.977136  
     651A      0.979894   652A      0.981192   653A      0.981465  
     654A      0.982822   655A      0.984076   656A      0.985402  
     657A      0.986012   658A      0.987040   659A      0.987364  
     660A      0.990665   661A      0.990695   662A      0.991365  
     663A      0.992110   664A      0.992995   665A      0.994872  
     666A      1.000383   667A      1.000594   668A      1.006209  
     669A      1.006913   670A      1.007083   671A      1.007591  
     672A      1.014380   673A      1.016010   674A      1.017229  
     675A      1.018124   676A      1.018403   677A      1.024355  
     678A      1.025532   679A      1.028408   680A      1.029220  
     681A      1.029711   682A      1.030136   683A      1.032047  
     684A      1.035111   685A      1.038175   686A      1.042257  
     687A      1.049167   688A      1.050220   689A      1.050773  
     690A      1.055896   691A      1.058955   692A      1.061863  
     693A      1.061941   694A      1.062132   695A      1.062368  
     696A      1.065855   697A      1.067122   698A      1.071519  
     699A      1.071699   700A      1.074159   701A      1.078247  
     702A      1.080164   703A      1.080407   704A      1.086030  
     705A      1.086097   706A      1.086846   707A      1.089050  
     708A      1.090582   709A      1.099944   710A      1.107147  
     711A      1.112811   712A      1.113047   713A      1.119538  
     714A      1.122014   715A      1.123004   716A      1.123127  
     717A      1.127980   718A      1.128513   719A      1.130061  
     720A      1.134705   721A      1.141918   722A      1.142704  
     723A      1.144838   724A      1.145320   725A      1.148576  
     726A      1.156289   727A      1.158403   728A      1.163788  
     729A      1.163821   730A      1.166417   731A      1.168819  
     732A      1.168852   733A      1.173114   734A      1.183610  
     735A      1.185610   736A      1.186211   737A      1.203515  
     738A      1.205440   739A      1.208011   740A      1.208104  
     741A      1.208783   742A      1.209395   743A      1.211559  
     744A      1.212184   745A      1.214573   746A      1.223368  
     747A      1.225164   748A      1.240318   749A      1.240643  
     750A      1.242859   751A      1.243762   752A      1.244122  
     753A      1.244915   754A      1.254498   755A      1.254524  
     756A      1.255381   757A      1.255725   758A      1.264787  
     759A      1.265340   760A      1.266293   761A      1.266954  
     762A      1.275040   763A      1.275368   764A      1.276914  
     765A      1.279268   766A      1.282131   767A      1.287047  
     768A      1.287376   769A      1.288349   770A      1.291213  
     771A      1.294231   772A      1.299510   773A      1.299519  
     774A      1.304334   775A      1.304611   776A      1.305198  
     777A      1.306220   778A      1.310988   779A      1.311533  
     780A      1.326588   781A      1.330181   782A      1.336770  
     783A      1.344545   784A      1.349362   785A      1.349849  
     786A      1.352932   787A      1.353054   788A      1.355181  
     789A      1.358389   790A      1.358773   791A      1.364820  
     792A      1.369194   793A      1.371083   794A      1.372540  
     795A      1.373956   796A      1.375939   797A      1.382420  
     798A      1.382531   799A      1.383506   800A      1.385083  
     801A      1.385910   802A      1.386214   803A      1.394524  
     804A      1.394875   805A      1.395999   806A      1.408156  
     807A      1.408205   808A      1.417693   809A      1.418560  
     810A      1.432241   811A      1.462248   812A      1.462357  
     813A      1.466071   814A      1.466096   815A      1.474129  
     816A      1.477384   817A      1.486951   818A      1.497106  
     819A      1.512138   820A      1.519655   821A      1.527282  
     822A      1.542555   823A      1.544293   824A      1.544730  
     825A      1.552699   826A      1.552751   827A      1.553928  
     828A      1.556333   829A      1.556459   830A      1.560165  
     831A      1.566551   832A      1.566863   833A      1.572400  
     834A      1.574157   835A      1.574343   836A      1.585104  
     837A      1.585155   838A      1.588030   839A      1.588083  
     840A      1.588306   841A      1.588492   842A      1.595205  
     843A      1.606250   844A      1.606268   845A      1.612615  
     846A      1.615001   847A      1.620219   848A      1.620350  
     849A      1.621634   850A      1.622390   851A      1.622495  
     852A      1.628037   853A      1.628845   854A      1.631514  
     855A      1.631609   856A      1.641402   857A      1.642635  
     858A      1.644900   859A      1.644953   860A      1.645646  
     861A      1.648883   862A      1.648956   863A      1.661414  
     864A      1.661550   865A      1.670830   866A      1.678881  
     867A      1.686733   868A      1.690288   869A      1.696038  
     870A      1.701622   871A      1.706169   872A      1.706557  
     873A      1.707246   874A      1.708838   875A      1.722080  
     876A      1.722132   877A      1.736852   878A      1.736904  
     879A      1.742269   880A      1.755784   881A      1.758075  
     882A      1.761200   883A      1.762128   884A      1.762466  
     885A      1.764705   886A      1.765522   887A      1.769126  
     888A      1.769288   889A      1.776086   890A      1.776193  
     891A      1.782631   892A      1.787055   893A      1.787323  
     894A      1.792487   895A      1.806346   896A      1.806489  
     897A      1.806738   898A      1.807158   899A      1.810146  
     900A      1.814180   901A      1.817296   902A      1.817769  
     903A      1.820348   904A      1.824852   905A      1.824918  
     906A      1.826481   907A      1.841401   908A      1.841488  
     909A      1.845533   910A      1.849411   911A      1.849794  
     912A      1.853283   913A      1.853518   914A      1.854055  
     915A      1.859942   916A      1.861103   917A      1.862736  
     918A      1.862882   919A      1.864127   920A      1.866759  
     921A      1.867123   922A      1.867293   923A      1.877553  
     924A      1.885615   925A      1.887486   926A      1.887630  
     927A      1.887921   928A      1.893504   929A      1.893861  
     930A      1.898650   931A      1.898716   932A      1.899320  
     933A      1.899700   934A      1.903148   935A      1.904401  
     936A      1.907609   937A      1.916628   938A      1.927400  
     939A      1.927480   940A      1.935504   941A      1.942537  
     942A      1.944303   943A      1.944414   944A      1.950377  
     945A      1.954478   946A      1.956567   947A      1.958146  
     948A      1.958330   949A      1.972568   950A      1.972846  
     951A      1.975458   952A      1.975630   953A      1.975785  
     954A      1.976216   955A      1.976717   956A      1.976975  
     957A      1.993651   958A      1.997622   959A      1.997890  
     960A      2.002507   961A      2.003263   962A      2.004704  
     963A      2.006044   964A      2.012735   965A      2.014154  
     966A      2.015625   967A      2.016177   968A      2.016712  
     969A      2.020614   970A      2.021411   971A      2.025975  
     972A      2.029119   973A      2.029899   974A      2.038576  
     975A      2.040041   976A      2.042438   977A      2.042584  
     978A      2.045884   979A      2.046084   980A      2.049529  
     981A      2.053047   982A      2.053461   983A      2.053678  
     984A      2.054143   985A      2.054757   986A      2.055297  
     987A      2.060067   988A      2.064716   989A      2.064867  
     990A      2.065733   991A      2.065969   992A      2.071766  
     993A      2.072100   994A      2.075509   995A      2.078723  
     996A      2.079932   997A      2.081762   998A      2.081977  
     999A      2.088918  1000A      2.088940  1001A      2.098896  
    1002A      2.101394  1003A      2.104288  1004A      2.105058  
    1005A      2.107944  1006A      2.108101  1007A      2.115661  
    1008A      2.123837  1009A      2.123929  1010A      2.136718  
    1011A      2.137243  1012A      2.137333  1013A      2.139752  
    1014A      2.139768  1015A      2.140737  1016A      2.142666  
    1017A      2.144423  1018A      2.152896  1019A      2.164768  
    1020A      2.164864  1021A      2.165049  1022A      2.166679  
    1023A      2.172256  1024A      2.173203  1025A      2.173459  
    1026A      2.174197  1027A      2.189591  1028A      2.189916  
    1029A      2.190733  1030A      2.190885  1031A      2.193856  
    1032A      2.206563  1033A      2.206660  1034A      2.207428  
    1035A      2.215746  1036A      2.215786  1037A      2.218123  
    1038A      2.218152  1039A      2.228006  1040A      2.231736  
    1041A      2.246196  1042A      2.252476  1043A      2.255314  
    1044A      2.255395  1045A      2.257627  1046A      2.265705  
    1047A      2.266994  1048A      2.275066  1049A      2.275146  
    1050A      2.275768  1051A      2.278378  1052A      2.295433  
    1053A      2.296096  1054A      2.297783  1055A      2.297818  
    1056A      2.302493  1057A      2.311082  1058A      2.311225  
    1059A      2.318561  1060A      2.324996  1061A      2.332893  
    1062A      2.341989  1063A      2.361842  1064A      2.369073  
    1065A      2.369810  1066A      2.369818  1067A      2.382314  
    1068A      2.386004  1069A      2.386067  1070A      2.415132  
    1071A      2.418306  1072A      2.418774  1073A      2.430994  
    1074A      2.431078  1075A      2.447642  1076A      2.450635  
    1077A      2.465252  1078A      2.467887  1079A      2.475011  
    1080A      2.475413  1081A      2.489397  1082A      2.491278  
    1083A      2.491610  1084A      2.499166  1085A      2.500845  
    1086A      2.500999  1087A      2.504270  1088A      2.505212  
    1089A      2.505264  1090A      2.518136  1091A      2.518173  
    1092A      2.521197  1093A      2.521690  1094A      2.531757  
    1095A      2.532118  1096A      2.532617  1097A      2.535284  
    1098A      2.538112  1099A      2.551913  1100A      2.569554  
    1101A      2.569628  1102A      2.570234  1103A      2.575821  
    1104A      2.576794  1105A      2.579224  1106A      2.587190  
    1107A      2.587233  1108A      2.597106  1109A      2.597505  
    1110A      2.602775  1111A      2.610119  1112A      2.626897  
    1113A      2.628018  1114A      2.629685  1115A      2.633390  
    1116A      2.641757  1117A      2.646064  1118A      2.646507  
    1119A      2.657738  1120A      2.657824  1121A      2.663560  
    1122A      2.663586  1123A      2.665622  1124A      2.667783  
    1125A      2.669276  1126A      2.679310  1127A      2.684129  
    1128A      2.684875  1129A      2.693877  1130A      2.698172  
    1131A      2.698505  1132A      2.711283  1133A      2.721666  
    1134A      2.739412  1135A      2.739735  1136A      2.742046  
    1137A      2.752651  1138A      2.761100  1139A      2.771677  
    1140A      2.773114  1141A      2.795011  1142A      2.797088  
    1143A      2.800001  1144A      2.800437  1145A      2.802389  
    1146A      2.804241  1147A      2.804534  1148A      2.812747  
    1149A      2.863122  1150A      2.863475  1151A      2.869579  
    1152A      2.879698  1153A      2.879729  1154A      2.895231  
    1155A      2.895265  1156A      2.908794  1157A      2.922510  
    1158A      2.951887  1159A      2.952168  1160A      2.958445  
    1161A      2.975650  1162A      2.980869  1163A      3.008604  
    1164A      3.008750  1165A      3.015721  1166A      3.015751  
    1167A      3.051747  1168A      3.055302  1169A      3.055996  
    1170A      3.069604  1171A      3.074326  1172A      3.075194  
    1173A      3.075454  1174A      3.083255  1175A      3.091202  
    1176A      3.092149  1177A      3.093162  1178A      3.094930  
    1179A      3.095039  1180A      3.103520  1181A      3.104029  
    1182A      3.111618  1183A      3.112122  1184A      3.137964  
    1185A      3.157475  1186A      3.163389  1187A      3.183043  
    1188A      3.217463  1189A      3.221845  1190A      3.222051  
    1191A      3.227256  1192A      3.227574  1193A      3.360878  
    1194A      3.361458  1195A      3.385116  1196A      3.425740  
    1197A      3.428283  1198A      3.444351  1199A      3.493277  
    1200A      3.521030  1201A      3.522877  1202A      3.533321  
    1203A      3.537998  1204A      3.571552  1205A      3.573532  
    1206A      3.608031  1207A      3.613588  1208A      3.714023  
    1209A      3.727069  1210A      3.728039  1211A      3.816436  
    1212A      3.816453  1213A      3.858439  1214A      3.858594  
    1215A      3.921466  1216A      3.955318  1217A      3.975985  
    1218A      3.987844  1219A      4.024033  

    Final Occupation by Irrep:
              A 
    DOCC [   197 ]
    NA   [   197 ]
    NB   [   197 ]

  @DF-RHF Final Energy: -2359.19691029728847

   => Energetics <=

    Nuclear Repulsion Energy =           7781.8270545151135593
    One-Electron Energy =              -18669.9912313922504836
    Two-Electron Energy =                8528.9672665798480011
    Total Energy =                      -2359.1969102972889232

Computation Completed


Properties will be evaluated at   0.000000,   0.000000,   0.000000 [a0]

Properties computed using the SCF density matrix


 Multipole Moments:

 ------------------------------------------------------------------------------------
     Multipole            Electronic (a.u.)      Nuclear  (a.u.)        Total (a.u.)
 ------------------------------------------------------------------------------------

 L = 1.  Multiply by 2.5417464519 to convert [e a0] to [Debye]
 Dipole X            :         -0.0013451            0.0006313           -0.0007138
 Dipole Y            :         -5.5167100            7.4856329            1.9689230
 Dipole Z            :         27.8200442          -39.8145932          -11.9945489
 Magnitude           :                                                   12.1550756

 ------------------------------------------------------------------------------------

*** tstop() called on d-16-5-1 at Mon Jan 22 22:28:30 2024
Module time:
	user time   =    4464.08 seconds =      74.40 minutes
	system time =     120.14 seconds =       2.00 minutes
	total time  =        465 seconds =       7.75 minutes
Total time:
	user time   =    4464.08 seconds =      74.40 minutes
	system time =     120.14 seconds =       2.00 minutes
	total time  =        465 seconds =       7.75 minutes

  //>>>>>>>>>>>>>>>>>>>>>>>>>>>>>>>>>>>//
  //            Monomer A HF           //
  //<<<<<<<<<<<<<<<<<<<<<<<<<<<<<<<<<<<//

   => Libint2 <=

    Primary   basis highest AM E, G, H:  7, 7, 4
    Auxiliary basis highest AM E, G, H:  7, 7, 5
    Onebody   basis highest AM E, G, H:  7, 7, 5
    Solid Harmonics ordering:            gaussian

*** tstart() called on d-16-5-1
*** at Mon Jan 22 22:28:30 2024

   => Loading Basis Set <=

    Name: JUN-CC-PVDZ
    Role: ORBITAL
    Keyword: BASIS
    atoms 1-2, 4-5, 10, 17-70 entry C          line   164 file /home/gridsan/tfroembgen/.conda/envs/psi4test/share/psi4/basis/jun-cc-pvdz.gbs 
    atoms 3, 6                entry N          line   198 file /home/gridsan/tfroembgen/.conda/envs/psi4test/share/psi4/basis/jun-cc-pvdz.gbs 
    atoms 7-9, 11-16, 71-88   entry H          line    36 file /home/gridsan/tfroembgen/.conda/envs/psi4test/share/psi4/basis/jun-cc-pvdz.gbs 


         ---------------------------------------------------------
                                   SCF
               by Justin Turney, Rob Parrish, Andy Simmonett
                          and Daniel G. A. Smith
                              RHF Reference
                       12 Threads,  30517 MiB Core
         ---------------------------------------------------------

  ==> Geometry <==

    Molecular point group: c1
    Full point group: C1

    Geometry (in Angstrom), charge = 1, multiplicity = 1:

       Center              X                  Y                   Z               Mass       
    ------------   -----------------  -----------------  -----------------  -----------------
         C            0.680066520158     1.235968212970    -8.198380356379    12.000000000000
         C           -0.680504479842     1.237996212970    -8.197996356379    12.000000000000
         N           -1.085635479842     1.238994212970    -6.879672356379    14.003074004430
         C            0.000107520158     1.242270212970    -6.098271356379    12.000000000000
         C           -2.477365479842     1.288400212970    -6.411693356379    12.000000000000
         N            1.085221520158     1.238994212970    -6.879672356379    14.003074004430
         H            1.385145520158     1.228140212970    -9.015819356379     1.007825032230
         H           -1.385302479842     1.237806212970    -9.015665356379     1.007825032230
         H           -0.000009479842     1.244017212970    -5.017182356379     1.007825032230
         C            2.478116520158     1.222102212970    -6.414574356379    12.000000000000
         H            2.490591520158     1.249447212970    -5.324321356379     1.007825032230
         H            2.967027520158     0.308656212970    -6.761750356379     1.007825032230
         H            3.001427520158     2.097585212970    -6.806046356379     1.007825032230
         H           -2.857359479842     2.310471212970    -6.491652356379     1.007825032230
         H           -3.082679479842     0.618316212970    -7.024757356379     1.007825032230
         H           -2.518128479842     0.961416212970    -5.371745356379     1.007825032230
      Gh(C)           1.225311895423     0.526248873889     1.023686270905    12.000000000000
      Gh(C)           1.225323856051    -0.888828309601     1.011355461334    12.000000000000
      Gh(C)          -0.000006153932     1.233676499060     1.010821837813    12.000000000000
      Gh(C)           2.456448753949     1.237038472148     1.026573128304    12.000000000000
      Gh(C)           0.000010827279    -1.596265913665     1.021021395138    12.000000000000
      Gh(C)          -1.225300948908     0.526255958954     1.025937791227    12.000000000000
      Gh(C)           2.456437755320    -1.599612718911     1.009110304477    12.000000000000
      Gh(C)          -0.000001332978     2.655511616251     1.008418287679    12.000000000000
      Gh(C)           3.681826697470     0.528028540971     1.009459094275    12.000000000000
      Gh(C)           2.455120048865     2.652934246459     1.009356537315    12.000000000000
      Gh(C)           3.681821105219    -0.890623254459     1.025531578294    12.000000000000
      Gh(C)          -1.225313598688    -0.888816930574     1.012428222761    12.000000000000
      Gh(C)           1.226699581202     3.362180068964     1.025715610224    12.000000000000
      Gh(C)           0.000004784858    -3.018071554266     1.025869562760    12.000000000000
      Gh(C)          -2.456436032848     1.237027503255     1.025973187073    12.000000000000
      Gh(C)           2.455123417779    -3.015519443619     1.025379669926    12.000000000000
      Gh(C)          -1.226714364589     3.362179648720     1.025818943444    12.000000000000
      Gh(C)           4.914517295202     1.245883457459     1.015939777305    12.000000000000
      Gh(C)           3.693150191476     3.361505877515     1.015989576941    12.000000000000
      Gh(C)          -2.456437600068    -1.599602695869     1.009085266353    12.000000000000
      Gh(C)           1.226704841943    -3.724763656937     1.009745479475    12.000000000000
      Gh(C)          -2.455125398508     2.652927247604     1.009362913661    12.000000000000
      Gh(C)           4.914524380782    -1.608476324974     1.018912520039    12.000000000000
      Gh(C)           1.221424613699     4.788844650230     1.019050954299    12.000000000000
      Gh(C)           4.893008229321     2.643898584996     1.017156445663    12.000000000000
      Gh(C)          -1.226697008489    -3.724760412107     1.010012683884    12.000000000000
      Gh(C)          -3.681818976526     0.528035551702     1.009471774755    12.000000000000
      Gh(C)           3.693147101150    -3.724090756421     1.019030410600    12.000000000000
      Gh(C)          -1.221432251994     4.788838882833     1.019234449672    12.000000000000
      Gh(C)           6.134770972926     0.499258532075     1.016709551855    12.000000000000
      Gh(C)           3.656788880610     4.791663828537     1.016898214724    12.000000000000
      Gh(C)          -2.455126907733    -3.015504508091     1.025135312128    12.000000000000
      Gh(C)          -3.681819179061    -0.890615118499     1.025649199872    12.000000000000
      Gh(C)           4.893012617914    -3.006489520662     1.017767597559    12.000000000000
      Gh(C)          -0.000001073113     5.469157951002     1.018003140965    12.000000000000
      Gh(C)           6.134775112332    -0.861844269105     1.017974872370    12.000000000000
      Gh(C)           2.478131482856     5.472287336301     1.018186994373    12.000000000000
      Gh(C)           1.221422404738    -5.151416469963     1.016251457276    12.000000000000
      Gh(C)          -3.693162383965     3.361507539162     1.016155084400    12.000000000000
      Gh(C)          -1.221428520945    -5.151407718626     1.016138695444    12.000000000000
      Gh(C)          -4.914521807942     1.245886031965     1.016016722312    12.000000000000
      Gh(C)           3.656787019679    -5.154244641269     1.018348715258    12.000000000000
      Gh(C)          -2.478138530106     5.472285007498     1.018471519382    12.000000000000
      Gh(C)          -3.693141738564    -3.724079634009     1.018914284444    12.000000000000
      Gh(C)          -4.914512483053    -1.608470415058     1.018947217213    12.000000000000
      Gh(C)          -0.000006008926    -5.831727702044     1.017607636844    12.000000000000
      Gh(C)          -4.893020484101     2.643899183889     1.017146363803    12.000000000000
      Gh(C)           2.478125993298    -5.834862958919     1.017258114465    12.000000000000
      Gh(C)          -3.656798710258     4.791666767011     1.017074895098    12.000000000000
      Gh(C)          -4.892999478856    -3.006481182090     1.017613561861    12.000000000000
      Gh(C)          -2.478128498083    -5.834855585037     1.016982926818    12.000000000000
      Gh(C)          -6.134770503331     0.499259351226     1.016684000152    12.000000000000
      Gh(C)          -3.656788833189    -5.154233438001     1.018134427441    12.000000000000
      Gh(C)          -6.134765042913    -0.861843330512     1.017954396575    12.000000000000
      Gh(H)           5.835288495816     3.187986479924     1.021515771326     1.007825032230
      Gh(H)           7.073859172747     1.046927833869     1.017171195248     1.007825032230
      Gh(H)           4.600663264174     5.331091387423     1.017403415476     1.007825032230
      Gh(H)           5.835283387305    -3.550595471759     1.013313130244     1.007825032230
      Gh(H)          -0.000012151306     6.557241259106     1.013653895957     1.007825032230
      Gh(H)           7.073861171831    -1.409516357774     1.017466134276     1.007825032230
      Gh(H)           2.473313731799     6.559394876364     1.017720273443     1.007825032230
      Gh(H)           4.600668491381    -5.693665544206     1.017938718089     1.007825032230
      Gh(H)          -2.473318680537     6.559392304576     1.018021620068     1.007825032230
      Gh(H)          -0.000010268228    -6.919817591482     1.022137321828     1.007825032230
      Gh(H)          -5.835301914343     3.187981535266     1.021651793474     1.007825032230
      Gh(H)           2.473307923831    -6.921974789459     1.017828444890     1.007825032230
      Gh(H)          -4.600674841208     5.331088611573     1.017568743799     1.007825032230
      Gh(H)          -5.835279506835    -3.550578378810     1.013033824364     1.007825032230
      Gh(H)          -2.473300347440    -6.921968493170     1.017379128346     1.007825032230
      Gh(H)          -7.073857766768     1.046931057810     1.017087203767     1.007825032230
      Gh(H)          -4.600673786085    -5.693652084817     1.017766410067     1.007825032230
      Gh(H)          -7.073856934409    -1.409510047007     1.017371277810     1.007825032230

  Running in c1 symmetry.

  Rotational constants: A =      0.00130  B =      0.00127  C =      0.00106 [cm^-1]
  Rotational constants: A =     38.92175  B =     38.08156  C =     31.63445 [MHz]
  Nuclear repulsion =  306.774908447733196

  Charge       = 1
  Multiplicity = 1
  Electrons    = 52
  Nalpha       = 26
  Nbeta        = 26

  ==> Algorithm <==

  SCF Algorithm Type is DF.
  DIIS enabled.
  MOM disabled.
  Fractional occupation disabled.
  Guess Type is SAD.
  Energy threshold   = 1.00e-08
  Density threshold  = 1.00e-08
  Integral threshold = 1.00e-12

  ==> Primary Basis <==

  Basis Set: JUN-CC-PVDZ
    Blend: JUN-CC-PVDZ
    Number of shells: 569
    Number of basis functions: 1233
    Number of Cartesian functions: 1294
    Spherical Harmonics?: true
    Max angular momentum: 2

   => Loading Basis Set <=

    Name: (JUN-CC-PVDZ AUX)
    Role: JKFIT
    Keyword: DF_BASIS_SCF
    atoms 1-2, 4-5, 10, 17-70 entry C          line   146 file /home/gridsan/tfroembgen/.conda/envs/psi4test/share/psi4/basis/jun-cc-pvdz-jkfit.gbs 
    atoms 3, 6                entry N          line   202 file /home/gridsan/tfroembgen/.conda/envs/psi4test/share/psi4/basis/jun-cc-pvdz-jkfit.gbs 
    atoms 7-9, 11-16, 71-88   entry H          line    70 file /home/gridsan/tfroembgen/.conda/envs/psi4test/share/psi4/basis/jun-cc-pvdz-jkfit.gbs 

  ==> Integral Setup <==

  ==> DiskDFJK: Density-Fitted J/K Matrices <==

    J tasked:                  Yes
    K tasked:                  Yes
    wK tasked:                  No
    OpenMP threads:             12
    Integrals threads:          12
    Memory [MiB]:            22888
    Algorithm:                Core
    Integral Cache:           LOAD
    Schwarz Cutoff:          1E-12
    Fitting Condition:       1E-10

   => Auxiliary Basis Set <=

  Basis Set: (JUN-CC-PVDZ AUX)
    Blend: JUN-CC-PVDZ-JKFIT
    Number of shells: 1890
    Number of basis functions: 5440
    Number of Cartesian functions: 6226
    Spherical Harmonics?: true
    Max angular momentum: 3

  Minimum eigenvalue in the overlap matrix is 8.3985703471E-10.
  Reciprocal condition number of the overlap matrix is 3.7567012628E-11.
    Using canonical orthogonalization.
  Overall, 14 of 1233 possible MOs eliminated.


  ==> Pre-Iterations <==

  SCF Guess: Superposition of Atomic Densities via on-the-fly atomic UHF (no occupation information).

   -------------------------
    Irrep   Nso     Nmo    
   -------------------------
     A       1233    1219 
   -------------------------
    Total    1233    1219
   -------------------------

  ==> Iterations <==

                           Total Energy        Delta E     RMS |[F,P]|

   @DF-RHF iter SAD:  -303.36533961083779   -3.03365e+02   0.00000e+00 
   @DF-RHF iter   1:  -303.16940803519071    1.95932e-01   3.44040e-04 ADIIS/DIIS
   @DF-RHF iter   2:  -303.28373729321174   -1.14329e-01   1.15858e-04 ADIIS/DIIS
   @DF-RHF iter   3:  -303.29518203817054   -1.14447e-02   4.53153e-05 DIIS
   @DF-RHF iter   4:  -303.29708300619325   -1.90097e-03   9.88886e-06 DIIS
   @DF-RHF iter   5:  -303.29718842166716   -1.05415e-04   2.41053e-06 DIIS
   @DF-RHF iter   6:  -303.29719766783381   -9.24617e-06   6.54143e-07 DIIS
   @DF-RHF iter   7:  -303.29719873971379   -1.07188e-06   3.32027e-07 DIIS
   @DF-RHF iter   8:  -303.29719899191412   -2.52200e-07   1.33586e-07 DIIS
   @DF-RHF iter   9:  -303.29719904030759   -4.83935e-08   3.37102e-08 DIIS
   @DF-RHF iter  10:  -303.29719904313339   -2.82580e-09   1.26737e-08 DIIS
   @DF-RHF iter  11:  -303.29719904338072   -2.47326e-10   2.98984e-09 DIIS
  Energy and wave function converged.


  ==> Post-Iterations <==

    Orbital Energies [Eh]
    ---------------------

    Doubly Occupied:                                                      

       1A    -15.834666     2A    -15.834134     3A    -11.529553  
       4A    -11.459859     5A    -11.458305     6A    -11.449668  
       7A    -11.449553     8A     -1.578231     9A     -1.433822  
      10A     -1.238663    11A     -1.189307    12A     -1.118864  
      13A     -1.022533    14A     -0.996963    15A     -0.917044  
      16A     -0.850521    17A     -0.816256    18A     -0.813201  
      19A     -0.790127    20A     -0.786225    21A     -0.781770  
      22A     -0.729703    23A     -0.725781    24A     -0.717094  
      25A     -0.596300    26A     -0.523855  

    Virtual:                                                              

      27A     -0.071912    28A     -0.070241    29A     -0.057375  
      30A     -0.050795    31A     -0.036344    32A     -0.033965  
      33A     -0.032418    34A     -0.031466    35A     -0.030882  
      36A     -0.023275    37A     -0.019455    38A     -0.016642  
      39A     -0.014367    40A     -0.010278    41A     -0.006794  
      42A     -0.005411    43A     -0.002128    44A     -0.001114  
      45A      0.001140    46A      0.003585    47A      0.004322  
      48A      0.010610    49A      0.011040    50A      0.012493  
      51A      0.015256    52A      0.020173    53A      0.020563  
      54A      0.023986    55A      0.026737    56A      0.027634  
      57A      0.030156    58A      0.034272    59A      0.034491  
      60A      0.036382    61A      0.038681    62A      0.040978  
      63A      0.040995    64A      0.042183    65A      0.049430  
      66A      0.050849    67A      0.054567    68A      0.054844  
      69A      0.057027    70A      0.059002    71A      0.060279  
      72A      0.063944    73A      0.066030    74A      0.066406  
      75A      0.069830    76A      0.072306    77A      0.072385  
      78A      0.073225    79A      0.074419    80A      0.076171  
      81A      0.077493    82A      0.078073    83A      0.079304  
      84A      0.082910    85A      0.083299    86A      0.085175  
      87A      0.085741    88A      0.089198    89A      0.090442  
      90A      0.092206    91A      0.092466    92A      0.094805  
      93A      0.095610    94A      0.095717    95A      0.097875  
      96A      0.101214    97A      0.102124    98A      0.102682  
      99A      0.103563   100A      0.104174   101A      0.110504  
     102A      0.113558   103A      0.116023   104A      0.117179  
     105A      0.118170   106A      0.118388   107A      0.121557  
     108A      0.121947   109A      0.122549   110A      0.124605  
     111A      0.126039   112A      0.126843   113A      0.127255  
     114A      0.128655   115A      0.130092   116A      0.131561  
     117A      0.133481   118A      0.134842   119A      0.137632  
     120A      0.138427   121A      0.141674   122A      0.143470  
     123A      0.143511   124A      0.144636   125A      0.145217  
     126A      0.147585   127A      0.149430   128A      0.149814  
     129A      0.150266   130A      0.151334   131A      0.152554  
     132A      0.155952   133A      0.156197   134A      0.156650  
     135A      0.157733   136A      0.159737   137A      0.166941  
     138A      0.167200   139A      0.170915   140A      0.171189  
     141A      0.172201   142A      0.173070   143A      0.173286  
     144A      0.173465   145A      0.177266   146A      0.178316  
     147A      0.179986   148A      0.182073   149A      0.183230  
     150A      0.184498   151A      0.186626   152A      0.187306  
     153A      0.187700   154A      0.189190   155A      0.189548  
     156A      0.190170   157A      0.191358   158A      0.194925  
     159A      0.198307   160A      0.198888   161A      0.199686  
     162A      0.199879   163A      0.200954   164A      0.202400  
     165A      0.206734   166A      0.209182   167A      0.216666  
     168A      0.216821   169A      0.219816   170A      0.221622  
     171A      0.223225   172A      0.224087   173A      0.224206  
     174A      0.224793   175A      0.224953   176A      0.225914  
     177A      0.227766   178A      0.229203   179A      0.231120  
     180A      0.231698   181A      0.233078   182A      0.234663  
     183A      0.234746   184A      0.235003   185A      0.238265  
     186A      0.242485   187A      0.244405   188A      0.244627  
     189A      0.245492   190A      0.247727   191A      0.249533  
     192A      0.251595   193A      0.257157   194A      0.257171  
     195A      0.259931   196A      0.261439   197A      0.262099  
     198A      0.269761   199A      0.270750   200A      0.271962  
     201A      0.273434   202A      0.274426   203A      0.277033  
     204A      0.277069   205A      0.279064   206A      0.282484  
     207A      0.286077   208A      0.289756   209A      0.290379  
     210A      0.291858   211A      0.293086   212A      0.293866  
     213A      0.295553   214A      0.298853   215A      0.300814  
     216A      0.301838   217A      0.302391   218A      0.303047  
     219A      0.306859   220A      0.309690   221A      0.310373  
     222A      0.310531   223A      0.312771   224A      0.313569  
     225A      0.315992   226A      0.318110   227A      0.318628  
     228A      0.320444   229A      0.321259   230A      0.326530  
     231A      0.326873   232A      0.331376   233A      0.332532  
     234A      0.334963   235A      0.335930   236A      0.342368  
     237A      0.345137   238A      0.347658   239A      0.348464  
     240A      0.350302   241A      0.351823   242A      0.353111  
     243A      0.359114   244A      0.363629   245A      0.364325  
     246A      0.366320   247A      0.369624   248A      0.371079  
     249A      0.375099   250A      0.375274   251A      0.376339  
     252A      0.376712   253A      0.377042   254A      0.377808  
     255A      0.379512   256A      0.380198   257A      0.383848  
     258A      0.388371   259A      0.389482   260A      0.391047  
     261A      0.392521   262A      0.394342   263A      0.394710  
     264A      0.396582   265A      0.399904   266A      0.399973  
     267A      0.401283   268A      0.402707   269A      0.402910  
     270A      0.404404   271A      0.411235   272A      0.412683  
     273A      0.413369   274A      0.414107   275A      0.415068  
     276A      0.418150   277A      0.419092   278A      0.421384  
     279A      0.422438   280A      0.426208   281A      0.428065  
     282A      0.428410   283A      0.429279   284A      0.431739  
     285A      0.432401   286A      0.434063   287A      0.435441  
     288A      0.437495   289A      0.439014   290A      0.440284  
     291A      0.441105   292A      0.448594   293A      0.451734  
     294A      0.452311   295A      0.454483   296A      0.455528  
     297A      0.462116   298A      0.462932   299A      0.468669  
     300A      0.469657   301A      0.471389   302A      0.472808  
     303A      0.473532   304A      0.474760   305A      0.475673  
     306A      0.476158   307A      0.476938   308A      0.479348  
     309A      0.487154   310A      0.488017   311A      0.490097  
     312A      0.491059   313A      0.491243   314A      0.491932  
     315A      0.492948   316A      0.505489   317A      0.508404  
     318A      0.510261   319A      0.510795   320A      0.515233  
     321A      0.518846   322A      0.518976   323A      0.519871  
     324A      0.520813   325A      0.520912   326A      0.524402  
     327A      0.525552   328A      0.526818   329A      0.529884  
     330A      0.542629   331A      0.542891   332A      0.543211  
     333A      0.543856   334A      0.545122   335A      0.545495  
     336A      0.554955   337A      0.555019   338A      0.560104  
     339A      0.561732   340A      0.562035   341A      0.564383  
     342A      0.564784   343A      0.565638   344A      0.566978  
     345A      0.576401   346A      0.576616   347A      0.577711  
     348A      0.583701   349A      0.583765   350A      0.590466  
     351A      0.590534   352A      0.590752   353A      0.595364  
     354A      0.600960   355A      0.606726   356A      0.607385  
     357A      0.614051   358A      0.615743   359A      0.621021  
     360A      0.621294   361A      0.621747   362A      0.625063  
     363A      0.625244   364A      0.627154   365A      0.628991  
     366A      0.633615   367A      0.634309   368A      0.635466  
     369A      0.635730   370A      0.641770   371A      0.644619  
     372A      0.646219   373A      0.647107   374A      0.649806  
     375A      0.650073   376A      0.650893   377A      0.651181  
     378A      0.653043   379A      0.655200   380A      0.660207  
     381A      0.665170   382A      0.667046   383A      0.667379  
     384A      0.668342   385A      0.668505   386A      0.683556  
     387A      0.685170   388A      0.691602   389A      0.693249  
     390A      0.694426   391A      0.697198   392A      0.704621  
     393A      0.705043   394A      0.705162   395A      0.706629  
     396A      0.708980   397A      0.709272   398A      0.710686  
     399A      0.710997   400A      0.712324   401A      0.712639  
     402A      0.715000   403A      0.717412   404A      0.718250  
     405A      0.719069   406A      0.720363   407A      0.721739  
     408A      0.725844   409A      0.730916   410A      0.731888  
     411A      0.731976   412A      0.735172   413A      0.739843  
     414A      0.740251   415A      0.740464   416A      0.741744  
     417A      0.747827   418A      0.748404   419A      0.750738  
     420A      0.751110   421A      0.751792   422A      0.754530  
     423A      0.761259   424A      0.782522   425A      0.789164  
     426A      0.789480   427A      0.792514   428A      0.793888  
     429A      0.793955   430A      0.804013   431A      0.804066  
     432A      0.813766   433A      0.818097   434A      0.821336  
     435A      0.825107   436A      0.825145   437A      0.830227  
     438A      0.830469   439A      0.834632   440A      0.835311  
     441A      0.843032   442A      0.843069   443A      0.850077  
     444A      0.856804   445A      0.861219   446A      0.868489  
     447A      0.868598   448A      0.887237   449A      0.892297  
     450A      0.902152   451A      0.904019   452A      0.904167  
     453A      0.912848   454A      0.912878   455A      0.921815  
     456A      0.935065   457A      0.943994   458A      0.944273  
     459A      0.947139   460A      0.950275   461A      0.953446  
     462A      0.955966   463A      0.967386   464A      0.971592  
     465A      0.971682   466A      0.979134   467A      0.986824  
     468A      0.986978   469A      1.003150   470A      1.009557  
     471A      1.009667   472A      1.012528   473A      1.012583  
     474A      1.032437   475A      1.039777   476A      1.044840  
     477A      1.046946   478A      1.047177   479A      1.049692  
     480A      1.065517   481A      1.097182   482A      1.098686  
     483A      1.098783   484A      1.103618   485A      1.105241  
     486A      1.105425   487A      1.119276   488A      1.121127  
     489A      1.125437   490A      1.127090   491A      1.127137  
     492A      1.139012   493A      1.140657   494A      1.140706  
     495A      1.145625   496A      1.149819   497A      1.163254  
     498A      1.164075   499A      1.164205   500A      1.172242  
     501A      1.173345   502A      1.231691   503A      1.239729  
     504A      1.239823   505A      1.246781   506A      1.250003  
     507A      1.250128   508A      1.264627   509A      1.266001  
     510A      1.266172   511A      1.271129   512A      1.273197  
     513A      1.277288   514A      1.308199   515A      1.314406  
     516A      1.314465   517A      1.319966   518A      1.347491  
     519A      1.364656   520A      1.386645   521A      1.387002  
     522A      1.404530   523A      1.405577   524A      1.407883  
     525A      1.410354   526A      1.410792   527A      1.413345  
     528A      1.422426   529A      1.426601   530A      1.426979  
     531A      1.464160   532A      1.477786   533A      1.487346  
     534A      1.498430   535A      1.498881   536A      1.501004  
     537A      1.502206   538A      1.502870   539A      1.512438  
     540A      1.517495   541A      1.563086   542A      1.566789  
     543A      1.578591   544A      1.582086   545A      1.590794  
     546A      1.594126   547A      1.603643   548A      1.604573  
     549A      1.605436   550A      1.606085   551A      1.619523  
     552A      1.626247   553A      1.627378   554A      1.632479  
     555A      1.635520   556A      1.645065   557A      1.660561  
     558A      1.669061   559A      1.680735   560A      1.687132  
     561A      1.688558   562A      1.689765   563A      1.691325  
     564A      1.693373   565A      1.693988   566A      1.695526  
     567A      1.701882   568A      1.705817   569A      1.707696  
     570A      1.712918   571A      1.725117   572A      1.732036  
     573A      1.733033   574A      1.735585   575A      1.736110  
     576A      1.737091   577A      1.742644   578A      1.744715  
     579A      1.747919   580A      1.751143   581A      1.754035  
     582A      1.757264   583A      1.759307   584A      1.768382  
     585A      1.768602   586A      1.772749   587A      1.773490  
     588A      1.774892   589A      1.777423   590A      1.777671  
     591A      1.780881   592A      1.786116   593A      1.786187  
     594A      1.786537   595A      1.789041   596A      1.791275  
     597A      1.800821   598A      1.804699   599A      1.805057  
     600A      1.808201   601A      1.810880   602A      1.816978  
     603A      1.820359   604A      1.822484   605A      1.823614  
     606A      1.825703   607A      1.829105   608A      1.831065  
     609A      1.832345   610A      1.836987   611A      1.838555  
     612A      1.844253   613A      1.848329   614A      1.850118  
[...]
     799A      1.676288   800A      1.676367   801A      1.676783  
     802A      1.676836   803A      1.677029   804A      1.680672  
     805A      1.686641   806A      1.686684   807A      1.694272  
     808A      1.696058   809A      1.698887   810A      1.699344  
     811A      1.699811   812A      1.701563   813A      1.704768  
     814A      1.704840   815A      1.715806   816A      1.715814  
     817A      1.741698   818A      1.751406   819A      1.755991  
     820A      1.760335   821A      1.760351   822A      1.761072  
     823A      1.761747   824A      1.776731   825A      1.776775  
     826A      1.791460   827A      1.791522   828A      1.792793  
     829A      1.800884   830A      1.805636   831A      1.809196  
     832A      1.816651   833A      1.816701   834A      1.816812  
     835A      1.818201   836A      1.824689   837A      1.824794  
     838A      1.831179   839A      1.831253   840A      1.836765  
     841A      1.837684   842A      1.842413   843A      1.842751  
     844A      1.856367   845A      1.860889   846A      1.861009  
     847A      1.861334   848A      1.863557   849A      1.864127  
     850A      1.868726   851A      1.872481   852A      1.880182  
     853A      1.880275   854A      1.891949   855A      1.896239  
     856A      1.896364   857A      1.897398   858A      1.899594  
     859A      1.903019   860A      1.903124   861A      1.908711  
     862A      1.908832   863A      1.914341   864A      1.914682  
     865A      1.915677   866A      1.917691   867A      1.917827  
     868A      1.919350   869A      1.922058   870A      1.922136  
     871A      1.940682   872A      1.941366   873A      1.941958  
     874A      1.942342   875A      1.943157   876A      1.946691  
     877A      1.946752   878A      1.954337   879A      1.954385  
     880A      1.954733   881A      1.954816   882A      1.958010  
     883A      1.970118   884A      1.983026   885A      1.983108  
     886A      1.989691   887A      1.996307   888A      1.997134  
     889A      1.998682   890A      1.998749   891A      2.005013  
     892A      2.008068   893A      2.012362   894A      2.012534  
     895A      2.016340   896A      2.027843   897A      2.028130  
     898A      2.029758   899A      2.030283   900A      2.030680  
     901A      2.031289   902A      2.031464   903A      2.033505  
     904A      2.038126   905A      2.048251   906A      2.048443  
     907A      2.052248   908A      2.052350   909A      2.057032  
     910A      2.057507   911A      2.058706   912A      2.059543  
     913A      2.061996   914A      2.068432   915A      2.070508  
     916A      2.071282   917A      2.071617   918A      2.075703  
     919A      2.076478   920A      2.081049   921A      2.084019  
     922A      2.084531   923A      2.085218   924A      2.087613  
     925A      2.093090   926A      2.094844   927A      2.096395  
     928A      2.096859   929A      2.100593   930A      2.100641  
     931A      2.107127   932A      2.108043   933A      2.108478  
     934A      2.109344   935A      2.109740   936A      2.110888  
     937A      2.112312   938A      2.114490   939A      2.119150  
     940A      2.119311   941A      2.120400   942A      2.120810  
     943A      2.124695   944A      2.126257   945A      2.126354  
     946A      2.133485   947A      2.134500   948A      2.134762  
     949A      2.135790   950A      2.135953   951A      2.143142  
     952A      2.143211   953A      2.149986   954A      2.155696  
     955A      2.159720   956A      2.159880   957A      2.162769  
     958A      2.162852   959A      2.168010   960A      2.171598  
     961A      2.178345   962A      2.178424   963A      2.188028  
     964A      2.190450   965A      2.190808   966A      2.192493  
     967A      2.193994   968A      2.194458   969A      2.195872  
     970A      2.196171   971A      2.198668   972A      2.213585  
     973A      2.219668   974A      2.220282   975A      2.220468  
     976A      2.227918   977A      2.228190   978A      2.228534  
     979A      2.228733   980A      2.238108   981A      2.243252  
     982A      2.243589   983A      2.243947   984A      2.244249  
     985A      2.247098   986A      2.260126   987A      2.260202  
     988A      2.267854   989A      2.270146   990A      2.270172  
     991A      2.272054   992A      2.272103   993A      2.277495  
     994A      2.281078   995A      2.297764   996A      2.300308  
     997A      2.306672   998A      2.310483   999A      2.312276  
    1000A      2.317213  1001A      2.320883  1002A      2.322328  
    1003A      2.330952  1004A      2.331005  1005A      2.331106  
    1006A      2.333869  1007A      2.341444  1008A      2.343011  
    1009A      2.350765  1010A      2.351433  1011A      2.352371  
    1012A      2.352534  1013A      2.366368  1014A      2.366532  
    1015A      2.374775  1016A      2.379566  1017A      2.386872  
    1018A      2.415858  1019A      2.424009  1020A      2.424380  
    1021A      2.424411  1022A      2.436452  1023A      2.441117  
    1024A      2.441173  1025A      2.444475  1026A      2.448324  
    1027A      2.456641  1028A      2.468979  1029A      2.470134  
    1030A      2.472705  1031A      2.473011  1032A      2.476559  
    1033A      2.485474  1034A      2.485557  1035A      2.502301  
    1036A      2.508341  1037A      2.519376  1038A      2.529797  
    1039A      2.530033  1040A      2.543341  1041A      2.545390  
    1042A      2.545526  1043A      2.554357  1044A      2.554406  
    1045A      2.554802  1046A      2.559831  1047A      2.559837  
    1048A      2.572970  1049A      2.573003  1050A      2.574714  
    1051A      2.575230  1052A      2.577568  1053A      2.586283  
    1054A      2.586364  1055A      2.587313  1056A      2.589760  
    1057A      2.591396  1058A      2.606048  1059A      2.623468  
    1060A      2.623510  1061A      2.625057  1062A      2.631482  
    1063A      2.631995  1064A      2.633501  1065A      2.641170  
    1066A      2.641261  1067A      2.645429  1068A      2.650433  
    1069A      2.650919  1070A      2.651528  1071A      2.656860  
    1072A      2.658849  1073A      2.674089  1074A      2.682095  
    1075A      2.683234  1076A      2.683987  1077A      2.687013  
    1078A      2.701948  1079A      2.702373  1080A      2.713009  
    1081A      2.713016  1082A      2.718672  1083A      2.718689  
    1084A      2.722610  1085A      2.722802  1086A      2.737285  
    1087A      2.737598  1088A      2.747573  1089A      2.752456  
    1090A      2.752745  1091A      2.766753  1092A      2.777199  
    1093A      2.794601  1094A      2.794740  1095A      2.805086  
    1096A      2.815891  1097A      2.827102  1098A      2.827802  
    1099A      2.836038  1100A      2.851701  1101A      2.851925  
    1102A      2.856023  1103A      2.858318  1104A      2.859354  
    1105A      2.859815  1106A      2.867030  1107A      2.875667  
    1108A      2.889784  1109A      2.908846  1110A      2.917101  
    1111A      2.917520  1112A      2.922884  1113A      2.923825  
    1114A      2.933608  1115A      2.933731  1116A      2.948172  
    1117A      2.949615  1118A      2.949645  1119A      2.962818  
    1120A      2.971732  1121A      2.996112  1122A      3.006594  
    1123A      3.006985  1124A      3.010176  1125A      3.011868  
    1126A      3.029477  1127A      3.038769  1128A      3.064153  
    1129A      3.064218  1130A      3.070645  1131A      3.070718  
    1132A      3.109386  1133A      3.110172  1134A      3.128101  
    1135A      3.129568  1136A      3.129837  1137A      3.137452  
    1138A      3.140739  1139A      3.146389  1140A      3.146416  
    1141A      3.146448  1142A      3.149005  1143A      3.149046  
    1144A      3.157763  1145A      3.158213  1146A      3.165808  
    1147A      3.166284  1148A      3.191676  1149A      3.211152  
    1150A      3.218539  1151A      3.237532  1152A      3.272949  
    1153A      3.276948  1154A      3.277212  1155A      3.281943  
    1156A      3.282056  1157A      3.285091  1158A      3.306309  
    1159A      3.318269  1160A      3.401455  1161A      3.416307  
    1162A      3.416916  1163A      3.442984  1164A      3.481466  
    1165A      3.484038  1166A      3.522466  1167A      3.549263  
    1168A      3.567707  1169A      3.577110  1170A      3.579101  
    1171A      3.593847  1172A      3.626486  1173A      3.628465  
    1174A      3.643420  1175A      3.662869  1176A      3.668400  
    1177A      3.756144  1178A      3.769223  1179A      3.782678  
    1180A      3.783730  1181A      3.814400  1182A      3.866611  
    1183A      3.870731  1184A      3.870778  1185A      3.913101  
    1186A      3.913221  1187A      3.958680  1188A      3.976907  
    1189A      4.010871  1190A      4.032799  1191A      4.044707  
    1192A      4.080908  1193A      4.203963  1194A      4.207642  
    1195A      4.342510  1196A      4.358887  1197A      4.484483  
    1198A      4.735018  1199A      4.772621  1200A      4.828711  
    1201A      4.844828  1202A      4.934156  1203A      5.048914  
    1204A      5.055037  1205A      5.064379  1206A      5.109015  
    1207A      5.129785  1208A      5.390271  1209A      5.420453  
    1210A      5.730595  1211A      5.753891  1212A      6.065813  
    1213A     18.197032  1214A     18.452559  1215A     18.469537  
    1216A     18.557783  1217A     18.829521  1218A     25.337464  
    1219A     25.373383  

    Final Occupation by Irrep:
              A 
    DOCC [   171 ]
    NA   [   171 ]
    NB   [   171 ]

  @DF-RHF Final Energy: -2055.89174561461778

   => Energetics <=

    Nuclear Repulsion Energy =           6452.5568002797781446
    One-Electron Energy =              -15636.4295386301746476
    Two-Electron Energy =                7127.9809927357800916
    Total Energy =                      -2055.8917456146173208

Computation Completed


Properties will be evaluated at   0.000000,   0.000000,   0.000000 [a0]

Properties computed using the SCF density matrix


 Multipole Moments:

 ------------------------------------------------------------------------------------
     Multipole            Electronic (a.u.)      Nuclear  (a.u.)        Total (a.u.)
 ------------------------------------------------------------------------------------

 L = 1.  Multiply by 2.5417464519 to convert [e a0] to [Debye]
 Dipole X            :          0.0001105           -0.0000085            0.0001019
 Dipole Y            :        117.1653232         -117.1648546            0.0004686
 Dipole Z            :       -657.6239465          657.6263405            0.0023940
 Magnitude           :                                                    0.0024416

 ------------------------------------------------------------------------------------

*** tstop() called on d-16-5-1 at Mon Jan 22 22:36:37 2024
Module time:
	user time   =    2483.90 seconds =      41.40 minutes
	system time =      39.68 seconds =       0.66 minutes
	total time  =        277 seconds =       4.62 minutes
Total time:
	user time   =    8642.11 seconds =     144.04 minutes
	system time =     198.92 seconds =       3.32 minutes
	total time  =        952 seconds =      15.87 minutes
  Constructing Basis Sets for SAPT...

   => Loading Basis Set <=

    Name: (JUN-CC-PVDZ AUX)
    Role: RIFIT
    Keyword: DF_BASIS_SAPT
    atoms 1-2, 4-5, 10, 17-70 entry C          line   100 file /home/gridsan/tfroembgen/.conda/envs/psi4test/share/psi4/basis/jun-cc-pvdz-ri.gbs 
    atoms 3, 6                entry N          line   144 file /home/gridsan/tfroembgen/.conda/envs/psi4test/share/psi4/basis/jun-cc-pvdz-ri.gbs 
    atoms 7-9, 11-16, 71-88   entry H          line    30 file /home/gridsan/tfroembgen/.conda/envs/psi4test/share/psi4/basis/jun-cc-pvdz-ri.gbs 

   => Loading Basis Set <=

    Name: (JUN-CC-PVDZ AUX)
    Role: JKFIT
    Keyword: DF_BASIS_ELST
    atoms 1-2, 4-5, 10, 17-70 entry C          line   146 file /home/gridsan/tfroembgen/.conda/envs/psi4test/share/psi4/basis/jun-cc-pvdz-jkfit.gbs 
    atoms 3, 6                entry N          line   202 file /home/gridsan/tfroembgen/.conda/envs/psi4test/share/psi4/basis/jun-cc-pvdz-jkfit.gbs 
    atoms 7-9, 11-16, 71-88   entry H          line    70 file /home/gridsan/tfroembgen/.conda/envs/psi4test/share/psi4/basis/jun-cc-pvdz-jkfit.gbs 


  //>>>>>>>>>>>>>>>>>>>>>>>>>>>>>>>>>>>//
  //               SSAPT0              //
  //<<<<<<<<<<<<<<<<<<<<<<<<<<<<<<<<<<<//


*** tstart() called on d-16-5-1
*** at Mon Jan 22 22:36:39 2024

        SAPT0  
    Ed Hohenstein
     6 June 2009

      Orbital Information
  --------------------------
    NSO        =      1233
    NMO        =      1219
    NRI        =      4343
    NRI (Elst) =      5440
    NOCC A     =        26
    NOCC B     =       171
    FOCC A     =         7
    FOCC B     =        54
    NVIR A     =      1193
    NVIR B     =      1048

    Elst10,r            =    -0.006222115285 [Eh]
    Exch10              =    -0.000000216449 [Eh]
    Exch10 (S^2)        =    -0.000000216449 [Eh]

    Iter     Energy [mEh]          dE [mEh]         Residual      Time [s]
       1      -0.01483794       0.014837940       1.147490547           403
       2      -0.01410217      -0.000735769       0.304591450           786
       3      -0.01554004       0.001437865       0.086104918          1084
       4      -0.01563155       0.000091518       0.039646505          1365
       5      -0.01556456      -0.000066990       0.012468260          1601
       6      -0.01556295      -0.000001613       0.003779983          1826
       7      -0.01556723       0.000004279       0.001263403          2094
       8      -0.01556824       0.000001013       0.000312042          2317
       9      -0.01556808      -0.000000158       0.000111049          2490
      10      -0.01556798      -0.000000102       0.000028985          2707
      11      -0.01556799       0.000000006       0.000008078          3043
      12      -0.01556799       0.000000006       0.000002741          3343
      13      -0.01556799       0.000000001       0.000000913          3500

    CHF Iterations converged


    Iter     Energy [mEh]          dE [mEh]         Residual      Time [s]
       1      -2.40987141       2.409871410      25.269307541           324
       2      -1.65579768      -0.754073729       3.162226043           620
       3      -1.66041424       0.004616561       1.199125917           895
       4      -1.70112877       0.040714530       0.298222244           920
       5      -1.70321972       0.002090947       0.104416629           941
       6      -1.70196210      -0.001257620       0.059747912           981
       7      -1.70160895      -0.000353152       0.029644677          1001
       8      -1.70188581       0.000276863       0.018795327          1021
       9      -1.70198565       0.000099837       0.011759755          1061
      10      -1.70192630      -0.000059346       0.007897302          1240
      11      -1.70188968      -0.000036622       0.003289169          1319
      12      -1.70189950       0.000009823       0.001372585          1347
      13      -1.70190515       0.000005651       0.000541066          1376
      14      -1.70190480      -0.000000349       0.000249835          1400
      15      -1.70190363      -0.000001171       0.000130856          1423
      16      -1.70190339      -0.000000240       0.000059709          1445
      17      -1.70190375       0.000000355       0.000025757          1468
      18      -1.70190377       0.000000021       0.000012737          1491
      19      -1.70190372      -0.000000050       0.000006569          1511
      20      -1.70190371      -0.000000010       0.000002337          1529
      21      -1.70190371       0.000000007       0.000001044          1550
      22      -1.70190372       0.000000003       0.000000403          1608

    CHF Iterations converged

    Ind20,r (A<-B)      =    -0.000015567995 [Eh]
    Ind20,r (B<-A)      =    -0.001701903718 [Eh]
    Ind20,r             =    -0.001717471712 [Eh]
    Exch-Ind20,r (A<-B) =     0.000000011726 [Eh]
    Exch-Ind20,r (B<-A) =     0.000000086491 [Eh]
    Exch-Ind20,r        =     0.000000098217 [Eh]
    Disp20              =    -0.000761420436 [Eh]
    Disp20 (SS)         =    -0.000380710218 [Eh]
    Disp20 (OS)         =    -0.000380710218 [Eh]
    Exch-Disp20         =     0.000000047475 [Eh]
    Exch-Disp20 (SS)    =     0.000000035310 [Eh]
    Exch-Disp20 (OS)    =     0.000000012165 [Eh]

    SAPT Results 
  --------------------------------------------------------------------------------------------------------
    Electrostatics                 -6.22211528 [mEh]      -3.90443629 [kcal/mol]     -16.33616143 [kJ/mol]
      Elst10,r                     -6.22211528 [mEh]      -3.90443629 [kcal/mol]     -16.33616143 [kJ/mol]

    Exchange                       -0.00021645 [mEh]      -0.00013582 [kcal/mol]      -0.00056829 [kJ/mol]
      Exch10                       -0.00021645 [mEh]      -0.00013582 [kcal/mol]      -0.00056829 [kJ/mol]
      Exch10(S^2)                  -0.00021645 [mEh]      -0.00013582 [kcal/mol]      -0.00056829 [kJ/mol]

    Induction                      -1.74330756 [mEh]      -1.09394201 [kcal/mol]      -4.57705336 [kJ/mol]
      Ind20,r                      -1.71747171 [mEh]      -1.07772977 [kcal/mol]      -4.50922136 [kJ/mol]
      Exch-Ind20,r                  0.00009822 [mEh]       0.00006163 [kcal/mol]       0.00025787 [kJ/mol]
      delta HF,r (2)               -0.02593406 [mEh]      -0.01627387 [kcal/mol]      -0.06808987 [kJ/mol]

    Dispersion                     -0.76137296 [mEh]      -0.47776875 [kcal/mol]      -1.99898443 [kJ/mol]
      Disp20                       -0.76142044 [mEh]      -0.47779854 [kcal/mol]      -1.99910908 [kJ/mol]
      Exch-Disp20                   0.00004748 [mEh]       0.00002979 [kcal/mol]       0.00012465 [kJ/mol]
      Disp20 (SS)                  -0.38071022 [mEh]      -0.23889927 [kcal/mol]      -0.99955454 [kJ/mol]
      Disp20 (OS)                  -0.38071022 [mEh]      -0.23889927 [kcal/mol]      -0.99955454 [kJ/mol]
      Exch-Disp20 (SS)              0.00003531 [mEh]       0.00002216 [kcal/mol]       0.00009271 [kJ/mol]
      Exch-Disp20 (OS)              0.00001216 [mEh]       0.00000763 [kcal/mol]       0.00003194 [kJ/mol]

  Total HF                         -7.96563929 [mEh]      -4.99851412 [kcal/mol]     -20.91378307 [kJ/mol]
  Total SAPT0                      -8.72701225 [mEh]      -5.47628287 [kcal/mol]     -22.91276751 [kJ/mol]

  Special recipe for scaled SAPT0 (see Manual):
    Electrostatics sSAPT0          -6.22211528 [mEh]      -3.90443629 [kcal/mol]     -16.33616143 [kJ/mol]
    Exchange sSAPT0                -0.00021645 [mEh]      -0.00013582 [kcal/mol]      -0.00056829 [kJ/mol]
    Induction sSAPT0               -1.74330756 [mEh]      -1.09394201 [kcal/mol]      -4.57705336 [kJ/mol]
    Dispersion sSAPT0              -0.76137296 [mEh]      -0.47776875 [kcal/mol]      -1.99898443 [kJ/mol]
  Total sSAPT0                     -8.72701225 [mEh]      -5.47628287 [kcal/mol]     -22.91276751 [kJ/mol]
  --------------------------------------------------------------------------------------------------------

*** tstop() called on d-16-5-1 at Tue Jan 23 01:00:20 2024
Module time:
	user time   =    8985.67 seconds =     149.76 minutes
	system time =     975.27 seconds =      16.25 minutes
	total time  =       8621 seconds =     143.68 minutes
Total time:
	user time   =   17629.06 seconds =     293.82 minutes
	system time =    1174.19 seconds =      19.57 minutes
	total time  =       9575 seconds =     159.58 minutes

    Psi4 stopped on: Tuesday, 23 January 2024 01:00AM
    Psi4 wall time for execution: 2:39:36.47

*** Psi4 exiting successfully. Buy a developer a beer!
