
    -----------------------------------------------------------------------
          Psi4: An Open-Source Ab Initio Electronic Structure Package
                               Psi4 1.9 release

                         Git: Rev {} zzzzzzz 


    D. G. A. Smith, L. A. Burns, A. C. Simmonett, R. M. Parrish,
    M. C. Schieber, R. Galvelis, P. Kraus, H. Kruse, R. Di Remigio,
    A. Alenaizan, A. M. James, S. Lehtola, J. P. Misiewicz, M. Scheurer,
    R. A. Shaw, J. B. Schriber, Y. Xie, Z. L. Glick, D. A. Sirianni,
    J. S. O'Brien, J. M. Waldrop, A. Kumar, E. G. Hohenstein,
    B. P. Pritchard, B. R. Brooks, H. F. Schaefer III, A. Yu. Sokolov,
    K. Patkowski, A. E. DePrince III, U. Bozkaya, R. A. King,
    F. A. Evangelista, J. M. Turney, T. D. Crawford, C. D. Sherrill,
    J. Chem. Phys. 152(18) 184108 (2020). https://doi.org/10.1063/5.0006002

                            Additional Code Authors
    E. T. Seidl, C. L. Janssen, E. F. Valeev, M. L. Leininger,
    J. F. Gonthier, R. M. Richard, H. R. McAlexander, M. Saitow, X. Wang,
    P. Verma, M. H. Lechner, A. Jiang, S. Behnle, A. G. Heide,
    M. F. Herbst, and D. L. Poole

             Previous Authors, Complete List of Code Contributors,
                       and Citations for Specific Modules
    https://github.com/psi4/psi4/blob/master/codemeta.json
    https://github.com/psi4/psi4/graphs/contributors
    http://psicode.org/psi4manual/master/introduction.html#citing-psifour

    -----------------------------------------------------------------------


    Psi4 started on: Saturday, 10 February 2024 12:03PM

    Process ID: 1915670
    Host:       n2cn0255
    PSIDATADIR: /opt/software/pc2/EB-SW/software/PSI4/1.9-foss-2022a/share/psi4
    Memory:     500.0 MiB
    Threads:    16
    
  ==> Input File <==

--------------------------------------------------------------------------
memory 48 GB # how much memory is available ! Depends on the nodes/cores !

molecule dimer {
# monomer A
+1 1    # Charge and multiplicity
C  0.680067 -1.215929 2.908042
C -0.680504 -1.215545 2.906014
N -1.085635  0.102779 2.905016
C  0.000108  0.884180 2.901740
C -2.477365  0.570758 2.855610
N  1.085222  0.102779 2.905016
H  1.385146 -2.033368 2.915870
H -1.385302 -2.033214 2.906204
H -0.000009  1.965269 2.899993
C  2.478117  0.567877 2.921908
H  2.490592  1.658130 2.894563
H  2.967028  0.220701 3.835354
H  3.001428  0.176405 2.046425
H -2.857359  0.490799 1.833539
H -3.082679 -0.042306 3.525694
H -2.518128  1.610706 3.182594
--
# monomer B
0 1     # Charge and multiplicity
C   1.22531237526482      0.70753866091955      0.00613762728373
C   1.22532433589282     -0.70753852257020     -0.00619318228664
C   -0.00000567409046      1.41496628609039     -0.00672680580738
C   2.45644923379077      1.41832825917820      0.00902448468363
C   0.00001130712078     -1.41497612663474      0.00347275151708
C   -1.22530046906674      0.70754574598412      0.00838914760619
C   2.45643823516184     -1.41832293188077     -0.00843833914343
C   -0.00000085313587      2.83680140328112     -0.00913035594137
C   3.68182717731192      0.70931832800114     -0.00808954934571
C   2.45512052870677      2.83422403348893     -0.00819210630633
C   3.68182158506039     -0.70933346742900      0.00798293467272
C   -1.22531311884624     -0.70752714354401     -0.00512042085974
C   1.22670006104402      3.54346985599427      0.00816696660346
C   0.00000526469929     -2.83678176723568      0.00832091913869
C   -2.45643555300670      1.41831729028492      0.00842454345199
C   2.45512389762097     -2.83422965658853      0.00783102630520
C   -1.22671388474763      3.54346943575023      0.00827029982280
C   4.91451777504333      1.42717324448953     -0.00160886631602
C   3.69315067131765      3.54279566454522     -0.00155906667985
C   -2.45643712022637     -1.41831290883911     -0.00846337726810
C   1.22670532178455     -3.54347386990643     -0.00780316414624
C   -2.45512491866593      2.83421703463423     -0.00818572995999
C   4.91452486062398     -1.42718653794377      0.00136387641845
C   1.22142509354026      4.97013443726031      0.00150231067809
C   4.89300870916237      2.82518837202648     -0.00039219795739
C   -1.22669652864725     -3.54347062507680     -0.00753595973677
C   -3.68181849668397      0.70932533873199     -0.00807686886569
C   3.69314758099218     -3.54280096939050      0.00148176697923
C   -1.22143177215231      4.97012866986289      0.00168580605083
C   6.13477145276790      0.68054831910577     -0.00083909176631
C   3.65678936045204      4.97295361556775     -0.00065042889723
C   -2.45512642789169     -2.83421472106065      0.00758666850712
C   -3.68181869921921     -0.70932533146830      0.00810055625144
C   4.89301309775526     -2.82519973363176      0.00021895393805
C   -0.00000059327114      5.65044773803267      0.00045449734393
C   6.13477559217374     -0.68055448207492      0.00042622874941
C   2.47813196269732      5.65357712333155      0.00063835075260
C   1.22142288457925     -4.97012668293268     -0.00129718634452
C   -3.69316190412301      3.54279732619245     -0.00139355922051
C   -1.22142804110313     -4.97011793159564     -0.00140994817719
C   -4.91452132810043      1.42717581899491     -0.00153192130862
C   3.65678749952045     -4.97295485423912      0.00080007163680
C   -2.47813805026426      5.65357479452875      0.00092287576113
C   -3.69314125872231     -3.54278984697859      0.00136564082345
C   -4.91451200321153     -1.42718062802730      0.00139857359209
C   -0.00000552908399     -5.65043791501335      0.00005899322272
C   -4.89302000425900      2.82518897091939     -0.00040227981744
C   2.47812647313991     -5.65357317188818     -0.00029052915548
C   -3.65679823041642      4.97295655404175     -0.00047374852278
C   -4.89299899901461     -2.82519139505969      0.00006491824035
C   -2.47812801824129     -5.65356579800621     -0.00056571680280
C   -6.13477002348955      0.68054913825639     -0.00086464346868
C   -3.65678835334731     -4.97294365097028      0.00058578382008
C   -6.13476456307132     -0.68055354348201      0.00040575295444
H   5.83528897565761      3.36927626695423      0.00396712770529
H   7.07385965258860      1.22821762089947     -0.00037744837300
H   4.60066374401555      5.51238117445323     -0.00014522814529
H   5.83528386714679     -3.36930568472863     -0.00423551337640
H   -0.00001167146422      6.73853104613662     -0.00389474766392
H   7.07386165167227     -1.22822657074368     -0.00008250934481
H   2.47331421164041      6.74068466339473      0.00017162982210
H   4.60066897122302     -5.51237575717576      0.00039007446835
H   -2.47331820069565      6.74068209160650      0.00047297644710
H   -0.00000978838621     -6.73852780445195      0.00458867820736
H   -5.83530143450167      3.36927132229595      0.00410314985360
H   2.47330840367253     -6.74068500242887      0.00027980126949
H   -4.60067436136587      5.51237839860371      0.00002010017831
H   -5.83527902699321     -3.36928859177951     -0.00451481925734
H   -2.47329986759855     -6.74067870613986     -0.00016951527498
H   -7.07385728692578      1.22822084484047     -0.00046143985387
H   -4.60067330624313     -5.51236229778631      0.00021776644566
H   -7.07385645456741     -1.22822025997701     -0.00017736581114

    units angstrom      # Angstroms are the default
    no_reorient         # Geometry fixed, default
    symmetry c1         # C1 symmetry, default
}

set {
    scf_type DF         # Density fitting, faster than exact integrals
    freeze_core True    # Freeze core electrons
    basis jun-cc-pVDZ   # Jun-cc-pVDZ basis set, recommended for sSAPT0 in https://doi.org/10.1063/1.4867135
}

energy('ssapt0')        # Compute sSAPT0 energy, includes also SAPT0
--------------------------------------------------------------------------

  Memory set to  44.703 GiB by Python driver.

Scratch directory: /tmp/
   => Loading Basis Set <=

    Name: JUN-CC-PVDZ
    Role: ORBITAL
    Keyword: BASIS
    atoms 1-2, 4-5, 10, 17-70 entry C          line   164 file /opt/software/pc2/EB-SW/software/PSI4/1.9-foss-2022a/share/psi4/basis/jun-cc-pvdz.gbs 
    atoms 3, 6                entry N          line   198 file /opt/software/pc2/EB-SW/software/PSI4/1.9-foss-2022a/share/psi4/basis/jun-cc-pvdz.gbs 
    atoms 7-9, 11-16, 71-88   entry H          line    36 file /opt/software/pc2/EB-SW/software/PSI4/1.9-foss-2022a/share/psi4/basis/jun-cc-pvdz.gbs 

   => Loading Basis Set <=

    Name: JUN-CC-PVDZ
    Role: ORBITAL
    Keyword: BASIS
    atoms 1-2, 4-5, 10, 17-70 entry C          line   164 file /opt/software/pc2/EB-SW/software/PSI4/1.9-foss-2022a/share/psi4/basis/jun-cc-pvdz.gbs 
    atoms 3, 6                entry N          line   198 file /opt/software/pc2/EB-SW/software/PSI4/1.9-foss-2022a/share/psi4/basis/jun-cc-pvdz.gbs 
    atoms 7-9, 11-16, 71-88   entry H          line    36 file /opt/software/pc2/EB-SW/software/PSI4/1.9-foss-2022a/share/psi4/basis/jun-cc-pvdz.gbs 


  //>>>>>>>>>>>>>>>>>>>>>>>>>>>>>>>>>>>//
  //              Dimer HF             //
  //<<<<<<<<<<<<<<<<<<<<<<<<<<<<<<<<<<<//

   => Libint2 <=

    Primary   basis highest AM E, G, H:  5, 4, 3
    Auxiliary basis highest AM E, G, H:  6, 5, 4
    Onebody   basis highest AM E, G, H:  6, 5, 4
    Solid Harmonics ordering:            gaussian

*** tstart() called on n2cn0255
*** at Sat Feb 10 12:03:57 2024

   => Loading Basis Set <=

    Name: JUN-CC-PVDZ
    Role: ORBITAL
    Keyword: BASIS
    atoms 1-2, 4-5, 10, 17-70 entry C          line   164 file /opt/software/pc2/EB-SW/software/PSI4/1.9-foss-2022a/share/psi4/basis/jun-cc-pvdz.gbs 
    atoms 3, 6                entry N          line   198 file /opt/software/pc2/EB-SW/software/PSI4/1.9-foss-2022a/share/psi4/basis/jun-cc-pvdz.gbs 
    atoms 7-9, 11-16, 71-88   entry H          line    36 file /opt/software/pc2/EB-SW/software/PSI4/1.9-foss-2022a/share/psi4/basis/jun-cc-pvdz.gbs 


         ---------------------------------------------------------
                                   SCF
               by Justin Turney, Rob Parrish, Andy Simmonett
                          and Daniel G. A. Smith
                              RHF Reference
                       16 Threads,  45776 MiB Core
         ---------------------------------------------------------

  ==> Geometry <==

    Molecular point group: c1
    Full point group: C1

    Geometry (in Angstrom), charge = 1, multiplicity = 1:

       Center              X                  Y                   Z               Mass       
    ------------   -----------------  -----------------  -----------------  -----------------
         C            0.680066520158    -1.215933861162     2.539181973687    12.000000000000
         C           -0.680504479842    -1.215549861162     2.537153973687    12.000000000000
         N           -1.085635479842     0.102774138838     2.536155973687    14.003074004430
         C            0.000107520158     0.884175138838     2.532879973687    12.000000000000
         C           -2.477365479842     0.570753138838     2.486749973687    12.000000000000
         N            1.085221520158     0.102774138838     2.536155973687    14.003074004430
         H            1.385145520158    -2.033372861162     2.547009973687     1.007825032230
         H           -1.385302479842    -2.033218861162     2.537343973687     1.007825032230
         H           -0.000009479842     1.965264138838     2.531132973687     1.007825032230
         C            2.478116520158     0.567872138838     2.553047973687    12.000000000000
         H            2.490591520158     1.658125138838     2.525702973687     1.007825032230
         H            2.967027520158     0.220696138838     3.466493973687     1.007825032230
         H            3.001427520158     0.176400138838     1.677564973687     1.007825032230
         H           -2.857359479842     0.490794138838     1.464678973687     1.007825032230
         H           -3.082679479842    -0.042310861162     3.156833973687     1.007825032230
         H           -2.518128479842     1.610701138838     2.813733973687     1.007825032230
         C            1.225311895423     0.707533799757    -0.362722399030    12.000000000000
         C            1.225323856051    -0.707543383733    -0.375053208600    12.000000000000
         C           -0.000006153932     1.414961424928    -0.375586832121    12.000000000000
         C            2.456448753949     1.418323398016    -0.359835541630    12.000000000000
         C            0.000010827279    -1.414980987797    -0.365387274796    12.000000000000
         C           -1.225300948908     0.707540884822    -0.360470878707    12.000000000000
         C            2.456437755320    -1.418327793043    -0.377298365457    12.000000000000
         C           -0.000001332978     2.836796542119    -0.377990382255    12.000000000000
         C            3.681826697470     0.709313466839    -0.376949575659    12.000000000000
         C            2.455120048865     2.834219172327    -0.377052132620    12.000000000000
         C            3.681821105219    -0.709338328591    -0.360877091641    12.000000000000
         C           -1.225313598688    -0.707532004706    -0.373980447173    12.000000000000
         C            1.226699581202     3.543464994832    -0.360693059710    12.000000000000
         C            0.000004784858    -2.836786628398    -0.360539107175    12.000000000000
         C           -2.456436032848     1.418312429123    -0.360435482861    12.000000000000
         C            2.455123417779    -2.834234517751    -0.361029000008    12.000000000000
         C           -1.226714364589     3.543464574588    -0.360589726491    12.000000000000
         C            4.914517295202     1.427168383327    -0.370468892629    12.000000000000
         C            3.693150191476     3.542790803383    -0.370419092993    12.000000000000
         C           -2.456437600068    -1.418317770001    -0.377323403581    12.000000000000
         C            1.226704841943    -3.543478731069    -0.376663190460    12.000000000000
         C           -2.455125398508     2.834212173472    -0.377045756273    12.000000000000
         C            4.914524380782    -1.427191399106    -0.367496149895    12.000000000000
         C            1.221424613699     4.970129576098    -0.367357715635    12.000000000000
         C            4.893008229321     2.825183510864    -0.369252224271    12.000000000000
         C           -1.226697008489    -3.543475486239    -0.376395986050    12.000000000000
         C           -3.681818976526     0.709320477570    -0.376936895179    12.000000000000
         C            3.693147101150    -3.542805830553    -0.367378259334    12.000000000000
         C           -1.221432251994     4.970123808701    -0.367174220263    12.000000000000
         C            6.134770972926     0.680543457943    -0.369699118080    12.000000000000
         C            3.656788880610     4.972948754405    -0.369510455211    12.000000000000
         C           -2.455126907733    -2.834219582223    -0.361273357806    12.000000000000
         C           -3.681819179061    -0.709330192631    -0.360759470062    12.000000000000
         C            4.893012617914    -2.825204594794    -0.368641072375    12.000000000000
         C           -0.000001073113     5.650442876870    -0.368405528969    12.000000000000
         C            6.134775112332    -0.680559343237    -0.368433797564    12.000000000000
         C            2.478131482856     5.653572262169    -0.368221675561    12.000000000000
         C            1.221422404738    -4.970131544095    -0.370157212658    12.000000000000
         C           -3.693162383965     3.542792465030    -0.370253585534    12.000000000000
         C           -1.221428520945    -4.970122792758    -0.370269974491    12.000000000000
         C           -4.914521807942     1.427170957833    -0.370391947622    12.000000000000
         C            3.656787019679    -4.972959715401    -0.368059954677    12.000000000000
         C           -2.478138530106     5.653569933366    -0.367937150552    12.000000000000
         C           -3.693141738564    -3.542794708141    -0.367494385490    12.000000000000
         C           -4.914512483053    -1.427185489190    -0.367461452721    12.000000000000
         C           -0.000006008926    -5.650442776176    -0.368801033091    12.000000000000
         C           -4.893020484101     2.825184109757    -0.369262306131    12.000000000000
         C            2.478125993298    -5.653578033051    -0.369150555469    12.000000000000
         C           -3.656798710258     4.972951692879    -0.369333774836    12.000000000000
         C           -4.892999478856    -2.825196256222    -0.368795108073    12.000000000000
         C           -2.478128498083    -5.653570659169    -0.369425743116    12.000000000000
         C           -6.134770503331     0.680544277094    -0.369724669782    12.000000000000
         C           -3.656788833189    -4.972948512133    -0.368274242493    12.000000000000
         C           -6.134765042913    -0.680558404644    -0.368454273359    12.000000000000
         H            5.835288495816     3.369271405792    -0.364892898608     1.007825032230
         H            7.073859172747     1.228212759737    -0.369237474686     1.007825032230
         H            4.600663264174     5.512376313291    -0.369005254459     1.007825032230
         H            5.835283387305    -3.369310545891    -0.373095539690     1.007825032230
         H           -0.000012151306     6.738526184974    -0.372754773977     1.007825032230
         H            7.073861171831    -1.228231431906    -0.368942535658     1.007825032230
         H            2.473313731799     6.740679802232    -0.368688396491     1.007825032230
         H            4.600668491381    -5.512380618338    -0.368469951845     1.007825032230
         H           -2.473318680537     6.740677230444    -0.368387049866     1.007825032230
         H           -0.000010268228    -6.738532665614    -0.364271348106     1.007825032230
         H           -5.835301914343     3.369266461134    -0.364756876460     1.007825032230
         H            2.473307923831    -6.740689863591    -0.368580225044     1.007825032230
         H           -4.600674841208     5.512373537441    -0.368839926135     1.007825032230
         H           -5.835279506835    -3.369293452942    -0.373374845571     1.007825032230
         H           -2.473300347440    -6.740683567302    -0.369029541588     1.007825032230
         H           -7.073857766768     1.228215983678    -0.369321466167     1.007825032230
         H           -4.600673786085    -5.512367158949    -0.368642259868     1.007825032230
         H           -7.073856934409    -1.228225121139    -0.369037392124     1.007825032230

  Running in c1 symmetry.

  Rotational constants: A =      0.00201  B =      0.00197  C =      0.00109 [cm^-1]
  Rotational constants: A =     60.24462  B =     59.03658  C =     32.56832 [MHz]
  Nuclear repulsion = 8571.656974587785953

  Charge       = 1
  Multiplicity = 1
  Electrons    = 394
  Nalpha       = 197
  Nbeta        = 197

  ==> Algorithm <==

  SCF Algorithm Type is DF.
  DIIS enabled.
  MOM disabled.
  Fractional occupation disabled.
  Guess Type is SAD.
  Energy threshold   = 1.00e-08
  Density threshold  = 1.00e-08
  Integral threshold = 1.00e-12

  ==> Primary Basis <==

  Basis Set: JUN-CC-PVDZ
    Blend: JUN-CC-PVDZ
    Number of shells: 569
    Number of basis functions: 1233
    Number of Cartesian functions: 1294
    Spherical Harmonics?: true
    Max angular momentum: 2

   => Loading Basis Set <=

    Name: (JUN-CC-PVDZ AUX)
    Role: JKFIT
    Keyword: DF_BASIS_SCF
    atoms 1-2, 4-5, 10, 17-70 entry C          line   146 file /opt/software/pc2/EB-SW/software/PSI4/1.9-foss-2022a/share/psi4/basis/jun-cc-pvdz-jkfit.gbs 
    atoms 3, 6                entry N          line   202 file /opt/software/pc2/EB-SW/software/PSI4/1.9-foss-2022a/share/psi4/basis/jun-cc-pvdz-jkfit.gbs 
    atoms 7-9, 11-16, 71-88   entry H          line    70 file /opt/software/pc2/EB-SW/software/PSI4/1.9-foss-2022a/share/psi4/basis/jun-cc-pvdz-jkfit.gbs 

  ==> Integral Setup <==

  ==> DiskDFJK: Density-Fitted J/K Matrices <==

    J tasked:                  Yes
    K tasked:                  Yes
    wK tasked:                  No
    OpenMP threads:             16
    Integrals threads:          16
    Memory [MiB]:            34332
    Algorithm:                Core
    Integral Cache:           SAVE
    Schwarz Cutoff:          1E-12
    Fitting Condition:       1E-10

   => Auxiliary Basis Set <=

  Basis Set: (JUN-CC-PVDZ AUX)
    Blend: JUN-CC-PVDZ-JKFIT
    Number of shells: 1890
    Number of basis functions: 5440
    Number of Cartesian functions: 6226
    Spherical Harmonics?: true
    Max angular momentum: 3

  Minimum eigenvalue in the overlap matrix is 3.8833542119E-10.
  Reciprocal condition number of the overlap matrix is 1.4427620329E-11.
    Using canonical orthogonalization.
  Overall, 14 of 1233 possible MOs eliminated.


  ==> Pre-Iterations <==

  SCF Guess: Superposition of Atomic Densities via on-the-fly atomic UHF (no occupation information).

   -------------------------
    Irrep   Nso     Nmo    
   -------------------------
     A       1233    1219 
   -------------------------
    Total    1233    1219
   -------------------------

  ==> Iterations <==

                           Total Energy        Delta E     RMS |[F,P]|

   @DF-RHF iter SAD: -2366.73110509896696   -2.36673e+03   0.00000e+00 
   @DF-RHF iter   1: -2358.15923580191884    8.57187e+00   9.44588e-04 DIIS/ADIIS
   @DF-RHF iter   2: -2359.04948035341113   -8.90245e-01   3.21792e-04 DIIS/ADIIS
   @DF-RHF iter   3: -2359.13881111496130   -8.93308e-02   1.26831e-04 DIIS/ADIIS
   @DF-RHF iter   4: -2359.15271490313853   -1.39038e-02   5.40320e-05 DIIS
   @DF-RHF iter   5: -2359.15540215087867   -2.68725e-03   1.53314e-05 DIIS
   @DF-RHF iter   6: -2359.15568757159963   -2.85421e-04   5.72400e-06 DIIS
   @DF-RHF iter   7: -2359.15577632425811   -8.87527e-05   2.51620e-06 DIIS
   @DF-RHF iter   8: -2359.15580167527378   -2.53510e-05   1.21849e-06 DIIS
   @DF-RHF iter   9: -2359.15580847919682   -6.80392e-06   3.56037e-07 DIIS
   @DF-RHF iter  10: -2359.15580885980398   -3.80607e-07   1.71779e-07 DIIS
   @DF-RHF iter  11: -2359.15580890416095   -4.43570e-08   6.74774e-08 DIIS
   @DF-RHF iter  12: -2359.15580891503123   -1.08703e-08   3.33584e-08 DIIS
   @DF-RHF iter  13: -2359.15580891983018   -4.79895e-09   1.63399e-08 DIIS
   @DF-RHF iter  14: -2359.15580892160051   -1.77033e-09   1.14842e-08 DIIS
   @DF-RHF iter  15: -2359.15580892237631   -7.75799e-10   7.40977e-09 DIIS
  Energy and wave function converged.


  ==> Post-Iterations <==

    Orbital Energies [Eh]
    ---------------------

    Doubly Occupied:                                                      

       1A    -15.782046     2A    -15.781491     3A    -11.480202  
       4A    -11.409017     5A    -11.407477     6A    -11.398112  
       7A    -11.393028     8A    -11.354344     9A    -11.353891  
      10A    -11.353211    11A    -11.352527    12A    -11.352369  
      13A    -11.351709    14A    -11.350913    15A    -11.350656  
      16A    -11.350618    17A    -11.350547    18A    -11.349943  
      19A    -11.348112    20A    -11.347679    21A    -11.347455  
      22A    -11.347424    23A    -11.347073    24A    -11.346702  
      25A    -11.346610    26A    -11.346576    27A    -11.346410  
      28A    -11.346206    29A    -11.345938    30A    -11.345606  
      31A    -11.345410    32A    -11.345263    33A    -11.345218  
      34A    -11.344928    35A    -11.344837    36A    -11.344795  
      37A    -11.344728    38A    -11.344145    39A    -11.344108  
      40A    -11.344062    41A    -11.343965    42A    -11.342794  
      43A    -11.342706    44A    -11.337356    45A    -11.337092  
      46A    -11.336451    47A    -11.336432    48A    -11.336384  
      49A    -11.335739    50A    -11.334387    51A    -11.334185  
      52A    -11.333742    53A    -11.333488    54A    -11.332927  
      55A    -11.332747    56A    -11.332572    57A    -11.332564  
      58A    -11.332234    59A    -11.332030    60A    -11.331027  
      61A    -11.331025    62A     -1.527963    63A     -1.383750  
      64A     -1.337711    65A     -1.311285    66A     -1.309283  
      67A     -1.278320    68A     -1.277594    69A     -1.271163  
      70A     -1.243845    71A     -1.236539    72A     -1.225835  
      73A     -1.224952    74A     -1.199027    75A     -1.198916  
      76A     -1.189537    77A     -1.172260    78A     -1.171097  
      79A     -1.167327    80A     -1.151122    81A     -1.151076  
      82A     -1.139793    83A     -1.126732    84A     -1.114435  
      85A     -1.112407    86A     -1.110984    87A     -1.103111  
      88A     -1.097258    89A     -1.076590    90A     -1.075218  
      91A     -1.069098    92A     -1.047495    93A     -1.047426  
      94A     -0.982031    95A     -0.981397    96A     -0.977623  
      97A     -0.975684    98A     -0.974709    99A     -0.971751  
     100A     -0.969674   101A     -0.969423   102A     -0.948890  
     103A     -0.947724   104A     -0.920585   105A     -0.905217  
     106A     -0.904569   107A     -0.900143   108A     -0.899472  
     109A     -0.879898   110A     -0.879302   111A     -0.869008  
     112A     -0.835264   113A     -0.832965   114A     -0.821282  
     115A     -0.820882   116A     -0.817205   117A     -0.817163  
     118A     -0.813496   119A     -0.803183   120A     -0.785093  
     121A     -0.784551   122A     -0.780366   123A     -0.779896  
     124A     -0.768783   125A     -0.765125   126A     -0.755313  
     127A     -0.745555   128A     -0.740946   129A     -0.739511  
     130A     -0.739221   131A     -0.735588   132A     -0.734453  
     133A     -0.734369   134A     -0.724786   135A     -0.724343  
     136A     -0.716246   137A     -0.714525   138A     -0.714294  
     139A     -0.695973   140A     -0.688997   141A     -0.686549  
     142A     -0.685749   143A     -0.684465   144A     -0.683549  
     145A     -0.681061   146A     -0.680284   147A     -0.679761  
     148A     -0.679638   149A     -0.678266   150A     -0.667719  
     151A     -0.664059   152A     -0.654660   153A     -0.653292  
     154A     -0.652979   155A     -0.650913   156A     -0.650712  
     157A     -0.645479   158A     -0.638807   159A     -0.638513  
     160A     -0.626050   161A     -0.622834   162A     -0.622771  
     163A     -0.619557   164A     -0.615359   165A     -0.614295  
     166A     -0.608412   167A     -0.607924   168A     -0.584576  
     169A     -0.582670   170A     -0.577708   171A     -0.574975  
     172A     -0.571955   173A     -0.567681   174A     -0.567472  
     175A     -0.565422   176A     -0.557570   177A     -0.550038  
     178A     -0.539350   179A     -0.538983   180A     -0.524205  
     181A     -0.523464   182A     -0.493740   183A     -0.492410  
     184A     -0.488694   185A     -0.478212   186A     -0.459063  
     187A     -0.458545   188A     -0.435088   189A     -0.430945  
     190A     -0.426355   191A     -0.419061   192A     -0.396634  
     193A     -0.380166   194A     -0.375819   195A     -0.374867  
     196A     -0.310697   197A     -0.310524  

    Virtual:                                                              

     198A     -0.075083   199A     -0.074151   200A     -0.042027  
     201A     -0.026877   202A     -0.025914   203A     -0.025530  
     204A     -0.023030   205A     -0.016711   206A     -0.012511  
     207A     -0.011963   208A     -0.010407   209A     -0.007166  
     210A     -0.004967   211A     -0.004781   212A     -0.002448  
     213A     -0.001812   214A      0.002335   215A      0.004118  
     216A      0.005571   217A      0.005633   218A      0.006470  
     219A      0.007151   220A      0.012694   221A      0.014525  
     222A      0.014555   223A      0.019275   224A      0.020875  
     225A      0.024386   226A      0.026091   227A      0.028764  
     228A      0.030353   229A      0.030432   230A      0.032372  
     231A      0.034682   232A      0.037406   233A      0.040753  
     234A      0.041269   235A      0.043332   236A      0.043573  
     237A      0.049003   238A      0.050274   239A      0.052601  
     240A      0.054955   241A      0.056267   242A      0.057894  
     243A      0.058591   244A      0.058799   245A      0.061628  
     246A      0.064989   247A      0.067259   248A      0.072175  
     249A      0.072370   250A      0.073785   251A      0.074654  
     252A      0.076012   253A      0.080294   254A      0.080455  
     255A      0.083599   256A      0.084259   257A      0.087746  
     258A      0.090105   259A      0.094115   260A      0.094169  
     261A      0.096657   262A      0.096754   263A      0.097083  
     264A      0.100970   265A      0.102794   266A      0.105357  
     267A      0.108028   268A      0.108853   269A      0.110348  
     270A      0.111713   271A      0.112842   272A      0.114425  
     273A      0.115380   274A      0.116289   275A      0.120498  
     276A      0.121832   277A      0.122016   278A      0.125504  
     279A      0.130598   280A      0.134875   281A      0.137765  
     282A      0.137851   283A      0.141084   284A      0.143880  
     285A      0.144361   286A      0.144688   287A      0.146309  
     288A      0.146442   289A      0.147157   290A      0.147245  
     291A      0.148457   292A      0.150141   293A      0.150646  
     294A      0.154401   295A      0.154593   296A      0.155781  
     297A      0.156854   298A      0.157861   299A      0.158281  
     300A      0.161020   301A      0.163776   302A      0.165581  
     303A      0.166073   304A      0.166417   305A      0.168267  
     306A      0.169345   307A      0.170937   308A      0.173977  
     309A      0.175852   310A      0.177734   311A      0.181783  
     312A      0.182673   313A      0.183354   314A      0.183843  
     315A      0.185533   316A      0.186448   317A      0.187326  
     318A      0.188831   319A      0.190026   320A      0.191284  
     321A      0.192286   322A      0.196132   323A      0.196545  
     324A      0.197119   325A      0.200327   326A      0.201535  
     327A      0.202465   328A      0.203148   329A      0.205256  
     330A      0.205765   331A      0.209266   332A      0.211702  
     333A      0.213272   334A      0.214755   335A      0.220812  
     336A      0.221416   337A      0.222121   338A      0.225183  
     339A      0.226804   340A      0.227335   341A      0.228493  
     342A      0.229652   343A      0.230213   344A      0.233115  
     345A      0.234464   346A      0.235894   347A      0.236545  
     348A      0.236982   349A      0.237587   350A      0.240013  
     351A      0.240676   352A      0.242450   353A      0.242773  
     354A      0.243393   355A      0.245952   356A      0.247176  
     357A      0.247396   358A      0.248656   359A      0.249184  
     360A      0.253616   361A      0.254224   362A      0.256237  
     363A      0.256976   364A      0.258555   365A      0.261013  
     366A      0.261894   367A      0.262668   368A      0.264586  
     369A      0.267087   370A      0.267543   371A      0.269664  
     372A      0.269871   373A      0.273189   374A      0.277137  
     375A      0.278751   376A      0.278932   377A      0.279741  
     378A      0.281464   379A      0.283032   380A      0.284290  
     381A      0.285090   382A      0.286771   383A      0.289760  
     384A      0.290452   385A      0.290854   386A      0.291984  
     387A      0.292446   388A      0.293151   389A      0.296433  
     390A      0.297013   391A      0.298142   392A      0.302782  
     393A      0.304368   394A      0.304870   395A      0.309375  
     396A      0.309666   397A      0.311053   398A      0.314195  
     399A      0.314834   400A      0.316770   401A      0.318352  
     402A      0.318876   403A      0.320243   404A      0.320911  
     405A      0.321273   406A      0.323524   407A      0.324191  
     408A      0.325187   409A      0.327881   410A      0.328291  
     411A      0.329804   412A      0.331382   413A      0.331782  
     414A      0.332497   415A      0.333249   416A      0.334719  
     417A      0.335388   418A      0.335878   419A      0.337445  
     420A      0.338187   421A      0.339743   422A      0.340718  
     423A      0.343759   424A      0.344710   425A      0.346871  
     426A      0.347760   427A      0.352585   428A      0.356691  
     429A      0.357889   430A      0.359609   431A      0.360884  
     432A      0.360966   433A      0.362619   434A      0.364156  
     435A      0.365592   436A      0.367389   437A      0.370725  
     438A      0.373055   439A      0.373484   440A      0.376153  
     441A      0.377485   442A      0.379041   443A      0.379547  
     444A      0.380525   445A      0.380982   446A      0.381961  
     447A      0.382513   448A      0.385586   449A      0.386635  
     450A      0.388411   451A      0.389286   452A      0.390549  
     453A      0.393228   454A      0.395250   455A      0.398487  
     456A      0.401021   457A      0.401344   458A      0.403937  
     459A      0.405507   460A      0.409286   461A      0.409853  
     462A      0.410408   463A      0.413132   464A      0.414840  
     465A      0.416030   466A      0.416473   467A      0.417034  
     468A      0.419800   469A      0.420777   470A      0.421423  
     471A      0.422146   472A      0.425306   473A      0.425848  
     474A      0.428136   475A      0.431098   476A      0.435612  
     477A      0.436639   478A      0.439986   479A      0.441502  
     480A      0.443002   481A      0.447386   482A      0.449607  
     483A      0.451323   484A      0.452681   485A      0.458744  
     486A      0.461297   487A      0.462032   488A      0.463817  
     489A      0.465575   490A      0.466891   491A      0.468657  
     492A      0.469068   493A      0.470869   494A      0.472140  
     495A      0.474647   496A      0.475918   497A      0.477452  
     498A      0.480953   499A      0.481688   500A      0.486124  
     501A      0.488253   502A      0.491043   503A      0.491939  
     504A      0.495762   505A      0.503185   506A      0.503732  
     507A      0.506892   508A      0.511997   509A      0.515359  
     510A      0.517336   511A      0.518036   512A      0.523214  
     513A      0.526518   514A      0.534559   515A      0.538738  
     516A      0.543448   517A      0.544687   518A      0.545465  
     519A      0.547179   520A      0.555015   521A      0.564238  
     522A      0.570989   523A      0.573528   524A      0.578260  
     525A      0.583469   526A      0.586534   527A      0.587033  
     528A      0.591466   529A      0.593422   530A      0.594270  
     531A      0.605404   532A      0.613604   533A      0.632085  
     534A      0.632201   535A      0.657711   536A      0.660049  
     537A      0.660869   538A      0.661839   539A      0.662256  
     540A      0.662495   541A      0.672785   542A      0.673331  
     543A      0.685208   544A      0.691184   545A      0.706180  
     546A      0.714508   547A      0.716845   548A      0.719302  
     549A      0.728904   550A      0.734170   551A      0.735824  
     552A      0.743935   553A      0.745787   554A      0.750602  
     555A      0.751449   556A      0.760797   557A      0.764785  
     558A      0.769794   559A      0.772792   560A      0.778075  
     561A      0.779852   562A      0.781478   563A      0.786716  
     564A      0.789830   565A      0.791238   566A      0.793284  
     567A      0.795521   568A      0.797870   569A      0.798910  
     570A      0.799468   571A      0.803502   572A      0.805221  
     573A      0.805966   574A      0.809497   575A      0.813499  
     576A      0.814189   577A      0.816522   578A      0.816804  
     579A      0.819163   580A      0.823648   581A      0.827605  
     582A      0.830999   583A      0.832844   584A      0.835064  
     585A      0.835746   586A      0.836947   587A      0.838814  
     588A      0.840735   589A      0.841338   590A      0.842529  
     591A      0.845311   592A      0.847284   593A      0.849719  
     594A      0.851064   595A      0.853235   596A      0.856473  
     597A      0.859939   598A      0.861535   599A      0.863884  
     600A      0.868250   601A      0.869801   602A      0.871907  
     603A      0.875752   604A      0.878189   605A      0.879563  
     606A      0.882648   607A      0.884521   608A      0.885378  
     609A      0.887126   610A      0.889316   611A      0.891505  
     612A      0.893977   613A      0.894236   614A      0.898323  
     615A      0.899347   616A      0.903359   617A      0.905802  
     618A      0.906694   619A      0.909110   620A      0.911240  
     621A      0.913843   622A      0.918275   623A      0.921589  
     624A      0.923424   625A      0.925293   626A      0.927976  
     627A      0.928595   628A      0.933040   629A      0.934317  
     630A      0.937751   631A      0.938314   632A      0.940442  
     633A      0.943023   634A      0.945524   635A      0.946330  
     636A      0.948597   637A      0.949031   638A      0.950709  
     639A      0.956601   640A      0.959296   641A      0.960126  
     642A      0.961339   643A      0.962947   644A      0.964391  
     645A      0.966746   646A      0.968769   647A      0.969509  
     648A      0.971188   649A      0.974877   650A      0.976273  
     651A      0.977261   652A      0.978977   653A      0.981471  
     654A      0.983495   655A      0.985228   656A      0.986379  
     657A      0.988829   658A      0.991535   659A      0.992835  
     660A      0.994476   661A      0.995355   662A      0.997657  
     663A      1.001675   664A      1.004322   665A      1.007322  
     666A      1.009802   667A      1.010724   668A      1.011391  
     669A      1.013089   670A      1.016465   671A      1.019711  
     672A      1.022485   673A      1.024278   674A      1.025739  
     675A      1.026544   676A      1.029058   677A      1.030817  
     678A      1.032643   679A      1.036497   680A      1.038098  
     681A      1.039158   682A      1.041255   683A      1.043859  
     684A      1.047884   685A      1.051573   686A      1.056303  
     687A      1.058338   688A      1.060338   689A      1.062167  
     690A      1.062941   691A      1.065050   692A      1.066160  
     693A      1.070026   694A      1.072272   695A      1.076647  
     696A      1.078102   697A      1.079902   698A      1.085994  
     699A      1.086521   700A      1.092160   701A      1.097001  
     702A      1.105042   703A      1.106602   704A      1.113154  
     705A      1.116053   706A      1.116995   707A      1.121055  
     708A      1.122925   709A      1.124758   710A      1.127332  
     711A      1.133939   712A      1.136963   713A      1.137580  
     714A      1.140025   715A      1.142429   716A      1.147352  
     717A      1.149943   718A      1.154562   719A      1.159037  
     720A      1.160364   721A      1.165395   722A      1.168173  
     723A      1.168983   724A      1.171304   725A      1.171735  
     726A      1.176726   727A      1.178666   728A      1.180831  
     729A      1.182236   730A      1.183655   731A      1.188804  
     732A      1.191938   733A      1.192678   734A      1.197624  
     735A      1.199850   736A      1.201229   737A      1.203835  
     738A      1.210690   739A      1.212370   740A      1.213577  
     741A      1.216831   742A      1.220537   743A      1.222521  
     744A      1.227668   745A      1.232064   746A      1.234707  
     747A      1.238802   748A      1.241155   749A      1.243169  
     750A      1.245250   751A      1.248383   752A      1.250462  
     753A      1.251692   754A      1.256822   755A      1.259106  
     756A      1.260299   757A      1.261778   758A      1.265602  
     759A      1.266208   760A      1.271532   761A      1.276432  
     762A      1.277924   763A      1.279853   764A      1.283384  
     765A      1.285339   766A      1.292492   767A      1.297997  
     768A      1.300391   769A      1.302348   770A      1.303762  
     771A      1.313525   772A      1.315359   773A      1.318252  
     774A      1.319436   775A      1.322193   776A      1.326559  
     777A      1.328071   778A      1.332774   779A      1.334357  
     780A      1.337873   781A      1.339642   782A      1.341475  
     783A      1.342974   784A      1.350047   785A      1.351235  
     786A      1.359617   787A      1.362007   788A      1.363808  
     789A      1.365971   790A      1.367514   791A      1.369677  
     792A      1.370158   793A      1.372217   794A      1.375035  
     795A      1.381826   796A      1.387396   797A      1.391088  
     798A      1.395624   799A      1.401539   800A      1.411159  
     801A      1.419567   802A      1.426362   803A      1.429006  
     804A      1.434783   805A      1.436909   806A      1.440141  
     807A      1.443998   808A      1.453623   809A      1.456983  
     810A      1.463806   811A      1.469672   812A      1.473010  
     813A      1.482141   814A      1.499918   815A      1.505392  
     816A      1.512630   817A      1.515807   818A      1.518975  
     819A      1.524395   820A      1.537692   821A      1.543676  
     822A      1.546189   823A      1.548136   824A      1.550398  
     825A      1.552539   826A      1.554689   827A      1.557307  
     828A      1.562033   829A      1.562949   830A      1.565575  
     831A      1.568911   832A      1.572059   833A      1.575346  
     834A      1.577018   835A      1.580631   836A      1.584217  
     837A      1.585982   838A      1.588370   839A      1.590675  
     840A      1.596912   841A      1.599656   842A      1.601499  
     843A      1.602803   844A      1.608383   845A      1.610131  
     846A      1.611259   847A      1.614125   848A      1.619680  
     849A      1.622872   850A      1.628447   851A      1.630665  
     852A      1.632598   853A      1.638798   854A      1.645975  
     855A      1.646169   856A      1.651874   857A      1.665377  
     858A      1.670512   859A      1.676392   860A      1.677773  
     861A      1.680204   862A      1.680785   863A      1.684069  
     864A      1.686448   865A      1.693296   866A      1.698061  
     867A      1.702054   868A      1.707807   869A      1.717215  
     870A      1.724535   871A      1.726852   872A      1.729289  
     873A      1.732736   874A      1.736306   875A      1.738155  
     876A      1.744047   877A      1.745752   878A      1.752987  
     879A      1.758426   880A      1.760180   881A      1.762734  
     882A      1.769694   883A      1.772634   884A      1.775753  
     885A      1.778791   886A      1.782935   887A      1.786388  
     888A      1.789062   889A      1.793300   890A      1.794057  
     891A      1.796167   892A      1.804426   893A      1.804852  
     894A      1.806018   895A      1.810205   896A      1.816079  
     897A      1.819748   898A      1.821497   899A      1.824920  
     900A      1.826572   901A      1.826753   902A      1.828179  
     903A      1.831011   904A      1.831793   905A      1.838072  
     906A      1.839766   907A      1.843372   908A      1.847660  
     909A      1.852582   910A      1.854913   911A      1.857727  
     912A      1.862165   913A      1.865140   914A      1.866614  
     915A      1.869263   916A      1.870349   917A      1.872112  
     918A      1.873542   919A      1.879233   920A      1.884132  
     921A      1.886272   922A      1.891705   923A      1.897848  
     924A      1.903633   925A      1.905685   926A      1.909478  
     927A      1.909659   928A      1.916609   929A      1.919760  
     930A      1.922442   931A      1.926098   932A      1.927514  
     933A      1.929717   934A      1.934172   935A      1.937587  
     936A      1.939457   937A      1.942854   938A      1.946059  
     939A      1.946733   940A      1.949857   941A      1.951532  
     942A      1.955688   943A      1.957419   944A      1.962216  
     945A      1.964516   946A      1.966270   947A      1.967945  
     948A      1.970713   949A      1.972979   950A      1.975018  
     951A      1.978434   952A      1.979798   953A      1.986240  
     954A      1.989927   955A      1.991348   956A      1.993260  
     957A      1.996985   958A      2.001183   959A      2.004763  
     960A      2.008491   961A      2.009182   962A      2.011214  
     963A      2.014178   964A      2.017224   965A      2.017826  
     966A      2.019487   967A      2.021433   968A      2.026670  
     969A      2.026849   970A      2.028274   971A      2.029619  
     972A      2.030959   973A      2.034190   974A      2.037649  
     975A      2.038018   976A      2.039706   977A      2.039859  
     978A      2.041366   979A      2.046082   980A      2.048130  
     981A      2.050889   982A      2.051159   983A      2.054858  
     984A      2.056656   985A      2.058944   986A      2.060897  
     987A      2.064019   988A      2.066295   989A      2.068685  
     990A      2.074224   991A      2.076191   992A      2.077968  
     993A      2.081075   994A      2.084316   995A      2.085323  
     996A      2.091932   997A      2.095158   998A      2.096619  
     999A      2.099094  1000A      2.100748  1001A      2.107709  
    1002A      2.108649  1003A      2.111991  1004A      2.115886  
    1005A      2.116584  1006A      2.119046  1007A      2.122954  
    1008A      2.125461  1009A      2.131619  1010A      2.132911  
    1011A      2.137185  1012A      2.140667  1013A      2.150086  
    1014A      2.154052  1015A      2.160296  1016A      2.160893  
    1017A      2.165267  1018A      2.166404  1019A      2.167729  
    1020A      2.168494  1021A      2.171243  1022A      2.175722  
    1023A      2.179393  1024A      2.181452  1025A      2.185260  
    1026A      2.188229  1027A      2.189588  1028A      2.193336  
    1029A      2.194137  1030A      2.199824  1031A      2.200890  
    1032A      2.209109  1033A      2.219336  1034A      2.225032  
    1035A      2.228688  1036A      2.230795  1037A      2.240564  
    1038A      2.244977  1039A      2.245423  1040A      2.251663  
    1041A      2.256762  1042A      2.259354  1043A      2.262923  
    1044A      2.264652  1045A      2.268204  1046A      2.269143  
    1047A      2.272539  1048A      2.276434  1049A      2.283943  
    1050A      2.292339  1051A      2.297734  1052A      2.305909  
    1053A      2.312629  1054A      2.321824  1055A      2.330849  
    1056A      2.332567  1057A      2.337047  1058A      2.338241  
    1059A      2.339353  1060A      2.351877  1061A      2.359967  
    1062A      2.361524  1063A      2.369224  1064A      2.374108  
    1065A      2.386641  1066A      2.396112  1067A      2.404832  
    1068A      2.407703  1069A      2.417136  1070A      2.419940  
    1071A      2.426089  1072A      2.434450  1073A      2.442756  
    1074A      2.447553  1075A      2.461259  1076A      2.463391  
    1077A      2.466424  1078A      2.469238  1079A      2.470910  
    1080A      2.474271  1081A      2.476133  1082A      2.477028  
    1083A      2.479525  1084A      2.480580  1085A      2.483444  
    1086A      2.491526  1087A      2.496542  1088A      2.498342  
    1089A      2.502144  1090A      2.504406  1091A      2.513831  
    1092A      2.514314  1093A      2.520661  1094A      2.523235  
    1095A      2.532694  1096A      2.536393  1097A      2.543338  
    1098A      2.548356  1099A      2.553208  1100A      2.560891  
    1101A      2.562427  1102A      2.569032  1103A      2.570932  
    1104A      2.573159  1105A      2.577075  1106A      2.581190  
    1107A      2.593306  1108A      2.601110  1109A      2.603827  
    1110A      2.605853  1111A      2.617371  1112A      2.621697  
    1113A      2.624852  1114A      2.627102  1115A      2.631313  
    1116A      2.632257  1117A      2.633296  1118A      2.634713  
    1119A      2.650505  1120A      2.669350  1121A      2.674548  
    1122A      2.678248  1123A      2.680487  1124A      2.683559  
    1125A      2.708037  1126A      2.715339  1127A      2.719675  
    1128A      2.732451  1129A      2.742803  1130A      2.745000  
    1131A      2.751965  1132A      2.757236  1133A      2.762804  
    1134A      2.765155  1135A      2.766738  1136A      2.767870  
    1137A      2.776394  1138A      2.788006  1139A      2.801855  
    1140A      2.803509  1141A      2.809019  1142A      2.817842  
    1143A      2.835836  1144A      2.837661  1145A      2.840411  
    1146A      2.848260  1147A      2.853555  1148A      2.863494  
    1149A      2.867334  1150A      2.878227  1151A      2.882822  
    1152A      2.889114  1153A      2.893042  1154A      2.920618  
    1155A      2.926771  1156A      2.937801  1157A      2.950126  
    1158A      2.962084  1159A      2.971124  1160A      2.973407  
    1161A      2.977831  1162A      2.981065  1163A      3.005588  
    1164A      3.015569  1165A      3.039703  1166A      3.043137  
    1167A      3.056516  1168A      3.058151  1169A      3.061787  
    1170A      3.063934  1171A      3.065209  1172A      3.066878  
    1173A      3.069269  1174A      3.072447  1175A      3.074763  
    1176A      3.081295  1177A      3.091788  1178A      3.094857  
    1179A      3.100115  1180A      3.108626  1181A      3.118492  
    1182A      3.129379  1183A      3.132631  1184A      3.150238  
    1185A      3.155722  1186A      3.164173  1187A      3.170773  
    1188A      3.199989  1189A      3.211627  1190A      3.230656  
    1191A      3.235537  1192A      3.247718  1193A      3.339487  
    1194A      3.340252  1195A      3.409779  1196A      3.412236  
    1197A      3.467328  1198A      3.476518  1199A      3.521621  
    1200A      3.537964  1201A      3.555257  1202A      3.563414  
    1203A      3.573180  1204A      3.586379  1205A      3.605853  
    1206A      3.623528  1207A      3.655422  1208A      3.722438  
    1209A      3.769077  1210A      3.787859  1211A      3.788999  
    1212A      3.819469  1213A      3.831214  1214A      3.831813  
    1215A      3.902500  1216A      3.923696  1217A      4.040531  
    1218A      4.048905  1219A      4.099580  

    Final Occupation by Irrep:
              A 
    DOCC [   197 ]
    NA   [   197 ]
    NB   [   197 ]

  @DF-RHF Final Energy: -2359.15580892237631

   => Energetics <=

    Nuclear Repulsion Energy =           8571.6569745877859532
    One-Electron Energy =              -20240.7068060714955209
    Two-Electron Energy =                9309.8940225613332586
    Total Energy =                      -2359.1558089223763091

Computation Completed


Properties will be evaluated at   0.000000,   0.000000,   0.000000 [a0]

Properties computed using the SCF density matrix


 Multipole Moments:

 ------------------------------------------------------------------------------------
     Multipole            Electronic (a.u.)      Nuclear  (a.u.)        Total (a.u.)
 ------------------------------------------------------------------------------------

 L = 1.  Multiply by 2.5417464519 to convert [e a0] to [Debye]
 Dipole X            :          0.0038090            0.0006313            0.0044403
 Dipole Y            :         -1.6546229            1.8864948            0.2318719
 Dipole Z            :        -12.0628885           15.0608716            2.9979831
 Magnitude           :                                                    3.0069398

 ------------------------------------------------------------------------------------

*** tstop() called on n2cn0255 at Sat Feb 10 12:12:49 2024
Module time:
	user time   =    6665.75 seconds =     111.10 minutes
	system time =     228.02 seconds =       3.80 minutes
	total time  =        532 seconds =       8.87 minutes
Total time:
	user time   =    6665.75 seconds =     111.10 minutes
	system time =     228.02 seconds =       3.80 minutes
	total time  =        532 seconds =       8.87 minutes

  //>>>>>>>>>>>>>>>>>>>>>>>>>>>>>>>>>>>//
  //            Monomer A HF           //
  //<<<<<<<<<<<<<<<<<<<<<<<<<<<<<<<<<<<//

   => Libint2 <=

    Primary   basis highest AM E, G, H:  5, 4, 3
    Auxiliary basis highest AM E, G, H:  6, 5, 4
    Onebody   basis highest AM E, G, H:  6, 5, 4
    Solid Harmonics ordering:            gaussian

*** tstart() called on n2cn0255
*** at Sat Feb 10 12:12:49 2024

   => Loading Basis Set <=

    Name: JUN-CC-PVDZ
    Role: ORBITAL
    Keyword: BASIS
    atoms 1-2, 4-5, 10, 17-70 entry C          line   164 file /opt/software/pc2/EB-SW/software/PSI4/1.9-foss-2022a/share/psi4/basis/jun-cc-pvdz.gbs 
    atoms 3, 6                entry N          line   198 file /opt/software/pc2/EB-SW/software/PSI4/1.9-foss-2022a/share/psi4/basis/jun-cc-pvdz.gbs 
    atoms 7-9, 11-16, 71-88   entry H          line    36 file /opt/software/pc2/EB-SW/software/PSI4/1.9-foss-2022a/share/psi4/basis/jun-cc-pvdz.gbs 


         ---------------------------------------------------------
                                   SCF
               by Justin Turney, Rob Parrish, Andy Simmonett
                          and Daniel G. A. Smith
                              RHF Reference
                       16 Threads,  45776 MiB Core
         ---------------------------------------------------------

  ==> Geometry <==

    Molecular point group: c1
    Full point group: C1

    Geometry (in Angstrom), charge = 1, multiplicity = 1:

       Center              X                  Y                   Z               Mass       
    ------------   -----------------  -----------------  -----------------  -----------------
         C            0.680066520158    -1.215933861162     2.539181973687    12.000000000000
         C           -0.680504479842    -1.215549861162     2.537153973687    12.000000000000
         N           -1.085635479842     0.102774138838     2.536155973687    14.003074004430
         C            0.000107520158     0.884175138838     2.532879973687    12.000000000000
         C           -2.477365479842     0.570753138838     2.486749973687    12.000000000000
         N            1.085221520158     0.102774138838     2.536155973687    14.003074004430
         H            1.385145520158    -2.033372861162     2.547009973687     1.007825032230
         H           -1.385302479842    -2.033218861162     2.537343973687     1.007825032230
         H           -0.000009479842     1.965264138838     2.531132973687     1.007825032230
         C            2.478116520158     0.567872138838     2.553047973687    12.000000000000
         H            2.490591520158     1.658125138838     2.525702973687     1.007825032230
         H            2.967027520158     0.220696138838     3.466493973687     1.007825032230
         H            3.001427520158     0.176400138838     1.677564973687     1.007825032230
         H           -2.857359479842     0.490794138838     1.464678973687     1.007825032230
         H           -3.082679479842    -0.042310861162     3.156833973687     1.007825032230
         H           -2.518128479842     1.610701138838     2.813733973687     1.007825032230
      Gh(C)           1.225311895423     0.707533799757    -0.362722399030    12.000000000000
      Gh(C)           1.225323856051    -0.707543383733    -0.375053208600    12.000000000000
      Gh(C)          -0.000006153932     1.414961424928    -0.375586832121    12.000000000000
      Gh(C)           2.456448753949     1.418323398016    -0.359835541630    12.000000000000
      Gh(C)           0.000010827279    -1.414980987797    -0.365387274796    12.000000000000
      Gh(C)          -1.225300948908     0.707540884822    -0.360470878707    12.000000000000
      Gh(C)           2.456437755320    -1.418327793043    -0.377298365457    12.000000000000
      Gh(C)          -0.000001332978     2.836796542119    -0.377990382255    12.000000000000
      Gh(C)           3.681826697470     0.709313466839    -0.376949575659    12.000000000000
      Gh(C)           2.455120048865     2.834219172327    -0.377052132620    12.000000000000
      Gh(C)           3.681821105219    -0.709338328591    -0.360877091641    12.000000000000
      Gh(C)          -1.225313598688    -0.707532004706    -0.373980447173    12.000000000000
      Gh(C)           1.226699581202     3.543464994832    -0.360693059710    12.000000000000
      Gh(C)           0.000004784858    -2.836786628398    -0.360539107175    12.000000000000
      Gh(C)          -2.456436032848     1.418312429123    -0.360435482861    12.000000000000
      Gh(C)           2.455123417779    -2.834234517751    -0.361029000008    12.000000000000
      Gh(C)          -1.226714364589     3.543464574588    -0.360589726491    12.000000000000
      Gh(C)           4.914517295202     1.427168383327    -0.370468892629    12.000000000000
      Gh(C)           3.693150191476     3.542790803383    -0.370419092993    12.000000000000
      Gh(C)          -2.456437600068    -1.418317770001    -0.377323403581    12.000000000000
      Gh(C)           1.226704841943    -3.543478731069    -0.376663190460    12.000000000000
      Gh(C)          -2.455125398508     2.834212173472    -0.377045756273    12.000000000000
      Gh(C)           4.914524380782    -1.427191399106    -0.367496149895    12.000000000000
      Gh(C)           1.221424613699     4.970129576098    -0.367357715635    12.000000000000
      Gh(C)           4.893008229321     2.825183510864    -0.369252224271    12.000000000000
      Gh(C)          -1.226697008489    -3.543475486239    -0.376395986050    12.000000000000
      Gh(C)          -3.681818976526     0.709320477570    -0.376936895179    12.000000000000
      Gh(C)           3.693147101150    -3.542805830553    -0.367378259334    12.000000000000
      Gh(C)          -1.221432251994     4.970123808701    -0.367174220263    12.000000000000
      Gh(C)           6.134770972926     0.680543457943    -0.369699118080    12.000000000000
      Gh(C)           3.656788880610     4.972948754405    -0.369510455211    12.000000000000
      Gh(C)          -2.455126907733    -2.834219582223    -0.361273357806    12.000000000000
      Gh(C)          -3.681819179061    -0.709330192631    -0.360759470062    12.000000000000
      Gh(C)           4.893012617914    -2.825204594794    -0.368641072375    12.000000000000
      Gh(C)          -0.000001073113     5.650442876870    -0.368405528969    12.000000000000
      Gh(C)           6.134775112332    -0.680559343237    -0.368433797564    12.000000000000
      Gh(C)           2.478131482856     5.653572262169    -0.368221675561    12.000000000000
      Gh(C)           1.221422404738    -4.970131544095    -0.370157212658    12.000000000000
      Gh(C)          -3.693162383965     3.542792465030    -0.370253585534    12.000000000000
      Gh(C)          -1.221428520945    -4.970122792758    -0.370269974491    12.000000000000
      Gh(C)          -4.914521807942     1.427170957833    -0.370391947622    12.000000000000
      Gh(C)           3.656787019679    -4.972959715401    -0.368059954677    12.000000000000
      Gh(C)          -2.478138530106     5.653569933366    -0.367937150552    12.000000000000
      Gh(C)          -3.693141738564    -3.542794708141    -0.367494385490    12.000000000000
      Gh(C)          -4.914512483053    -1.427185489190    -0.367461452721    12.000000000000
      Gh(C)          -0.000006008926    -5.650442776176    -0.368801033091    12.000000000000
      Gh(C)          -4.893020484101     2.825184109757    -0.369262306131    12.000000000000
      Gh(C)           2.478125993298    -5.653578033051    -0.369150555469    12.000000000000
      Gh(C)          -3.656798710258     4.972951692879    -0.369333774836    12.000000000000
      Gh(C)          -4.892999478856    -2.825196256222    -0.368795108073    12.000000000000
      Gh(C)          -2.478128498083    -5.653570659169    -0.369425743116    12.000000000000
      Gh(C)          -6.134770503331     0.680544277094    -0.369724669782    12.000000000000
      Gh(C)          -3.656788833189    -4.972948512133    -0.368274242493    12.000000000000
      Gh(C)          -6.134765042913    -0.680558404644    -0.368454273359    12.000000000000
      Gh(H)           5.835288495816     3.369271405792    -0.364892898608     1.007825032230
      Gh(H)           7.073859172747     1.228212759737    -0.369237474686     1.007825032230
      Gh(H)           4.600663264174     5.512376313291    -0.369005254459     1.007825032230
      Gh(H)           5.835283387305    -3.369310545891    -0.373095539690     1.007825032230
      Gh(H)          -0.000012151306     6.738526184974    -0.372754773977     1.007825032230
      Gh(H)           7.073861171831    -1.228231431906    -0.368942535658     1.007825032230
      Gh(H)           2.473313731799     6.740679802232    -0.368688396491     1.007825032230
      Gh(H)           4.600668491381    -5.512380618338    -0.368469951845     1.007825032230
      Gh(H)          -2.473318680537     6.740677230444    -0.368387049866     1.007825032230
      Gh(H)          -0.000010268228    -6.738532665614    -0.364271348106     1.007825032230
      Gh(H)          -5.835301914343     3.369266461134    -0.364756876460     1.007825032230
      Gh(H)           2.473307923831    -6.740689863591    -0.368580225044     1.007825032230
      Gh(H)          -4.600674841208     5.512373537441    -0.368839926135     1.007825032230
      Gh(H)          -5.835279506835    -3.369293452942    -0.373374845571     1.007825032230
      Gh(H)          -2.473300347440    -6.740683567302    -0.369029541588     1.007825032230
      Gh(H)          -7.073857766768     1.228215983678    -0.369321466167     1.007825032230
      Gh(H)          -4.600673786085    -5.512367158949    -0.368642259868     1.007825032230
      Gh(H)          -7.073856934409    -1.228225121139    -0.369037392124     1.007825032230

  Running in c1 symmetry.

  Rotational constants: A =      0.00201  B =      0.00197  C =      0.00109 [cm^-1]
  Rotational constants: A =     60.24462  B =     59.03658  C =     32.56832 [MHz]
  Nuclear repulsion =  306.774908447733026

  Charge       = 1
  Multiplicity = 1
  Electrons    = 52
  Nalpha       = 26
  Nbeta        = 26

  ==> Algorithm <==

  SCF Algorithm Type is DF.
  DIIS enabled.
  MOM disabled.
  Fractional occupation disabled.
  Guess Type is SAD.
  Energy threshold   = 1.00e-08
  Density threshold  = 1.00e-08
  Integral threshold = 1.00e-12

  ==> Primary Basis <==

  Basis Set: JUN-CC-PVDZ
    Blend: JUN-CC-PVDZ
    Number of shells: 569
    Number of basis functions: 1233
    Number of Cartesian functions: 1294
    Spherical Harmonics?: true
    Max angular momentum: 2

   => Loading Basis Set <=

    Name: (JUN-CC-PVDZ AUX)
    Role: JKFIT
    Keyword: DF_BASIS_SCF
    atoms 1-2, 4-5, 10, 17-70 entry C          line   146 file /opt/software/pc2/EB-SW/software/PSI4/1.9-foss-2022a/share/psi4/basis/jun-cc-pvdz-jkfit.gbs 
    atoms 3, 6                entry N          line   202 file /opt/software/pc2/EB-SW/software/PSI4/1.9-foss-2022a/share/psi4/basis/jun-cc-pvdz-jkfit.gbs 
    atoms 7-9, 11-16, 71-88   entry H          line    70 file /opt/software/pc2/EB-SW/software/PSI4/1.9-foss-2022a/share/psi4/basis/jun-cc-pvdz-jkfit.gbs 

  ==> Integral Setup <==

  ==> DiskDFJK: Density-Fitted J/K Matrices <==

    J tasked:                  Yes
    K tasked:                  Yes
    wK tasked:                  No
    OpenMP threads:             16
    Integrals threads:          16
    Memory [MiB]:            34332
    Algorithm:                Core
    Integral Cache:           LOAD
    Schwarz Cutoff:          1E-12
    Fitting Condition:       1E-10

   => Auxiliary Basis Set <=

  Basis Set: (JUN-CC-PVDZ AUX)
    Blend: JUN-CC-PVDZ-JKFIT
    Number of shells: 1890
    Number of basis functions: 5440
    Number of Cartesian functions: 6226
    Spherical Harmonics?: true
    Max angular momentum: 3

  Minimum eigenvalue in the overlap matrix is 3.8833542119E-10.
  Reciprocal condition number of the overlap matrix is 1.4427620329E-11.
    Using canonical orthogonalization.
  Overall, 14 of 1233 possible MOs eliminated.


  ==> Pre-Iterations <==

  SCF Guess: Superposition of Atomic Densities via on-the-fly atomic UHF (no occupation information).

   -------------------------
    Irrep   Nso     Nmo    
   -------------------------
     A       1233    1219 
   -------------------------
    Total    1233    1219
   -------------------------

  ==> Iterations <==

                           Total Energy        Delta E     RMS |[F,P]|

   @DF-RHF iter SAD:  -303.36538729074198   -3.03365e+02   0.00000e+00 
   @DF-RHF iter   1:  -303.17178162120695    1.93606e-01   3.45792e-04 DIIS/ADIIS
   @DF-RHF iter   2:  -303.28625954392584   -1.14478e-01   1.16251e-04 DIIS/ADIIS
   @DF-RHF iter   3:  -303.29780139636176   -1.15419e-02   4.56332e-05 DIIS
   @DF-RHF iter   4:  -303.29973498470616   -1.93359e-03   1.00251e-05 DIIS
   @DF-RHF iter   5:  -303.29984441005024   -1.09425e-04   2.45474e-06 DIIS
   @DF-RHF iter   6:  -303.29985413059876   -9.72055e-06   6.64635e-07 DIIS
   @DF-RHF iter   7:  -303.29985525327805   -1.12268e-06   3.42132e-07 DIIS
   @DF-RHF iter   8:  -303.29985552559390   -2.72316e-07   1.38365e-07 DIIS
   @DF-RHF iter   9:  -303.29985557849858   -5.29047e-08   3.45219e-08 DIIS
   @DF-RHF iter  10:  -303.29985558142408   -2.92550e-09   1.30122e-08 DIIS
   @DF-RHF iter  11:  -303.29985558167687   -2.52783e-10   3.20079e-09 DIIS
  Energy and wave function converged.


  ==> Post-Iterations <==

    Orbital Energies [Eh]
    ---------------------

    Doubly Occupied:                                                      

       1A    -15.834485     2A    -15.833926     3A    -11.529032  
       4A    -11.459619     5A    -11.458052     6A    -11.449376  
       7A    -11.449215     8A     -1.577196     9A     -1.432902  
      10A     -1.237812    11A     -1.188621    12A     -1.118326  
      13A     -1.021664    14A     -0.996142    15A     -0.916347  
      16A     -0.850005    17A     -0.815577    18A     -0.812315  
      19A     -0.789391    20A     -0.785866    21A     -0.781094  
      22A     -0.729220    23A     -0.725330    24A     -0.716843  
      25A     -0.595587    26A     -0.523447  

    Virtual:                                                              

      27A     -0.080466    28A     -0.071256    29A     -0.063831  
      30A     -0.063565    31A     -0.045426    32A     -0.044021  
      33A     -0.043231    34A     -0.039821    35A     -0.035335  
      36A     -0.031121    37A     -0.022882    38A     -0.022406  
      39A     -0.020272    40A     -0.016556    41A     -0.015807  
      42A     -0.014298    43A     -0.010723    44A     -0.007710  
      45A      0.001363    46A      0.001852    47A      0.002944  
      48A      0.003091    49A      0.006386    50A      0.007775  
      51A      0.009499    52A      0.011387    53A      0.013049  
      54A      0.015169    55A      0.025828    56A      0.026009  
      57A      0.026483    58A      0.027185    59A      0.032160  
      60A      0.033112    61A      0.033465    62A      0.035020  
      63A      0.037267    64A      0.038333    65A      0.039981  
      66A      0.042794    67A      0.044089    68A      0.050285  
      69A      0.052090    70A      0.054372    71A      0.054705  
      72A      0.057050    73A      0.057747    74A      0.058257  
      75A      0.060091    76A      0.062245    77A      0.064309  
      78A      0.064437    79A      0.065257    80A      0.069519  
      81A      0.069770    82A      0.073437    83A      0.075775  
      84A      0.077452    85A      0.078265    86A      0.078795  
      87A      0.080808    88A      0.081570    89A      0.082310  
      90A      0.082785    91A      0.086793    92A      0.087403  
      93A      0.092183    94A      0.092750    95A      0.096556  
      96A      0.097213    97A      0.097496    98A      0.099917  
      99A      0.100811   100A      0.105878   101A      0.107040  
     102A      0.107429   103A      0.108273   104A      0.109084  
     105A      0.109989   106A      0.111076   107A      0.111563  
     108A      0.114456   109A      0.115458   110A      0.115771  
     111A      0.118740   112A      0.120712   113A      0.123202  
     114A      0.123693   115A      0.125750   116A      0.128263  
     117A      0.129774   118A      0.130279   119A      0.130844  
     120A      0.132961   121A      0.137322   122A      0.138544  
     123A      0.139737   124A      0.141086   125A      0.143446  
     126A      0.145050   127A      0.146967   128A      0.150394  
     129A      0.150991   130A      0.151306   131A      0.151834  
     132A      0.152503   133A      0.154229   134A      0.156426  
     135A      0.157233   136A      0.158000   137A      0.160169  
     138A      0.160775   139A      0.163325   140A      0.165299  
     141A      0.166949   142A      0.168672   143A      0.168838  
     144A      0.169181   145A      0.169767   146A      0.171245  
     147A      0.172607   148A      0.173444   149A      0.176172  
     150A      0.177391   151A      0.178547   152A      0.180123  
     153A      0.183275   154A      0.184884   155A      0.189592  
     156A      0.193521   157A      0.195138   158A      0.197787  
     159A      0.198320   160A      0.198853   161A      0.199596  
     162A      0.200540   163A      0.202838   164A      0.203495  
     165A      0.204625   166A      0.207304   167A      0.208670  
     168A      0.212088   169A      0.212312   170A      0.213893  
     171A      0.216632   172A      0.218828   173A      0.219270  
     174A      0.219825   175A      0.220843   176A      0.221760  
     177A      0.223048   178A      0.225785   179A      0.227263  
     180A      0.230870   181A      0.231528   182A      0.231908  
     183A      0.232988   184A      0.233617   185A      0.236456  
     186A      0.238718   187A      0.241898   188A      0.248777  
     189A      0.249731   190A      0.251082   191A      0.253590  
     192A      0.256097   193A      0.257753   194A      0.258737  
     195A      0.259553   196A      0.261982   197A      0.262774  
     198A      0.264974   199A      0.267975   200A      0.268695  
     201A      0.269559   202A      0.272205   203A      0.274818  
     204A      0.275235   205A      0.276012   206A      0.276741  
     207A      0.279455   208A      0.280594   209A      0.280889  
     210A      0.283209   211A      0.285910   212A      0.287711  
     213A      0.288344   214A      0.289778   215A      0.291444  
     216A      0.297035   217A      0.298240   218A      0.301037  
     219A      0.302241   220A      0.304597   221A      0.305639  
     222A      0.306791   223A      0.308843   224A      0.310554  
     225A      0.312774   226A      0.315700   227A      0.317370  
     228A      0.317649   229A      0.321010   230A      0.321294  
     231A      0.323939   232A      0.326297   233A      0.330351  
     234A      0.332814   235A      0.336266   236A      0.339611  
     237A      0.342090   238A      0.344364   239A      0.345985  
     240A      0.349689   241A      0.351844   242A      0.352909  
     243A      0.353994   244A      0.355941   245A      0.359519  
     246A      0.361310   247A      0.361748   248A      0.363877  
     249A      0.364958   250A      0.367176   251A      0.370313  
     252A      0.371336   253A      0.374187   254A      0.374396  
     255A      0.375043   256A      0.376182   257A      0.378053  
     258A      0.380463   259A      0.382143   260A      0.384359  
     261A      0.385230   262A      0.386762   263A      0.387563  
     264A      0.390875   265A      0.392148   266A      0.395453  
     267A      0.397554   268A      0.398371   269A      0.400156  
     270A      0.401272   271A      0.403584   272A      0.404766  
     273A      0.406433   274A      0.409187   275A      0.413267  
     276A      0.413489   277A      0.416751   278A      0.418027  
     279A      0.419880   280A      0.422450   281A      0.425341  
     282A      0.427999   283A      0.429550   284A      0.430216  
     285A      0.430672   286A      0.435926   287A      0.437893  
     288A      0.440477   289A      0.441415   290A      0.444824  
     291A      0.446819   292A      0.448409   293A      0.449207  
     294A      0.450344   295A      0.451086   296A      0.453952  
     297A      0.456912   298A      0.459144   299A      0.462660  
     300A      0.463301   301A      0.466280   302A      0.467851  
     303A      0.468734   304A      0.470104   305A      0.476951  
     306A      0.481182   307A      0.482027   308A      0.484646  
     309A      0.490039   310A      0.492495   311A      0.492723  
     312A      0.493920   313A      0.496114   314A      0.497928  
     315A      0.498207   316A      0.500086   317A      0.502241  
     318A      0.504749   319A      0.507430   320A      0.510545  
     321A      0.513300   322A      0.515775   323A      0.518051  
     324A      0.519531   325A      0.521775   326A      0.524398  
     327A      0.525992   328A      0.534412   329A      0.535443  
     330A      0.536247   331A      0.537408   332A      0.539203  
     333A      0.543860   334A      0.545969   335A      0.547760  
     336A      0.550291   337A      0.551081   338A      0.551287  
     339A      0.557254   340A      0.559239   341A      0.560738  
     342A      0.561940   343A      0.562806   344A      0.563358  
     345A      0.565909   346A      0.570650   347A      0.576016  
     348A      0.579623   349A      0.581745   350A      0.584052  
     351A      0.584282   352A      0.586964   353A      0.590555  
     354A      0.591318   355A      0.594601   356A      0.595262  
     357A      0.596619   358A      0.598325   359A      0.600164  
     360A      0.601043   361A      0.603082   362A      0.605572  
     363A      0.609246   364A      0.611271   365A      0.616267  
     366A      0.616531   367A      0.619244   368A      0.621097  
     369A      0.624600   370A      0.626815   371A      0.629923  
     372A      0.633821   373A      0.638581   374A      0.644700  
     375A      0.645576   376A      0.648338   377A      0.653545  
     378A      0.661756   379A      0.665068   380A      0.666483  
     381A      0.668927   382A      0.671146   383A      0.672799  
     384A      0.673298   385A      0.674420   386A      0.676960  
     387A      0.677180   388A      0.678545   389A      0.680323  
     390A      0.680842   391A      0.683083   392A      0.683328  
     393A      0.688883   394A      0.693269   395A      0.695132  
     396A      0.699546   397A      0.702625   398A      0.704836  
     399A      0.705260   400A      0.705768   401A      0.709944  
     402A      0.711478   403A      0.716351   404A      0.722079  
     405A      0.722573   406A      0.725417   407A      0.732911  
     408A      0.737244   409A      0.748744   410A      0.752860  
     411A      0.762031   412A      0.762082   413A      0.765619  
     414A      0.766595   415A      0.767787   416A      0.770103  
     417A      0.780515   418A      0.786889   419A      0.789314  
     420A      0.792702   421A      0.797206   422A      0.800484  
     423A      0.804873   424A      0.808674   425A      0.809230  
     426A      0.813849   427A      0.817239   428A      0.817840  
     429A      0.823595   430A      0.826560   431A      0.829477  
     432A      0.837308   433A      0.841918   434A      0.853811  
     435A      0.857530   436A      0.871019   437A      0.872426  
     438A      0.873064   439A      0.874957   440A      0.878530  
     441A      0.879640   442A      0.886099   443A      0.888432  
     444A      0.905792   445A      0.907760   446A      0.913813  
     447A      0.917816   448A      0.918009   449A      0.921051  
     450A      0.925026   451A      0.929445   452A      0.934306  
     453A      0.943641   454A      0.945583   455A      0.952759  
     456A      0.956672   457A      0.963378   458A      0.968950  
     459A      0.974192   460A      0.974365   461A      0.977546  
     462A      0.978794   463A      0.985714   464A      0.992062  
     465A      1.008379   466A      1.011555   467A      1.013862  
     468A      1.016445   469A      1.017474   470A      1.023559  
     471A      1.029808   472A      1.038208   473A      1.056851  
     474A      1.059358   475A      1.064592   476A      1.068301  
     477A      1.069848   478A      1.084500   479A      1.091119  
     480A      1.092660   481A      1.095938   482A      1.096345  
     483A      1.099607   484A      1.105004   485A      1.108296  
     486A      1.120251   487A      1.121637   488A      1.128338  
     489A      1.131803   490A      1.139675   491A      1.143851  
     492A      1.158999   493A      1.165821   494A      1.190632  
     495A      1.192678   496A      1.197648   497A      1.202268  
     498A      1.207390   499A      1.211780   500A      1.212643  
     501A      1.214530   502A      1.222244   503A      1.228433  
     504A      1.231781   505A      1.234403   506A      1.235374  
     507A      1.236721   508A      1.245536   509A      1.255389  
     510A      1.275670   511A      1.277136   512A      1.282333  
     513A      1.291730   514A      1.347663   515A      1.355610  
     516A      1.358165   517A      1.361724   518A      1.366860  
     519A      1.370175   520A      1.370504   521A      1.387555  
     522A      1.392412   523A      1.397698   524A      1.403809  
     525A      1.414467   526A      1.419880   527A      1.431721  
     528A      1.448498   529A      1.461145   530A      1.464144  
     531A      1.476322   532A      1.477722   533A      1.482713  
     534A      1.494911   535A      1.506709   536A      1.512960  
     537A      1.518971   538A      1.529536   539A      1.539746  
     540A      1.543381   541A      1.553928   542A      1.570665  
     543A      1.571824   544A      1.579953   545A      1.585307  
     546A      1.587476   547A      1.592235   548A      1.598993  
     549A      1.602524   550A      1.609289   551A      1.613303  
     552A      1.619586   553A      1.631868   554A      1.646550  
     555A      1.649331   556A      1.655871   557A      1.659094  
     558A      1.663914   559A      1.668645   560A      1.674031  
     561A      1.678280   562A      1.682444   563A      1.685108  
     564A      1.687827   565A      1.689972   566A      1.697756  
     567A      1.702083   568A      1.705089   569A      1.708855  
     570A      1.711239   571A      1.711870   572A      1.716469  
     573A      1.722143   574A      1.722921   575A      1.729813  
     576A      1.732380   577A      1.735310   578A      1.736397  
     579A      1.738224   580A      1.740864   581A      1.743230  
     582A      1.746789   583A      1.748616   584A      1.755125  
     585A      1.759188   586A      1.761051   587A      1.763138  
     588A      1.769058   589A      1.770282   590A      1.773484  
     591A      1.776152   592A      1.778276   593A      1.783463  
     594A      1.785217   595A      1.790552   596A      1.790628  
     597A      1.791341   598A      1.795874   599A      1.797553  
     600A      1.802740   601A      1.805823   602A      1.809097  
     603A      1.812412   604A      1.816287   605A      1.818941  
[...]
     814A      1.760405   815A      1.761205   816A      1.764381  
     817A      1.777445   818A      1.778494   819A      1.786580  
     820A      1.789090   821A      1.794162   822A      1.798673  
     823A      1.807189   824A      1.816544   825A      1.818844  
     826A      1.820161   827A      1.821858   828A      1.822994  
     829A      1.826045   830A      1.829523   831A      1.836878  
     832A      1.840704   833A      1.842938   834A      1.844182  
     835A      1.844711   836A      1.856702   837A      1.858418  
     838A      1.861053   839A      1.862436   840A      1.863946  
     841A      1.865505   842A      1.876759   843A      1.878309  
     844A      1.879124   845A      1.880716   846A      1.883957  
     847A      1.886809   848A      1.897054   849A      1.897394  
     850A      1.902896   851A      1.907268   852A      1.910251  
     853A      1.910867   854A      1.913955   855A      1.915304  
     856A      1.917447   857A      1.920781   858A      1.923198  
     859A      1.924286   860A      1.927081   861A      1.930772  
     862A      1.935276   863A      1.936531   864A      1.940890  
     865A      1.945455   866A      1.948190   867A      1.949685  
     868A      1.951616   869A      1.953019   870A      1.957028  
     871A      1.957554   872A      1.960952   873A      1.962924  
     874A      1.968672   875A      1.971548   876A      1.980743  
     877A      1.993275   878A      1.994370   879A      1.997407  
     880A      1.999369   881A      2.003068   882A      2.006261  
     883A      2.008503   884A      2.008723   885A      2.011187  
     886A      2.015026   887A      2.015945   888A      2.021506  
     889A      2.026163   890A      2.031656   891A      2.034182  
     892A      2.037674   893A      2.038242   894A      2.042780  
     895A      2.045268   896A      2.046317   897A      2.049708  
     898A      2.052743   899A      2.055347   900A      2.056435  
     901A      2.063159   902A      2.063311   903A      2.064440  
     904A      2.068299   905A      2.072883   906A      2.074982  
     907A      2.079056   908A      2.080107   909A      2.086682  
     910A      2.088463   911A      2.089701   912A      2.091983  
     913A      2.094744   914A      2.098676   915A      2.100015  
     916A      2.100930   917A      2.102906   918A      2.103591  
     919A      2.106048   920A      2.109130   921A      2.111197  
     922A      2.111969   923A      2.114642   924A      2.117211  
     925A      2.117740   926A      2.120644   927A      2.123712  
     928A      2.124804   929A      2.125254   930A      2.128784  
     931A      2.130085   932A      2.133302   933A      2.134626  
     934A      2.136185   935A      2.137798   936A      2.140666  
     937A      2.141727   938A      2.144039   939A      2.145547  
     940A      2.154862   941A      2.156080   942A      2.159863  
     943A      2.162878   944A      2.166804   945A      2.167625  
     946A      2.176158   947A      2.177818   948A      2.183607  
     949A      2.184417   950A      2.186687   951A      2.191744  
     952A      2.193791   953A      2.196545   954A      2.197338  
     955A      2.200766   956A      2.203050   957A      2.207888  
     958A      2.209846   959A      2.214246   960A      2.219242  
     961A      2.222543   962A      2.229658   963A      2.235336  
     964A      2.239076   965A      2.241268   966A      2.244202  
     967A      2.245948   968A      2.247595   969A      2.249392  
     970A      2.250658   971A      2.251908   972A      2.257723  
     973A      2.261596   974A      2.265423   975A      2.268103  
     976A      2.270018   977A      2.272794   978A      2.275422  
     979A      2.277202   980A      2.280327   981A      2.281229  
     982A      2.293127   983A      2.302965   984A      2.308321  
     985A      2.311745   986A      2.315746   987A      2.320370  
     988A      2.322731   989A      2.333099   990A      2.334159  
     991A      2.338707   992A      2.344765   993A      2.348158  
     994A      2.350667   995A      2.354181   996A      2.355087  
     997A      2.357724   998A      2.361235   999A      2.369152  
    1000A      2.373703  1001A      2.380973  1002A      2.384639  
    1003A      2.390054  1004A      2.391367  1005A      2.404819  
    1006A      2.407301  1007A      2.411992  1008A      2.419276  
    1009A      2.421828  1010A      2.424726  1011A      2.425698  
    1012A      2.426933  1013A      2.434333  1014A      2.436888  
    1015A      2.439311  1016A      2.446027  1017A      2.449224  
    1018A      2.460042  1019A      2.467121  1020A      2.473973  
    1021A      2.481567  1022A      2.486653  1023A      2.493033  
    1024A      2.496529  1025A      2.500744  1026A      2.504929  
    1027A      2.515497  1028A      2.522310  1029A      2.529865  
    1030A      2.534289  1031A      2.543163  1032A      2.543944  
    1033A      2.549360  1034A      2.553290  1035A      2.554807  
    1036A      2.556083  1037A      2.557434  1038A      2.560186  
    1039A      2.561534  1040A      2.563914  1041A      2.564342  
    1042A      2.573778  1043A      2.574804  1044A      2.579266  
    1045A      2.580310  1046A      2.589797  1047A      2.591491  
    1048A      2.595756  1049A      2.600253  1050A      2.601945  
    1051A      2.607014  1052A      2.612636  1053A      2.622544  
    1054A      2.624745  1055A      2.627903  1056A      2.634606  
    1057A      2.644153  1058A      2.645934  1059A      2.649186  
    1060A      2.650168  1061A      2.660833  1062A      2.664089  
    1063A      2.668359  1064A      2.673716  1065A      2.678662  
    1066A      2.681737  1067A      2.687837  1068A      2.691358  
    1069A      2.700140  1070A      2.703334  1071A      2.713963  
    1072A      2.715117  1073A      2.717466  1074A      2.718932  
    1075A      2.720961  1076A      2.723412  1077A      2.735989  
    1078A      2.742216  1079A      2.747557  1080A      2.751456  
    1081A      2.760146  1082A      2.763436  1083A      2.769843  
    1084A      2.782670  1085A      2.786690  1086A      2.797275  
    1087A      2.804715  1088A      2.809754  1089A      2.823796  
    1090A      2.829913  1091A      2.836564  1092A      2.838168  
    1093A      2.846122  1094A      2.850350  1095A      2.856702  
    1096A      2.859343  1097A      2.868240  1098A      2.880109  
    1099A      2.891079  1100A      2.895783  1101A      2.905488  
    1102A      2.913983  1103A      2.918430  1104A      2.924194  
    1105A      2.929056  1106A      2.938180  1107A      2.944864  
    1108A      2.954961  1109A      2.959415  1110A      2.965759  
    1111A      2.969575  1112A      2.988100  1113A      2.995255  
    1114A      3.001195  1115A      3.018166  1116A      3.020287  
    1117A      3.035026  1118A      3.041211  1119A      3.051093  
    1120A      3.059606  1121A      3.065434  1122A      3.071353  
    1123A      3.079784  1124A      3.088589  1125A      3.094579  
    1126A      3.116977  1127A      3.122649  1128A      3.127658  
    1129A      3.130111  1130A      3.140401  1131A      3.144868  
    1132A      3.145735  1133A      3.147636  1134A      3.152244  
    1135A      3.154084  1136A      3.158410  1137A      3.159999  
    1138A      3.165012  1139A      3.180677  1140A      3.182934  
    1141A      3.191004  1142A      3.196568  1143A      3.198359  
    1144A      3.208757  1145A      3.214135  1146A      3.229152  
    1147A      3.247908  1148A      3.257665  1149A      3.284017  
    1150A      3.294278  1151A      3.303647  1152A      3.314323  
    1153A      3.329392  1154A      3.331567  1155A      3.350955  
    1156A      3.374838  1157A      3.386135  1158A      3.426606  
    1159A      3.430697  1160A      3.435210  1161A      3.470800  
    1162A      3.496576  1163A      3.512565  1164A      3.521329  
    1165A      3.569204  1166A      3.583307  1167A      3.631999  
    1168A      3.638943  1169A      3.640151  1170A      3.659858  
    1171A      3.661352  1172A      3.674034  1173A      3.690931  
    1174A      3.700486  1175A      3.711029  1176A      3.754596  
    1177A      3.768126  1178A      3.825198  1179A      3.831259  
    1180A      3.852453  1181A      3.873207  1182A      3.874330  
    1183A      3.900804  1184A      3.916543  1185A      3.918266  
    1186A      3.920468  1187A      3.996563  1188A      4.012963  
    1189A      4.026377  1190A      4.138463  1191A      4.153563  
    1192A      4.219523  1193A      4.334596  1194A      4.339778  
    1195A      4.607040  1196A      4.651615  1197A      4.746936  
    1198A      4.888735  1199A      4.899742  1200A      4.937154  
    1201A      4.999303  1202A      5.013306  1203A      5.105664  
    1204A      5.126620  1205A      5.142228  1206A      5.188778  
    1207A      5.220278  1208A      5.434119  1209A      5.455243  
    1210A      5.797985  1211A      5.804125  1212A      6.090428  
    1213A     18.229800  1214A     18.491913  1215A     18.510023  
    1216A     18.621846  1217A     18.937644  1218A     25.379891  
    1219A     25.418015  

    Final Occupation by Irrep:
              A 
    DOCC [   171 ]
    NA   [   171 ]
    NB   [   171 ]

  @DF-RHF Final Energy: -2055.89697898520353

   => Energetics <=

    Nuclear Repulsion Energy =           6452.5568002797781446
    One-Electron Energy =              -15636.5565072331301053
    Two-Electron Energy =                7128.1027279681493383
    Total Energy =                      -2055.8969789852035319

Computation Completed


Properties will be evaluated at   0.000000,   0.000000,   0.000000 [a0]

Properties computed using the SCF density matrix


 Multipole Moments:

 ------------------------------------------------------------------------------------
     Multipole            Electronic (a.u.)      Nuclear  (a.u.)        Total (a.u.)
 ------------------------------------------------------------------------------------

 L = 1.  Multiply by 2.5417464519 to convert [e a0] to [Debye]
 Dipole X            :         -0.0004722           -0.0000085           -0.0004807
 Dipole Y            :          0.0006970           -0.0028843           -0.0021872
 Dipole Z            :        238.3938817         -238.3906375            0.0032442
 Magnitude           :                                                    0.0039421

 ------------------------------------------------------------------------------------

*** tstop() called on n2cn0255 at Sat Feb 10 12:20:23 2024
Module time:
	user time   =    3921.32 seconds =      65.36 minutes
	system time =     140.53 seconds =       2.34 minutes
	total time  =        286 seconds =       4.77 minutes
Total time:
	user time   =   12704.84 seconds =     211.75 minutes
	system time =     401.98 seconds =       6.70 minutes
	total time  =        986 seconds =      16.43 minutes
  Constructing Basis Sets for SAPT...

   => Loading Basis Set <=

    Name: (JUN-CC-PVDZ AUX)
    Role: RIFIT
    Keyword: DF_BASIS_SAPT
    atoms 1-2, 4-5, 10, 17-70 entry C          line   100 file /opt/software/pc2/EB-SW/software/PSI4/1.9-foss-2022a/share/psi4/basis/jun-cc-pvdz-ri.gbs 
    atoms 3, 6                entry N          line   144 file /opt/software/pc2/EB-SW/software/PSI4/1.9-foss-2022a/share/psi4/basis/jun-cc-pvdz-ri.gbs 
    atoms 7-9, 11-16, 71-88   entry H          line    30 file /opt/software/pc2/EB-SW/software/PSI4/1.9-foss-2022a/share/psi4/basis/jun-cc-pvdz-ri.gbs 

   => Loading Basis Set <=

    Name: (JUN-CC-PVDZ AUX)
    Role: JKFIT
    Keyword: DF_BASIS_ELST
    atoms 1-2, 4-5, 10, 17-70 entry C          line   146 file /opt/software/pc2/EB-SW/software/PSI4/1.9-foss-2022a/share/psi4/basis/jun-cc-pvdz-jkfit.gbs 
    atoms 3, 6                entry N          line   202 file /opt/software/pc2/EB-SW/software/PSI4/1.9-foss-2022a/share/psi4/basis/jun-cc-pvdz-jkfit.gbs 
    atoms 7-9, 11-16, 71-88   entry H          line    70 file /opt/software/pc2/EB-SW/software/PSI4/1.9-foss-2022a/share/psi4/basis/jun-cc-pvdz-jkfit.gbs 


  //>>>>>>>>>>>>>>>>>>>>>>>>>>>>>>>>>>>//
  //               SSAPT0              //
  //<<<<<<<<<<<<<<<<<<<<<<<<<<<<<<<<<<<//


*** tstart() called on n2cn0255
*** at Sat Feb 10 12:20:24 2024

        SAPT0  
    Ed Hohenstein
     6 June 2009

      Orbital Information
  --------------------------
    NSO        =      1233
    NMO        =      1219
    NRI        =      4343
    NRI (Elst) =      5440
    NOCC A     =        26
    NOCC B     =       171
    FOCC A     =         7
    FOCC B     =        54
    NVIR A     =      1193
    NVIR B     =      1048

    Elst10,r            =    -0.055709526992 [Eh]
    Exch10              =     0.124179551088 [Eh]
    Exch10 (S^2)        =     0.122471770368 [Eh]

    Iter     Energy [mEh]          dE [mEh]         Residual      Time [s]
       1     -16.43344388      16.433443883      20.383283959            17
       2     -20.80970316       4.376259281       5.177036646            33
       3     -21.01324442       0.203541260       1.431531973            47
       4     -20.96063880      -0.052605620       0.566942881            61
       5     -20.94541587      -0.015222930       0.109843404            75
       6     -20.94786811       0.002452236       0.051371443            89
       7     -20.94905219       0.001184083       0.016608912           103
       8     -20.94860952      -0.000442677       0.005637188           117
       9     -20.94861910       0.000009588       0.002278356           131
      10     -20.94865347       0.000034365       0.000640977           145
      11     -20.94865056      -0.000002906       0.000178174           159
      12     -20.94864881      -0.000001758       0.000062928           175
      13     -20.94864895       0.000000148       0.000016845           188
      14     -20.94864913       0.000000180       0.000006835           200
      15     -20.94864911      -0.000000020       0.000002712           213
      16     -20.94864908      -0.000000030       0.000000969           227

    CHF Iterations converged


    Iter     Energy [mEh]          dE [mEh]         Residual      Time [s]
       1     -45.70253261      45.702532609      84.612411686            21
       2     -40.07643970      -5.626092907      16.893040372            38
       3     -43.12613355       3.049693851       8.205993517            55
       4     -44.38048278       1.254349231       1.366988752            71
       5     -44.34745728      -0.033025499       0.607492677            87
       6     -44.30663096      -0.040826329       0.251194079           103
       7     -44.30543108      -0.001199879       0.144332926           118
       8     -44.31403099       0.008599914       0.065662895           132
       9     -44.31434990       0.000318905       0.032446676           147
      10     -44.31298020      -0.001369695       0.016751764           162
      11     -44.31280412      -0.000176081       0.009219027           176
      12     -44.31308521       0.000281092       0.004414704           191
      13     -44.31312837       0.000043156       0.002106842           206
      14     -44.31309458      -0.000033792       0.001084998           221
      15     -44.31306966      -0.000024916       0.000505776           234
      16     -44.31307619       0.000006528       0.000228590           248
      17     -44.31308143       0.000005244       0.000087988           263
      18     -44.31308035      -0.000001086       0.000046561           278
      19     -44.31307943      -0.000000918       0.000023211           292
      20     -44.31307952       0.000000087       0.000009871           306
      21     -44.31307975       0.000000231       0.000004226           320
      22     -44.31307974      -0.000000006       0.000001955           332
      23     -44.31307970      -0.000000040       0.000000920           348

    CHF Iterations converged

    Ind20,r (A<-B)      =    -0.020948649084 [Eh]
    Ind20,r (B<-A)      =    -0.044313079700 [Eh]
    Ind20,r             =    -0.065261728783 [Eh]
    Exch-Ind20,r (A<-B) =     0.019912661520 [Eh]
    Exch-Ind20,r (B<-A) =     0.026352410095 [Eh]
    Exch-Ind20,r        =     0.046265071616 [Eh]
    Disp20              =    -0.082208916299 [Eh]
    Disp20 (SS)         =    -0.041104458150 [Eh]
    Disp20 (OS)         =    -0.041104458150 [Eh]
    Exch-Disp20         =     0.011309236919 [Eh]
    Exch-Disp20 (SS)    =     0.006758513409 [Eh]
    Exch-Disp20 (OS)    =     0.004550723509 [Eh]

    SAPT Results 
  --------------------------------------------------------------------------------------------------------
    Electrostatics                -55.70952699 [mEh]     -34.95825597 [kcal/mol]    -146.26534297 [kJ/mol]
      Elst10,r                    -55.70952699 [mEh]     -34.95825597 [kcal/mol]    -146.26534297 [kJ/mol]

    Exchange                      124.17955109 [mEh]      77.92384476 [kcal/mol]     326.03336646 [kJ/mol]
      Exch10                      124.17955109 [mEh]      77.92384476 [kcal/mol]     326.03336646 [kJ/mol]
      Exch10(S^2)                 122.47177037 [mEh]      76.85219618 [kcal/mol]     321.54958880 [kJ/mol]

    Induction                     -27.44437959 [mEh]     -17.22160820 [kcal/mol]     -72.05520869 [kJ/mol]
      Ind20,r                     -65.26172878 [mEh]     -40.95235309 [kcal/mol]    -171.34464531 [kJ/mol]
      Exch-Ind20,r                 46.26507162 [mEh]      29.03177074 [kcal/mol]     121.46892879 [kJ/mol]
      delta HF,r (2)               -8.44772242 [mEh]      -5.30102585 [kcal/mol]     -22.17949217 [kJ/mol]

    Dispersion                    -70.89967938 [mEh]     -44.49022050 [kcal/mol]    -186.14708257 [kJ/mol]
      Disp20                      -82.20891630 [mEh]     -51.58687381 [kcal/mol]    -215.83948001 [kJ/mol]
      Exch-Disp20                  11.30923692 [mEh]       7.09665331 [kcal/mol]      29.69239744 [kJ/mol]
      Disp20 (SS)                 -41.10445815 [mEh]     -25.79343690 [kcal/mol]    -107.91974000 [kJ/mol]
      Disp20 (OS)                 -41.10445815 [mEh]     -25.79343690 [kcal/mol]    -107.91974000 [kJ/mol]
      Exch-Disp20 (SS)              6.75851341 [mEh]       4.24103119 [kcal/mol]      17.74447451 [kJ/mol]
      Exch-Disp20 (OS)              4.55072351 [mEh]       2.85562211 [kcal/mol]      11.94792293 [kJ/mol]

  Total HF                         41.02564450 [mEh]      25.74398059 [kcal/mol]     107.71281481 [kJ/mol]
  Total SAPT0                     -29.87403488 [mEh]     -18.74623991 [kcal/mol]     -78.43426776 [kJ/mol]

  Special recipe for scaled SAPT0 (see Manual):
    Electrostatics sSAPT0         -55.70952699 [mEh]     -34.95825597 [kcal/mol]    -146.26534297 [kJ/mol]
    Exchange sSAPT0               124.17955109 [mEh]      77.92384476 [kcal/mol]     326.03336646 [kJ/mol]
    Induction sSAPT0              -25.48186699 [mEh]     -15.99011295 [kcal/mol]     -66.90263256 [kJ/mol]
    Dispersion sSAPT0             -70.41995420 [mEh]     -44.18918840 [kcal/mol]    -184.88756427 [kJ/mol]
  Total sSAPT0                    -27.43179709 [mEh]     -17.21371256 [kcal/mol]     -72.02217334 [kJ/mol]
  --------------------------------------------------------------------------------------------------------

*** tstop() called on n2cn0255 at Sat Feb 10 12:49:44 2024
Module time:
	user time   =   12988.93 seconds =     216.48 minutes
	system time =     677.17 seconds =      11.29 minutes
	total time  =       1760 seconds =      29.33 minutes
Total time:
	user time   =   25694.62 seconds =     428.24 minutes
	system time =    1079.15 seconds =      17.99 minutes
	total time  =       2747 seconds =      45.78 minutes

    Psi4 stopped on: Saturday, 10 February 2024 12:49PM
    Psi4 wall time for execution: 0:45:47.69

*** Psi4 exiting successfully. Buy a developer a beer!
