
    -----------------------------------------------------------------------
          Psi4: An Open-Source Ab Initio Electronic Structure Package
                               Psi4 1.9 release

                         Git: Rev {} zzzzzzz 


    D. G. A. Smith, L. A. Burns, A. C. Simmonett, R. M. Parrish,
    M. C. Schieber, R. Galvelis, P. Kraus, H. Kruse, R. Di Remigio,
    A. Alenaizan, A. M. James, S. Lehtola, J. P. Misiewicz, M. Scheurer,
    R. A. Shaw, J. B. Schriber, Y. Xie, Z. L. Glick, D. A. Sirianni,
    J. S. O'Brien, J. M. Waldrop, A. Kumar, E. G. Hohenstein,
    B. P. Pritchard, B. R. Brooks, H. F. Schaefer III, A. Yu. Sokolov,
    K. Patkowski, A. E. DePrince III, U. Bozkaya, R. A. King,
    F. A. Evangelista, J. M. Turney, T. D. Crawford, C. D. Sherrill,
    J. Chem. Phys. 152(18) 184108 (2020). https://doi.org/10.1063/5.0006002

                            Additional Code Authors
    E. T. Seidl, C. L. Janssen, E. F. Valeev, M. L. Leininger,
    J. F. Gonthier, R. M. Richard, H. R. McAlexander, M. Saitow, X. Wang,
    P. Verma, M. H. Lechner, A. Jiang, S. Behnle, A. G. Heide,
    M. F. Herbst, and D. L. Poole

             Previous Authors, Complete List of Code Contributors,
                       and Citations for Specific Modules
    https://github.com/psi4/psi4/blob/master/codemeta.json
    https://github.com/psi4/psi4/graphs/contributors
    http://psicode.org/psi4manual/master/introduction.html#citing-psifour

    -----------------------------------------------------------------------


    Psi4 started on: Monday, 22 January 2024 10:16PM

    Process ID: 2854468
    Host:       d-18-8-4
    PSIDATADIR: /home/gridsan/tfroembgen/.conda/envs/psi4test/share/psi4
    Memory:     500.0 MiB
    Threads:    12
    
  ==> Input File <==

--------------------------------------------------------------------------
memory 32 GB # how much memory is available ! Depends on the nodes/cores !

molecule dimer {
# monomer A
+1 1    # Charge and multiplicity
C  0.680067 1.417258 -8.415929
C -0.680504 1.419286 -8.415545
N -1.085635 1.420284 -7.097221
C  0.000108 1.423560 -6.315820
C -2.477365 1.469690 -6.629242
N  1.085222 1.420284 -7.097221
H  1.385146 1.409430 -9.233368
H -1.385302 1.419096 -9.233214
H -0.000009 1.425307 -5.234731
C  2.478117 1.403392 -6.632123
H  2.490592 1.430737 -5.541870
H  2.967028 0.489946 -6.979299
H  3.001428 2.278875 -7.023595
H -2.857359 2.491761 -6.709201
H -3.082679 0.799606 -7.242306
H -2.518128 1.142706 -5.589294
--
# monomer B
0 1     # Charge and multiplicity
C   1.22531237526482      0.70753866091955      0.00613762728373
C   1.22532433589282     -0.70753852257020     -0.00619318228664
C   -0.00000567409046      1.41496628609039     -0.00672680580738
C   2.45644923379077      1.41832825917820      0.00902448468363
C   0.00001130712078     -1.41497612663474      0.00347275151708
C   -1.22530046906674      0.70754574598412      0.00838914760619
C   2.45643823516184     -1.41832293188077     -0.00843833914343
C   -0.00000085313587      2.83680140328112     -0.00913035594137
C   3.68182717731192      0.70931832800114     -0.00808954934571
C   2.45512052870677      2.83422403348893     -0.00819210630633
C   3.68182158506039     -0.70933346742900      0.00798293467272
C   -1.22531311884624     -0.70752714354401     -0.00512042085974
C   1.22670006104402      3.54346985599427      0.00816696660346
C   0.00000526469929     -2.83678176723568      0.00832091913869
C   -2.45643555300670      1.41831729028492      0.00842454345199
C   2.45512389762097     -2.83422965658853      0.00783102630520
C   -1.22671388474763      3.54346943575023      0.00827029982280
C   4.91451777504333      1.42717324448953     -0.00160886631602
C   3.69315067131765      3.54279566454522     -0.00155906667985
C   -2.45643712022637     -1.41831290883911     -0.00846337726810
C   1.22670532178455     -3.54347386990643     -0.00780316414624
C   -2.45512491866593      2.83421703463423     -0.00818572995999
C   4.91452486062398     -1.42718653794377      0.00136387641845
C   1.22142509354026      4.97013443726031      0.00150231067809
C   4.89300870916237      2.82518837202648     -0.00039219795739
C   -1.22669652864725     -3.54347062507680     -0.00753595973677
C   -3.68181849668397      0.70932533873199     -0.00807686886569
C   3.69314758099218     -3.54280096939050      0.00148176697923
C   -1.22143177215231      4.97012866986289      0.00168580605083
C   6.13477145276790      0.68054831910577     -0.00083909176631
C   3.65678936045204      4.97295361556775     -0.00065042889723
C   -2.45512642789169     -2.83421472106065      0.00758666850712
C   -3.68181869921921     -0.70932533146830      0.00810055625144
C   4.89301309775526     -2.82519973363176      0.00021895393805
C   -0.00000059327114      5.65044773803267      0.00045449734393
C   6.13477559217374     -0.68055448207492      0.00042622874941
C   2.47813196269732      5.65357712333155      0.00063835075260
C   1.22142288457925     -4.97012668293268     -0.00129718634452
C   -3.69316190412301      3.54279732619245     -0.00139355922051
C   -1.22142804110313     -4.97011793159564     -0.00140994817719
C   -4.91452132810043      1.42717581899491     -0.00153192130862
C   3.65678749952045     -4.97295485423912      0.00080007163680
C   -2.47813805026426      5.65357479452875      0.00092287576113
C   -3.69314125872231     -3.54278984697859      0.00136564082345
C   -4.91451200321153     -1.42718062802730      0.00139857359209
C   -0.00000552908399     -5.65043791501335      0.00005899322272
C   -4.89302000425900      2.82518897091939     -0.00040227981744
C   2.47812647313991     -5.65357317188818     -0.00029052915548
C   -3.65679823041642      4.97295655404175     -0.00047374852278
C   -4.89299899901461     -2.82519139505969      0.00006491824035
C   -2.47812801824129     -5.65356579800621     -0.00056571680280
C   -6.13477002348955      0.68054913825639     -0.00086464346868
C   -3.65678835334731     -4.97294365097028      0.00058578382008
C   -6.13476456307132     -0.68055354348201      0.00040575295444
H   5.83528897565761      3.36927626695423      0.00396712770529
H   7.07385965258860      1.22821762089947     -0.00037744837300
H   4.60066374401555      5.51238117445323     -0.00014522814529
H   5.83528386714679     -3.36930568472863     -0.00423551337640
H   -0.00001167146422      6.73853104613662     -0.00389474766392
H   7.07386165167227     -1.22822657074368     -0.00008250934481
H   2.47331421164041      6.74068466339473      0.00017162982210
H   4.60066897122302     -5.51237575717576      0.00039007446835
H   -2.47331820069565      6.74068209160650      0.00047297644710
H   -0.00000978838621     -6.73852780445195      0.00458867820736
H   -5.83530143450167      3.36927132229595      0.00410314985360
H   2.47330840367253     -6.74068500242887      0.00027980126949
H   -4.60067436136587      5.51237839860371      0.00002010017831
H   -5.83527902699321     -3.36928859177951     -0.00451481925734
H   -2.47329986759855     -6.74067870613986     -0.00016951527498
H   -7.07385728692578      1.22822084484047     -0.00046143985387
H   -4.60067330624313     -5.51236229778631      0.00021776644566
H   -7.07385645456741     -1.22822025997701     -0.00017736581114

    units angstrom      # Angstroms are the default
    no_reorient         # Geometry fixed, default
    symmetry c1         # C1 symmetry, default
}

set {
    scf_type DF         # Density fitting, faster than exact integrals
    freeze_core True    # Freeze core electrons
    basis jun-cc-pVDZ   # Jun-cc-pVDZ basis set, recommended for sSAPT0 in https://doi.org/10.1063/1.4867135
}

energy('ssapt0')        # Compute sSAPT0 energy, includes also SAPT0
--------------------------------------------------------------------------

  Memory set to  29.802 GiB by Python driver.

Scratch directory: /state/partition1/slurm_tmp/24798309.4294967291.0/
   => Loading Basis Set <=

    Name: JUN-CC-PVDZ
    Role: ORBITAL
    Keyword: BASIS
    atoms 1-2, 4-5, 10, 17-70 entry C          line   164 file /home/gridsan/tfroembgen/.conda/envs/psi4test/share/psi4/basis/jun-cc-pvdz.gbs 
    atoms 3, 6                entry N          line   198 file /home/gridsan/tfroembgen/.conda/envs/psi4test/share/psi4/basis/jun-cc-pvdz.gbs 
    atoms 7-9, 11-16, 71-88   entry H          line    36 file /home/gridsan/tfroembgen/.conda/envs/psi4test/share/psi4/basis/jun-cc-pvdz.gbs 

   => Loading Basis Set <=

    Name: JUN-CC-PVDZ
    Role: ORBITAL
    Keyword: BASIS
    atoms 1-2, 4-5, 10, 17-70 entry C          line   164 file /home/gridsan/tfroembgen/.conda/envs/psi4test/share/psi4/basis/jun-cc-pvdz.gbs 
    atoms 3, 6                entry N          line   198 file /home/gridsan/tfroembgen/.conda/envs/psi4test/share/psi4/basis/jun-cc-pvdz.gbs 
    atoms 7-9, 11-16, 71-88   entry H          line    36 file /home/gridsan/tfroembgen/.conda/envs/psi4test/share/psi4/basis/jun-cc-pvdz.gbs 


  //>>>>>>>>>>>>>>>>>>>>>>>>>>>>>>>>>>>//
  //              Dimer HF             //
  //<<<<<<<<<<<<<<<<<<<<<<<<<<<<<<<<<<<//

   => Libint2 <=

    Primary   basis highest AM E, G, H:  7, 7, 4
    Auxiliary basis highest AM E, G, H:  7, 7, 5
    Onebody   basis highest AM E, G, H:  7, 7, 5
    Solid Harmonics ordering:            gaussian

*** tstart() called on d-18-8-4
*** at Mon Jan 22 22:16:50 2024

   => Loading Basis Set <=

    Name: JUN-CC-PVDZ
    Role: ORBITAL
    Keyword: BASIS
    atoms 1-2, 4-5, 10, 17-70 entry C          line   164 file /home/gridsan/tfroembgen/.conda/envs/psi4test/share/psi4/basis/jun-cc-pvdz.gbs 
    atoms 3, 6                entry N          line   198 file /home/gridsan/tfroembgen/.conda/envs/psi4test/share/psi4/basis/jun-cc-pvdz.gbs 
    atoms 7-9, 11-16, 71-88   entry H          line    36 file /home/gridsan/tfroembgen/.conda/envs/psi4test/share/psi4/basis/jun-cc-pvdz.gbs 


         ---------------------------------------------------------
                                   SCF
               by Justin Turney, Rob Parrish, Andy Simmonett
                          and Daniel G. A. Smith
                              RHF Reference
                       12 Threads,  30517 MiB Core
         ---------------------------------------------------------

  ==> Geometry <==

    Molecular point group: c1
    Full point group: C1

    Geometry (in Angstrom), charge = 1, multiplicity = 1:

       Center              X                  Y                   Z               Mass       
    ------------   -----------------  -----------------  -----------------  -----------------
         C            0.680066520158     1.235968212970    -7.500135447667    12.000000000000
         C           -0.680504479842     1.237996212970    -7.499751447667    12.000000000000
         N           -1.085635479842     1.238994212970    -6.181427447667    14.003074004430
         C            0.000107520158     1.242270212970    -5.400026447667    12.000000000000
         C           -2.477365479842     1.288400212970    -5.713448447667    12.000000000000
         N            1.085221520158     1.238994212970    -6.181427447667    14.003074004430
         H            1.385145520158     1.228140212970    -8.317574447667     1.007825032230
         H           -1.385302479842     1.237806212970    -8.317420447667     1.007825032230
         H           -0.000009479842     1.244017212970    -4.318937447667     1.007825032230
         C            2.478116520158     1.222102212970    -5.716329447667    12.000000000000
         H            2.490591520158     1.249447212970    -4.626076447667     1.007825032230
         H            2.967027520158     0.308656212970    -6.063505447667     1.007825032230
         H            3.001427520158     2.097585212970    -6.107801447667     1.007825032230
         H           -2.857359479842     2.310471212970    -5.793407447667     1.007825032230
         H           -3.082679479842     0.618316212970    -6.326512447667     1.007825032230
         H           -2.518128479842     0.961416212970    -4.673500447667     1.007825032230
         C            1.225311895423     0.526248873889     0.921931179617    12.000000000000
         C            1.225323856051    -0.888828309601     0.909600370047    12.000000000000
         C           -0.000006153932     1.233676499060     0.909066746526    12.000000000000
         C            2.456448753949     1.237038472148     0.924818037017    12.000000000000
         C            0.000010827279    -1.596265913665     0.919266303850    12.000000000000
         C           -1.225300948908     0.526255958954     0.924182699939    12.000000000000
         C            2.456437755320    -1.599612718911     0.907355213190    12.000000000000
         C           -0.000001332978     2.655511616251     0.906663196392    12.000000000000
         C            3.681826697470     0.528028540971     0.907704002987    12.000000000000
         C            2.455120048865     2.652934246459     0.907601446027    12.000000000000
         C            3.681821105219    -0.890623254459     0.923776487006    12.000000000000
         C           -1.225313598688    -0.888816930574     0.910673131473    12.000000000000
         C            1.226699581202     3.362180068964     0.923960518937    12.000000000000
         C            0.000004784858    -3.018071554266     0.924114471472    12.000000000000
         C           -2.456436032848     1.237027503255     0.924218095785    12.000000000000
         C            2.455123417779    -3.015519443619     0.923624578638    12.000000000000
         C           -1.226714364589     3.362179648720     0.924063852156    12.000000000000
         C            4.914517295202     1.245883457459     0.914184686017    12.000000000000
         C            3.693150191476     3.361505877515     0.914234485653    12.000000000000
         C           -2.456437600068    -1.599602695869     0.907330175065    12.000000000000
         C            1.226704841943    -3.724763656937     0.907990388187    12.000000000000
         C           -2.455125398508     2.652927247604     0.907607822373    12.000000000000
         C            4.914524380782    -1.608476324974     0.917157428752    12.000000000000
         C            1.221424613699     4.788844650230     0.917295863011    12.000000000000
         C            4.893008229321     2.643898584996     0.915401354376    12.000000000000
         C           -1.226697008489    -3.724760412107     0.908257592596    12.000000000000
         C           -3.681818976526     0.528035551702     0.907716683468    12.000000000000
         C            3.693147101150    -3.724090756421     0.917275319312    12.000000000000
         C           -1.221432251994     4.788838882833     0.917479358384    12.000000000000
         C            6.134770972926     0.499258532075     0.914954460567    12.000000000000
         C            3.656788880610     4.791663828537     0.915143123436    12.000000000000
         C           -2.455126907733    -3.015504508091     0.923380220840    12.000000000000
         C           -3.681819179061    -0.890615118499     0.923894108585    12.000000000000
         C            4.893012617914    -3.006489520662     0.916012506271    12.000000000000
         C           -0.000001073113     5.469157951002     0.916248049677    12.000000000000
         C            6.134775112332    -0.861844269105     0.916219781083    12.000000000000
         C            2.478131482856     5.472287336301     0.916431903086    12.000000000000
         C            1.221422404738    -5.151416469963     0.914496365989    12.000000000000
         C           -3.693162383965     3.361507539162     0.914399993113    12.000000000000
         C           -1.221428520945    -5.151407718626     0.914383604156    12.000000000000
         C           -4.914521807942     1.245886031965     0.914261631025    12.000000000000
         C            3.656787019679    -5.154244641269     0.916593623970    12.000000000000
         C           -2.478138530106     5.472285007498     0.916716428094    12.000000000000
         C           -3.693141738564    -3.724079634009     0.917159193157    12.000000000000
         C           -4.914512483053    -1.608470415058     0.917192125925    12.000000000000
         C           -0.000006008926    -5.831727702044     0.915852545556    12.000000000000
         C           -4.893020484101     2.643899183889     0.915391272516    12.000000000000
         C            2.478125993298    -5.834862958919     0.915503023178    12.000000000000
         C           -3.656798710258     4.791666767011     0.915319803810    12.000000000000
         C           -4.892999478856    -3.006481182090     0.915858470574    12.000000000000
         C           -2.478128498083    -5.834855585037     0.915227835530    12.000000000000
         C           -6.134770503331     0.499259351226     0.914928908865    12.000000000000
         C           -3.656788833189    -5.154233438001     0.916379336153    12.000000000000
         C           -6.134765042913    -0.861843330512     0.916199305288    12.000000000000
         H            5.835288495816     3.187986479924     0.919760680038     1.007825032230
         H            7.073859172747     1.046927833869     0.915416103960     1.007825032230
         H            4.600663264174     5.331091387423     0.915648324188     1.007825032230
         H            5.835283387305    -3.550595471759     0.911558038957     1.007825032230
         H           -0.000012151306     6.557241259106     0.911898804669     1.007825032230
         H            7.073861171831    -1.409516357774     0.915711042988     1.007825032230
         H            2.473313731799     6.559394876364     0.915965182155     1.007825032230
         H            4.600668491381    -5.693665544206     0.916183626802     1.007825032230
         H           -2.473318680537     6.559392304576     0.916266528780     1.007825032230
         H           -0.000010268228    -6.919817591482     0.920382230541     1.007825032230
         H           -5.835301914343     3.187981535266     0.919896702187     1.007825032230
         H            2.473307923831    -6.921974789459     0.916073353603     1.007825032230
         H           -4.600674841208     5.331088611573     0.915813652512     1.007825032230
         H           -5.835279506835    -3.550578378810     0.911278733076     1.007825032230
         H           -2.473300347440    -6.921968493170     0.915624037058     1.007825032230
         H           -7.073857766768     1.046931057810     0.915332112479     1.007825032230
         H           -4.600673786085    -5.693652084817     0.916011318779     1.007825032230
         H           -7.073856934409    -1.409510047007     0.915616186522     1.007825032230

  Running in c1 symmetry.

  Rotational constants: A =      0.00139  B =      0.00138  C =      0.00106 [cm^-1]
  Rotational constants: A =     41.78873  B =     41.28682  C =     31.91312 [MHz]
  Nuclear repulsion = 7863.474701416536845

  Charge       = 1
  Multiplicity = 1
  Electrons    = 394
  Nalpha       = 197
  Nbeta        = 197

  ==> Algorithm <==

  SCF Algorithm Type is DF.
  DIIS enabled.
  MOM disabled.
  Fractional occupation disabled.
  Guess Type is SAD.
  Energy threshold   = 1.00e-08
  Density threshold  = 1.00e-08
  Integral threshold = 1.00e-12

  ==> Primary Basis <==

  Basis Set: JUN-CC-PVDZ
    Blend: JUN-CC-PVDZ
    Number of shells: 569
    Number of basis functions: 1233
    Number of Cartesian functions: 1294
    Spherical Harmonics?: true
    Max angular momentum: 2

   => Loading Basis Set <=

    Name: (JUN-CC-PVDZ AUX)
    Role: JKFIT
    Keyword: DF_BASIS_SCF
    atoms 1-2, 4-5, 10, 17-70 entry C          line   146 file /home/gridsan/tfroembgen/.conda/envs/psi4test/share/psi4/basis/jun-cc-pvdz-jkfit.gbs 
    atoms 3, 6                entry N          line   202 file /home/gridsan/tfroembgen/.conda/envs/psi4test/share/psi4/basis/jun-cc-pvdz-jkfit.gbs 
    atoms 7-9, 11-16, 71-88   entry H          line    70 file /home/gridsan/tfroembgen/.conda/envs/psi4test/share/psi4/basis/jun-cc-pvdz-jkfit.gbs 

  ==> Integral Setup <==

  ==> DiskDFJK: Density-Fitted J/K Matrices <==

    J tasked:                  Yes
    K tasked:                  Yes
    wK tasked:                  No
    OpenMP threads:             12
    Integrals threads:          12
    Memory [MiB]:            22888
    Algorithm:                Core
    Integral Cache:           SAVE
    Schwarz Cutoff:          1E-12
    Fitting Condition:       1E-10

   => Auxiliary Basis Set <=

  Basis Set: (JUN-CC-PVDZ AUX)
    Blend: JUN-CC-PVDZ-JKFIT
    Number of shells: 1890
    Number of basis functions: 5440
    Number of Cartesian functions: 6226
    Spherical Harmonics?: true
    Max angular momentum: 3

  Minimum eigenvalue in the overlap matrix is 8.3905654623E-10.
  Reciprocal condition number of the overlap matrix is 3.7503640892E-11.
    Using canonical orthogonalization.
  Overall, 14 of 1233 possible MOs eliminated.


  ==> Pre-Iterations <==

  SCF Guess: Superposition of Atomic Densities via on-the-fly atomic UHF (no occupation information).

   -------------------------
    Irrep   Nso     Nmo    
   -------------------------
     A       1233    1219 
   -------------------------
    Total    1233    1219
   -------------------------

  ==> Iterations <==

                           Total Energy        Delta E     RMS |[F,P]|

   @DF-RHF iter SAD: -2365.39481619531671   -2.36539e+03   0.00000e+00 
   @DF-RHF iter   1: -2358.19286949400976    7.20195e+00   9.47207e-04 ADIIS/DIIS
   @DF-RHF iter   2: -2359.09220085792685   -8.99331e-01   3.22641e-04 ADIIS/DIIS
   @DF-RHF iter   3: -2359.18381897374729   -9.16181e-02   1.18211e-04 ADIIS/DIIS
   @DF-RHF iter   4: -2359.19696617583395   -1.31472e-02   4.43216e-05 DIIS
   @DF-RHF iter   5: -2359.19887964217378   -1.91347e-03   9.90865e-06 DIIS
   @DF-RHF iter   6: -2359.19905453384854   -1.74892e-04   5.05471e-06 DIIS
   @DF-RHF iter   7: -2359.19912207599782   -6.75421e-05   2.23783e-06 DIIS
   @DF-RHF iter   8: -2359.19914226533274   -2.01893e-05   1.13802e-06 DIIS
   @DF-RHF iter   9: -2359.19914717681741   -4.91148e-06   2.61681e-07 DIIS
   @DF-RHF iter  10: -2359.19914741877619   -2.41959e-07   8.94906e-08 DIIS
   @DF-RHF iter  11: -2359.19914743700929   -1.82331e-08   3.48414e-08 DIIS
   @DF-RHF iter  12: -2359.19914744091784   -3.90855e-09   1.75524e-08 DIIS
   @DF-RHF iter  13: -2359.19914744154448   -6.26642e-10   7.94027e-09 DIIS
  Energy and wave function converged.


  ==> Post-Iterations <==

    Orbital Energies [Eh]
    ---------------------

    Doubly Occupied:                                                      

       1A    -15.822955     2A    -15.822437     3A    -11.517568  
       4A    -11.449393     5A    -11.447837     6A    -11.437750  
       7A    -11.437664     8A    -11.322661     9A    -11.321960  
      10A    -11.321693    11A    -11.321215    12A    -11.320819  
      13A    -11.320772    14A    -11.320260    15A    -11.320242  
      16A    -11.319874    17A    -11.319395    18A    -11.319259  
      19A    -11.318799    20A    -11.318778    21A    -11.318525  
      22A    -11.318512    23A    -11.318303    24A    -11.318276  
      25A    -11.318235    26A    -11.318217    27A    -11.317604  
      28A    -11.317558    29A    -11.317527    30A    -11.317345  
      31A    -11.317339    32A    -11.316694    33A    -11.316690  
      34A    -11.316286    35A    -11.316243    36A    -11.315795  
      37A    -11.315791    38A    -11.315598    39A    -11.315504  
      40A    -11.315086    41A    -11.315061    42A    -11.314368  
      43A    -11.314312    44A    -11.311548    45A    -11.311175  
      46A    -11.311168    47A    -11.310791    48A    -11.310783  
      49A    -11.309734    50A    -11.309729    51A    -11.309456  
      52A    -11.309449    53A    -11.308892    54A    -11.308888  
      55A    -11.307964    56A    -11.307957    57A    -11.307781  
      58A    -11.307142    59A    -11.307134    60A    -11.305699  
      61A    -11.305692    62A     -1.566764    63A     -1.422261  
      64A     -1.305071    65A     -1.279888    66A     -1.279730  
      67A     -1.248922    68A     -1.248917    69A     -1.241112  
      70A     -1.227458    71A     -1.216280    72A     -1.208213  
      73A     -1.195392    74A     -1.195281    75A     -1.177622  
      76A     -1.171823    77A     -1.171802    78A     -1.141985  
      79A     -1.141968    80A     -1.138175    81A     -1.124426  
      82A     -1.124402    83A     -1.107172    84A     -1.098255  
      85A     -1.084293    86A     -1.081820    87A     -1.081738  
      88A     -1.076233    89A     -1.071024    90A     -1.046331  
      91A     -1.046305    92A     -1.020473    93A     -1.020469  
      94A     -1.011359    95A     -0.985274    96A     -0.953097  
      97A     -0.953031    98A     -0.947926    99A     -0.946064  
     100A     -0.945963   101A     -0.940701   102A     -0.940699  
     103A     -0.920443   104A     -0.905434   105A     -0.895143  
     106A     -0.877034   107A     -0.876184   108A     -0.871332  
     109A     -0.871313   110A     -0.852885   111A     -0.852867  
     112A     -0.839010   113A     -0.806232   114A     -0.805181  
     115A     -0.804236   116A     -0.801059   117A     -0.792801  
     118A     -0.792717   119A     -0.790423   120A     -0.790336  
     121A     -0.778890   122A     -0.775391   123A     -0.774653  
     124A     -0.770996   125A     -0.757603   126A     -0.757501  
     127A     -0.752489   128A     -0.752392   129A     -0.719393  
     130A     -0.717646   131A     -0.713825   132A     -0.712084  
     133A     -0.710535   134A     -0.708291   135A     -0.708288  
     136A     -0.705595   137A     -0.697787   138A     -0.697766  
     139A     -0.688693   140A     -0.686486   141A     -0.686467  
     142A     -0.667999   143A     -0.662641   144A     -0.660884  
     145A     -0.658125   146A     -0.658026   147A     -0.652821  
     148A     -0.650703   149A     -0.650653   150A     -0.642748  
     151A     -0.636755   152A     -0.636517   153A     -0.625350  
     154A     -0.625285   155A     -0.624993   156A     -0.624895  
     157A     -0.617805   158A     -0.612839   159A     -0.612754  
     160A     -0.597700   161A     -0.597696   162A     -0.596708  
     163A     -0.596605   164A     -0.588624   165A     -0.588206  
     166A     -0.585002   167A     -0.581439   168A     -0.581365  
     169A     -0.558454   170A     -0.554269   171A     -0.551414  
     172A     -0.547080   173A     -0.544127   174A     -0.540440  
     175A     -0.540355   176A     -0.530500   177A     -0.530354  
     178A     -0.513074   179A     -0.510615   180A     -0.510465  
     181A     -0.497562   182A     -0.497534   183A     -0.464530  
     184A     -0.464525   185A     -0.463231   186A     -0.433637  
     187A     -0.433630   188A     -0.408142   189A     -0.398452  
     190A     -0.397392   191A     -0.397333   192A     -0.369814  
     193A     -0.355815   194A     -0.344263   195A     -0.344228  
     196A     -0.283855   197A     -0.283808  

    Virtual:                                                              

     198A     -0.057241   199A     -0.051916   200A     -0.045007  
     201A     -0.044886   202A     -0.044847   203A     -0.037354  
     204A     -0.022498   205A     -0.020871   206A     -0.019750  
     207A     -0.013877   208A     -0.004322   209A     -0.000513  
     210A      0.001912   211A      0.002122   212A      0.004088  
     213A      0.004887   214A      0.004988   215A      0.005085  
     216A      0.007256   217A      0.009628   218A      0.010702  
     219A      0.011145   220A      0.014122   221A      0.017103  
     222A      0.026014   223A      0.026151   224A      0.026491  
     225A      0.027951   226A      0.028297   227A      0.028474  
     228A      0.030404   229A      0.032118   230A      0.033016  
     231A      0.038759   232A      0.040988   233A      0.041521  
     234A      0.042268   235A      0.042450   236A      0.044257  
     237A      0.050125   238A      0.050417   239A      0.052629  
     240A      0.054929   241A      0.059578   242A      0.060207  
     243A      0.061170   244A      0.061960   245A      0.063586  
     246A      0.067508   247A      0.069754   248A      0.069830  
     249A      0.072050   250A      0.073845   251A      0.076212  
     252A      0.081012   253A      0.081029   254A      0.084639  
     255A      0.084887   256A      0.084962   257A      0.085515  
     258A      0.085856   259A      0.088276   260A      0.091785  
     261A      0.092678   262A      0.099117   263A      0.099559  
     264A      0.100943   265A      0.102233   266A      0.105811  
     267A      0.105910   268A      0.106330   269A      0.109702  
     270A      0.110107   271A      0.111537   272A      0.118007  
     273A      0.119609   274A      0.121536   275A      0.123581  
     276A      0.126368   277A      0.127798   278A      0.128057  
     279A      0.129357   280A      0.130303   281A      0.131951  
     282A      0.133973   283A      0.134838   284A      0.135959  
     285A      0.136393   286A      0.138738   287A      0.140875  
     288A      0.142362   289A      0.144105   290A      0.145114  
     291A      0.148494   292A      0.150915   293A      0.151547  
     294A      0.154286   295A      0.158557   296A      0.158975  
     297A      0.159850   298A      0.160001   299A      0.160228  
     300A      0.160858   301A      0.161603   302A      0.161719  
     303A      0.163140   304A      0.163579   305A      0.165813  
     306A      0.167661   307A      0.170619   308A      0.171334  
     309A      0.173327   310A      0.175503   311A      0.175552  
     312A      0.176381   313A      0.176935   314A      0.178362  
     315A      0.179279   316A      0.180209   317A      0.181621  
     318A      0.182213   319A      0.185297   320A      0.187502  
     321A      0.190272   322A      0.191815   323A      0.192957  
     324A      0.195712   325A      0.197146   326A      0.198787  
     327A      0.200140   328A      0.201335   329A      0.202800  
     330A      0.203873   331A      0.204497   332A      0.205311  
     333A      0.211088   334A      0.211567   335A      0.211832  
     336A      0.212466   337A      0.212983   338A      0.216031  
     339A      0.216044   340A      0.218759   341A      0.219214  
     342A      0.220112   343A      0.223041   344A      0.223481  
     345A      0.228031   346A      0.228491   347A      0.229927  
     348A      0.231747   349A      0.235085   350A      0.236051  
     351A      0.237976   352A      0.242686   353A      0.243137  
     354A      0.245687   355A      0.245974   356A      0.247957  
     357A      0.249134   358A      0.251709   359A      0.252317  
     360A      0.253251   361A      0.254417   362A      0.254907  
     363A      0.256163   364A      0.257360   365A      0.257652  
     366A      0.258749   367A      0.259521   368A      0.260220  
     369A      0.262251   370A      0.264874   371A      0.265745  
     372A      0.266774   373A      0.267057   374A      0.267825  
     375A      0.269676   376A      0.271494   377A      0.274706  
     378A      0.277605   379A      0.278646   380A      0.279316  
     381A      0.280844   382A      0.283771   383A      0.284139  
     384A      0.287522   385A      0.287742   386A      0.290080  
     387A      0.290868   388A      0.293897   389A      0.295918  
     390A      0.296561   391A      0.297391   392A      0.298770  
     393A      0.299367   394A      0.301609   395A      0.302293  
     396A      0.305451   397A      0.308444   398A      0.310578  
     399A      0.312744   400A      0.313633   401A      0.315971  
     402A      0.317732   403A      0.318597   404A      0.319075  
     405A      0.320948   406A      0.326440   407A      0.328052  
     408A      0.328960   409A      0.329487   410A      0.330785  
     411A      0.332673   412A      0.333491   413A      0.334304  
     414A      0.336357   415A      0.337812   416A      0.338764  
     417A      0.340653   418A      0.341391   419A      0.341748  
     420A      0.343920   421A      0.345622   422A      0.348146  
     423A      0.349523   424A      0.350114   425A      0.350407  
     426A      0.351193   427A      0.351430   428A      0.352536  
     429A      0.353910   430A      0.355893   431A      0.356826  
     432A      0.360277   433A      0.361936   434A      0.363552  
     435A      0.364917   436A      0.366266   437A      0.367873  
     438A      0.369161   439A      0.371130   440A      0.379522  
     441A      0.380046   442A      0.382215   443A      0.382585  
     444A      0.386734   445A      0.386968   446A      0.388337  
     447A      0.388455   448A      0.393440   449A      0.394382  
     450A      0.396426   451A      0.396690   452A      0.398071  
     453A      0.400123   454A      0.401730   455A      0.402515  
     456A      0.403055   457A      0.404510   458A      0.405496  
     459A      0.409812   460A      0.410701   461A      0.414591  
     462A      0.415309   463A      0.416798   464A      0.419141  
     465A      0.421265   466A      0.424107   467A      0.424755  
     468A      0.426828   469A      0.430228   470A      0.436523  
     471A      0.436588   472A      0.438309   473A      0.438776  
     474A      0.440228   475A      0.440518   476A      0.443872  
     477A      0.444252   478A      0.448373   479A      0.449460  
     480A      0.455174   481A      0.455380   482A      0.455726  
     483A      0.456746   484A      0.458220   485A      0.461755  
     486A      0.462687   487A      0.468320   488A      0.468692  
     489A      0.469417   490A      0.474692   491A      0.480628  
     492A      0.480819   493A      0.483701   494A      0.484241  
     495A      0.486982   496A      0.490870   497A      0.490983  
     498A      0.491609   499A      0.493902   500A      0.494165  
     501A      0.496226   502A      0.498500   503A      0.498595  
     504A      0.502309   505A      0.504037   506A      0.504486  
     507A      0.510036   508A      0.511940   509A      0.513047  
     510A      0.522316   511A      0.528188   512A      0.530281  
     513A      0.538649   514A      0.539061   515A      0.540024  
     516A      0.545711   517A      0.556011   518A      0.556060  
     519A      0.561577   520A      0.563262   521A      0.568914  
     522A      0.569083   523A      0.582542   524A      0.585855  
     525A      0.591788   526A      0.591969   527A      0.595938  
     528A      0.608772   529A      0.608833   530A      0.611688  
     531A      0.619011   532A      0.619483   533A      0.621326  
     534A      0.631816   535A      0.643646   536A      0.658099  
     537A      0.658163   538A      0.664824   539A      0.669590  
     540A      0.674459   541A      0.677396   542A      0.682736  
     543A      0.685066   544A      0.685759   545A      0.686098  
     546A      0.687243   547A      0.697191   548A      0.699305  
     549A      0.699486   550A      0.700737   551A      0.705983  
     552A      0.710242   553A      0.714545   554A      0.717423  
     555A      0.726286   556A      0.731494   557A      0.733171  
     558A      0.737931   559A      0.740745   560A      0.747941  
     561A      0.748954   562A      0.749721   563A      0.755631  
     564A      0.757229   565A      0.760485   566A      0.764085  
     567A      0.764713   568A      0.767449   569A      0.770149  
     570A      0.771199   571A      0.775666   572A      0.778469  
     573A      0.779926   574A      0.781182   575A      0.787336  
     576A      0.789499   577A      0.794847   578A      0.800529  
     579A      0.800760   580A      0.805024   581A      0.806929  
     582A      0.807222   583A      0.808823   584A      0.810685  
     585A      0.816328   586A      0.817661   587A      0.819646  
     588A      0.820401   589A      0.820901   590A      0.830664  
     591A      0.831087   592A      0.833692   593A      0.834563  
     594A      0.837986   595A      0.838584   596A      0.840786  
     597A      0.842514   598A      0.842701   599A      0.844471  
     600A      0.847107   601A      0.851054   602A      0.852073  
     603A      0.854601   604A      0.856255   605A      0.857902  
     606A      0.859193   607A      0.860617   608A      0.864930  
     609A      0.865605   610A      0.867711   611A      0.870730  
     612A      0.872761   613A      0.876763   614A      0.878142  
     615A      0.879574   616A      0.880607   617A      0.884580  
     618A      0.885692   619A      0.886659   620A      0.888097  
     621A      0.892072   622A      0.898071   623A      0.900357  
     624A      0.900624   625A      0.910432   626A      0.912461  
     627A      0.913193   628A      0.913805   629A      0.914133  
     630A      0.915516   631A      0.916036   632A      0.918013  
     633A      0.919948   634A      0.922158   635A      0.923045  
     636A      0.929990   637A      0.930073   638A      0.936362  
     639A      0.940896   640A      0.941888   641A      0.947473  
     642A      0.957690   643A      0.958110   644A      0.959222  
     645A      0.961314   646A      0.961716   647A      0.963546  
     648A      0.968591   649A      0.973727   650A      0.974563  
     651A      0.977550   652A      0.979042   653A      0.980797  
     654A      0.981241   655A      0.982663   656A      0.982898  
     657A      0.983659   658A      0.986845   659A      0.987248  
     660A      0.987659   661A      0.988458   662A      0.989751  
     663A      0.990594   664A      0.991157   665A      0.993883  
     666A      0.997967   667A      0.998936   668A      1.003316  
     669A      1.003480   670A      1.004255   671A      1.008098  
     672A      1.012100   673A      1.013437   674A      1.015227  
     675A      1.016576   676A      1.017068   677A      1.024316  
     678A      1.025324   679A      1.026145   680A      1.027407  
     681A      1.029202   682A      1.029811   683A      1.033871  
     684A      1.036255   685A      1.043531   686A      1.045848  
     687A      1.047076   688A      1.050078   689A      1.052699  
     690A      1.055071   691A      1.058027   692A      1.058148  
     693A      1.059131   694A      1.059621   695A      1.062009  
     696A      1.063066   697A      1.067682   698A      1.068099  
     699A      1.072743   700A      1.076349   701A      1.076580  
     702A      1.077544   703A      1.081745   704A      1.081846  
     705A      1.082820   706A      1.084951   707A      1.086391  
     708A      1.091020   709A      1.096099   710A      1.109428  
     711A      1.113297   712A      1.115437   713A      1.116790  
     714A      1.118809   715A      1.119128   716A      1.123937  
     717A      1.124437   718A      1.126337   719A      1.128782  
     720A      1.138103   721A      1.139114   722A      1.139618  
     723A      1.142225   724A      1.142239   725A      1.152661  
     726A      1.153162   727A      1.160014   728A      1.160199  
     729A      1.161638   730A      1.162591   731A      1.165120  
     732A      1.165164   733A      1.179645   734A      1.181806  
     735A      1.182601   736A      1.183524   737A      1.200913  
     738A      1.202649   739A      1.204412   740A      1.204524  
     741A      1.205077   742A      1.206425   743A      1.209004  
     744A      1.209768   745A      1.210312   746A      1.220099  
     747A      1.225771   748A      1.236879   749A      1.237191  
     750A      1.238983   751A      1.240367   752A      1.243409  
     753A      1.243645   754A      1.251548   755A      1.252017  
     756A      1.252464   757A      1.252683   758A      1.261057  
     759A      1.262509   760A      1.263656   761A      1.264040  
     762A      1.271398   763A      1.271551   764A      1.275298  
     765A      1.282798   766A      1.283466   767A      1.285828  
     768A      1.287497   769A      1.289006   770A      1.293461  
     771A      1.295338   772A      1.295421   773A      1.295781  
     774A      1.301458   775A      1.304076   776A      1.304865  
     777A      1.307631   778A      1.310057   779A      1.312019  
     780A      1.323118   781A      1.332956   782A      1.340995  
     783A      1.342139   784A      1.346677   785A      1.346989  
     786A      1.349345   787A      1.349686   788A      1.354636  
     789A      1.354965   790A      1.360717   791A      1.361918  
     792A      1.366196   793A      1.368208   794A      1.369898  
     795A      1.371708   796A      1.374326   797A      1.379236  
     798A      1.379449   799A      1.381117   800A      1.382203  
     801A      1.382471   802A      1.384867   803A      1.392023  
     804A      1.392464   805A      1.393351   806A      1.404830  
     807A      1.405108   808A      1.414973   809A      1.415906  
     810A      1.438318   811A      1.458170   812A      1.458844  
     813A      1.462141   814A      1.462183   815A      1.474966  
     816A      1.479263   817A      1.490852   818A      1.493012  
     819A      1.515501   820A      1.517173   821A      1.531728  
     822A      1.539479   823A      1.540336   824A      1.540794  
     825A      1.548580   826A      1.548667   827A      1.549912  
     828A      1.551958   829A      1.552178   830A      1.556551  
     831A      1.562669   832A      1.562968   833A      1.569869  
     834A      1.570271   835A      1.577154   836A      1.581201  
     837A      1.582090   838A      1.583905   839A      1.584275  
     840A      1.584329   841A      1.584658   842A      1.591496  
     843A      1.602404   844A      1.602444   845A      1.608722  
     846A      1.615912   847A      1.616065   848A      1.617496  
     849A      1.618359   850A      1.618763   851A      1.619798  
     852A      1.625033   853A      1.627529   854A      1.627631  
     855A      1.632801   856A      1.637453   857A      1.638793  
     858A      1.640999   859A      1.641080   860A      1.642059  
     861A      1.644653   862A      1.644721   863A      1.657736  
     864A      1.657849   865A      1.676365   866A      1.682586  
     867A      1.682939   868A      1.691815   869A      1.695256  
     870A      1.701714   871A      1.702936   872A      1.703330  
     873A      1.705166   874A      1.712736   875A      1.718185  
     876A      1.718473   877A      1.732984   878A      1.733037  
     879A      1.747060   880A      1.757249   881A      1.758255  
     882A      1.758690   883A      1.760633   884A      1.761288  
     885A      1.763095   886A      1.764921   887A      1.765147  
     888A      1.770012   889A      1.772456   890A      1.772549  
     891A      1.779681   892A      1.782924   893A      1.783292  
     894A      1.799572   895A      1.802995   896A      1.803183  
     897A      1.803830   898A      1.804701   899A      1.806446  
     900A      1.810448   901A      1.813875   902A      1.820687  
     903A      1.820820   904A      1.823373   905A      1.825874  
     906A      1.831939   907A      1.837545   908A      1.837619  
     909A      1.842033   910A      1.845738   911A      1.846263  
     912A      1.849633   913A      1.849769   914A      1.856151  
     915A      1.856846   916A      1.858676   917A      1.858997  
     918A      1.859848   919A      1.860159   920A      1.863131  
     921A      1.863669   922A      1.872820   923A      1.882029  
     924A      1.882839   925A      1.884319   926A      1.884683  
     927A      1.885667   928A      1.890539   929A      1.890656  
     930A      1.895418   931A      1.895485   932A      1.896025  
     933A      1.896320   934A      1.899162   935A      1.909433  
     936A      1.912953   937A      1.913626   938A      1.923908  
     939A      1.924150   940A      1.932462   941A      1.938629  
     942A      1.940626   943A      1.941066   944A      1.947371  
     945A      1.951007   946A      1.954511   947A      1.954944  
     948A      1.965453   949A      1.968528   950A      1.969905  
     951A      1.971695   952A      1.972271   953A      1.972797  
     954A      1.972947   955A      1.973880   956A      1.981782  
     957A      1.990133   958A      1.994244   959A      1.994472  
     960A      1.998855   961A      1.999600   962A      2.002011  
     963A      2.003112   964A      2.009282   965A      2.011736  
     966A      2.012516   967A      2.012936   968A      2.016716  
     969A      2.017849   970A      2.021452   971A      2.022780  
     972A      2.026356   973A      2.027974   974A      2.035024  
     975A      2.036637   976A      2.038716   977A      2.039660  
     978A      2.042260   979A      2.042636   980A      2.049771  
     981A      2.050087   982A      2.050429   983A      2.050818  
     984A      2.051248   985A      2.052226   986A      2.055833  
     987A      2.056831   988A      2.060983   989A      2.061116  
     990A      2.062408   991A      2.062493   992A      2.068389  
     993A      2.068763   994A      2.074909   995A      2.076035  
     996A      2.077799   997A      2.078325   998A      2.080006  
     999A      2.085087  1000A      2.085121  1001A      2.097701  
    1002A      2.100124  1003A      2.100492  1004A      2.104015  
    1005A      2.104089  1006A      2.111576  1007A      2.112432  
    1008A      2.120163  1009A      2.120286  1010A      2.133057  
    1011A      2.133264  1012A      2.133707  1013A      2.135450  
    1014A      2.135495  1015A      2.137243  1016A      2.139184  
    1017A      2.148692  1018A      2.159921  1019A      2.160622  
    1020A      2.160776  1021A      2.161075  1022A      2.168248  
    1023A      2.169035  1024A      2.170377  1025A      2.170903  
    1026A      2.172128  1027A      2.185986  1028A      2.186287  
    1029A      2.187300  1030A      2.187408  1031A      2.190369  
    1032A      2.202986  1033A      2.203067  1034A      2.210207  
    1035A      2.211944  1036A      2.211970  1037A      2.214419  
    1038A      2.214515  1039A      2.224462  1040A      2.235475  
    1041A      2.242440  1042A      2.248619  1043A      2.251570  
    1044A      2.253340  1045A      2.260004  1046A      2.262337  
    1047A      2.264309  1048A      2.270835  1049A      2.270863  
    1050A      2.271848  1051A      2.274340  1052A      2.291502  
    1053A      2.292135  1054A      2.293913  1055A      2.293999  
    1056A      2.306523  1057A      2.307150  1058A      2.307322  
    1059A      2.314532  1060A      2.321589  1061A      2.339460  
    1062A      2.347971  1063A      2.358182  1064A      2.365057  
    1065A      2.365881  1066A      2.365885  1067A      2.378479  
    1068A      2.381970  1069A      2.382119  1070A      2.411276  
    1071A      2.414640  1072A      2.415219  1073A      2.427338  
    1074A      2.427357  1075A      2.443683  1076A      2.455662  
    1077A      2.461688  1078A      2.471030  1079A      2.471759  
    1080A      2.473614  1081A      2.486000  1082A      2.487528  
    1083A      2.488371  1084A      2.494939  1085A      2.497533  
    1086A      2.497591  1087A      2.501349  1088A      2.501366  
    1089A      2.507639  1090A      2.514157  1091A      2.514193  
    1092A      2.517618  1093A      2.518068  1094A      2.527772  
    1095A      2.528335  1096A      2.528776  1097A      2.531423  
    1098A      2.534485  1099A      2.548393  1100A      2.565911  
    1101A      2.565995  1102A      2.566548  1103A      2.572361  
    1104A      2.572957  1105A      2.583189  1106A      2.583481  
    1107A      2.584189  1108A      2.593445  1109A      2.593949  
    1110A      2.599015  1111A      2.614473  1112A      2.623052  
    1113A      2.624182  1114A      2.625810  1115A      2.630039  
    1116A      2.641863  1117A      2.642294  1118A      2.647908  
    1119A      2.653631  1120A      2.653760  1121A      2.659534  
    1122A      2.659640  1123A      2.663711  1124A      2.664016  
    1125A      2.672469  1126A      2.678063  1127A      2.691327  
    1128A      2.693318  1129A      2.694723  1130A      2.695311  
    1131A      2.700882  1132A      2.716171  1133A      2.717815  
    1134A      2.735608  1135A      2.736374  1136A      2.745816  
    1137A      2.756496  1138A      2.758133  1139A      2.767693  
    1140A      2.769752  1141A      2.793463  1142A      2.793705  
    1143A      2.795757  1144A      2.798105  1145A      2.800475  
    1146A      2.801076  1147A      2.807226  1148A      2.810441  
    1149A      2.859862  1150A      2.860155  1151A      2.866015  
    1152A      2.876111  1153A      2.876147  1154A      2.891410  
    1155A      2.891517  1156A      2.905141  1157A      2.925824  
    1158A      2.948561  1159A      2.949209  1160A      2.954784  
    1161A      2.972021  1162A      2.984499  1163A      3.004487  
    1164A      3.004861  1165A      3.011936  1166A      3.012018  
    1167A      3.051495  1168A      3.052171  1169A      3.056650  
    1170A      3.071072  1171A      3.071471  1172A      3.071978  
    1173A      3.073302  1174A      3.079432  1175A      3.087678  
    1176A      3.088482  1177A      3.089717  1178A      3.091352  
    1179A      3.091580  1180A      3.100267  1181A      3.100715  
    1182A      3.108084  1183A      3.108617  1184A      3.134322  
    1185A      3.153809  1186A      3.159673  1187A      3.179459  
    1188A      3.214151  1189A      3.217862  1190A      3.218114  
    1191A      3.223616  1192A      3.224055  1193A      3.356923  
    1194A      3.357508  1195A      3.380463  1196A      3.421799  
    1197A      3.424173  1198A      3.447937  1199A      3.489325  
    1200A      3.516918  1201A      3.518767  1202A      3.533608  
    1203A      3.537295  1204A      3.567577  1205A      3.569609  
    1206A      3.604214  1207A      3.610636  1208A      3.709939  
    1209A      3.722930  1210A      3.724046  1211A      3.812636  
    1212A      3.812653  1213A      3.854640  1214A      3.854810  
    1215A      3.917303  1216A      3.951134  1217A      3.971834  
    1218A      3.984855  1219A      4.019796  

    Final Occupation by Irrep:
              A 
    DOCC [   197 ]
    NA   [   197 ]
    NB   [   197 ]

  @DF-RHF Final Energy: -2359.19914744154448

   => Energetics <=

    Nuclear Repulsion Energy =           7863.4747014165368455
    One-Electron Energy =              -18832.0390293096606911
    Two-Electron Energy =                8609.3651804515793629
    Total Energy =                      -2359.1991474415444827

Computation Completed


Properties will be evaluated at   0.000000,   0.000000,   0.000000 [a0]

Properties computed using the SCF density matrix


 Multipole Moments:

 ------------------------------------------------------------------------------------
     Multipole            Electronic (a.u.)      Nuclear  (a.u.)        Total (a.u.)
 ------------------------------------------------------------------------------------

 L = 1.  Multiply by 2.5417464519 to convert [e a0] to [Debye]
 Dipole X            :         -0.0015703            0.0006313           -0.0009390
 Dipole Y            :         -5.5976354            7.4856329            1.8879976
 Dipole Z            :         25.0883178          -35.6444609          -10.5561431
 Magnitude           :                                                   10.7236511

 ------------------------------------------------------------------------------------

*** tstop() called on d-18-8-4 at Mon Jan 22 22:23:49 2024
Module time:
	user time   =    4069.38 seconds =      67.82 minutes
	system time =      86.62 seconds =       1.44 minutes
	total time  =        419 seconds =       6.98 minutes
Total time:
	user time   =    4069.38 seconds =      67.82 minutes
	system time =      86.62 seconds =       1.44 minutes
	total time  =        419 seconds =       6.98 minutes

  //>>>>>>>>>>>>>>>>>>>>>>>>>>>>>>>>>>>//
  //            Monomer A HF           //
  //<<<<<<<<<<<<<<<<<<<<<<<<<<<<<<<<<<<//

   => Libint2 <=

    Primary   basis highest AM E, G, H:  7, 7, 4
    Auxiliary basis highest AM E, G, H:  7, 7, 5
    Onebody   basis highest AM E, G, H:  7, 7, 5
    Solid Harmonics ordering:            gaussian

*** tstart() called on d-18-8-4
*** at Mon Jan 22 22:23:49 2024

   => Loading Basis Set <=

    Name: JUN-CC-PVDZ
    Role: ORBITAL
    Keyword: BASIS
    atoms 1-2, 4-5, 10, 17-70 entry C          line   164 file /home/gridsan/tfroembgen/.conda/envs/psi4test/share/psi4/basis/jun-cc-pvdz.gbs 
    atoms 3, 6                entry N          line   198 file /home/gridsan/tfroembgen/.conda/envs/psi4test/share/psi4/basis/jun-cc-pvdz.gbs 
    atoms 7-9, 11-16, 71-88   entry H          line    36 file /home/gridsan/tfroembgen/.conda/envs/psi4test/share/psi4/basis/jun-cc-pvdz.gbs 


         ---------------------------------------------------------
                                   SCF
               by Justin Turney, Rob Parrish, Andy Simmonett
                          and Daniel G. A. Smith
                              RHF Reference
                       12 Threads,  30517 MiB Core
         ---------------------------------------------------------

  ==> Geometry <==

    Molecular point group: c1
    Full point group: C1

    Geometry (in Angstrom), charge = 1, multiplicity = 1:

       Center              X                  Y                   Z               Mass       
    ------------   -----------------  -----------------  -----------------  -----------------
         C            0.680066520158     1.235968212970    -7.500135447667    12.000000000000
         C           -0.680504479842     1.237996212970    -7.499751447667    12.000000000000
         N           -1.085635479842     1.238994212970    -6.181427447667    14.003074004430
         C            0.000107520158     1.242270212970    -5.400026447667    12.000000000000
         C           -2.477365479842     1.288400212970    -5.713448447667    12.000000000000
         N            1.085221520158     1.238994212970    -6.181427447667    14.003074004430
         H            1.385145520158     1.228140212970    -8.317574447667     1.007825032230
         H           -1.385302479842     1.237806212970    -8.317420447667     1.007825032230
         H           -0.000009479842     1.244017212970    -4.318937447667     1.007825032230
         C            2.478116520158     1.222102212970    -5.716329447667    12.000000000000
         H            2.490591520158     1.249447212970    -4.626076447667     1.007825032230
         H            2.967027520158     0.308656212970    -6.063505447667     1.007825032230
         H            3.001427520158     2.097585212970    -6.107801447667     1.007825032230
         H           -2.857359479842     2.310471212970    -5.793407447667     1.007825032230
         H           -3.082679479842     0.618316212970    -6.326512447667     1.007825032230
         H           -2.518128479842     0.961416212970    -4.673500447667     1.007825032230
      Gh(C)           1.225311895423     0.526248873889     0.921931179617    12.000000000000
      Gh(C)           1.225323856051    -0.888828309601     0.909600370047    12.000000000000
      Gh(C)          -0.000006153932     1.233676499060     0.909066746526    12.000000000000
      Gh(C)           2.456448753949     1.237038472148     0.924818037017    12.000000000000
      Gh(C)           0.000010827279    -1.596265913665     0.919266303850    12.000000000000
      Gh(C)          -1.225300948908     0.526255958954     0.924182699939    12.000000000000
      Gh(C)           2.456437755320    -1.599612718911     0.907355213190    12.000000000000
      Gh(C)          -0.000001332978     2.655511616251     0.906663196392    12.000000000000
      Gh(C)           3.681826697470     0.528028540971     0.907704002987    12.000000000000
      Gh(C)           2.455120048865     2.652934246459     0.907601446027    12.000000000000
      Gh(C)           3.681821105219    -0.890623254459     0.923776487006    12.000000000000
      Gh(C)          -1.225313598688    -0.888816930574     0.910673131473    12.000000000000
      Gh(C)           1.226699581202     3.362180068964     0.923960518937    12.000000000000
      Gh(C)           0.000004784858    -3.018071554266     0.924114471472    12.000000000000
      Gh(C)          -2.456436032848     1.237027503255     0.924218095785    12.000000000000
      Gh(C)           2.455123417779    -3.015519443619     0.923624578638    12.000000000000
      Gh(C)          -1.226714364589     3.362179648720     0.924063852156    12.000000000000
      Gh(C)           4.914517295202     1.245883457459     0.914184686017    12.000000000000
      Gh(C)           3.693150191476     3.361505877515     0.914234485653    12.000000000000
      Gh(C)          -2.456437600068    -1.599602695869     0.907330175065    12.000000000000
      Gh(C)           1.226704841943    -3.724763656937     0.907990388187    12.000000000000
      Gh(C)          -2.455125398508     2.652927247604     0.907607822373    12.000000000000
      Gh(C)           4.914524380782    -1.608476324974     0.917157428752    12.000000000000
      Gh(C)           1.221424613699     4.788844650230     0.917295863011    12.000000000000
      Gh(C)           4.893008229321     2.643898584996     0.915401354376    12.000000000000
      Gh(C)          -1.226697008489    -3.724760412107     0.908257592596    12.000000000000
      Gh(C)          -3.681818976526     0.528035551702     0.907716683468    12.000000000000
      Gh(C)           3.693147101150    -3.724090756421     0.917275319312    12.000000000000
      Gh(C)          -1.221432251994     4.788838882833     0.917479358384    12.000000000000
      Gh(C)           6.134770972926     0.499258532075     0.914954460567    12.000000000000
      Gh(C)           3.656788880610     4.791663828537     0.915143123436    12.000000000000
      Gh(C)          -2.455126907733    -3.015504508091     0.923380220840    12.000000000000
      Gh(C)          -3.681819179061    -0.890615118499     0.923894108585    12.000000000000
      Gh(C)           4.893012617914    -3.006489520662     0.916012506271    12.000000000000
      Gh(C)          -0.000001073113     5.469157951002     0.916248049677    12.000000000000
      Gh(C)           6.134775112332    -0.861844269105     0.916219781083    12.000000000000
      Gh(C)           2.478131482856     5.472287336301     0.916431903086    12.000000000000
      Gh(C)           1.221422404738    -5.151416469963     0.914496365989    12.000000000000
      Gh(C)          -3.693162383965     3.361507539162     0.914399993113    12.000000000000
      Gh(C)          -1.221428520945    -5.151407718626     0.914383604156    12.000000000000
      Gh(C)          -4.914521807942     1.245886031965     0.914261631025    12.000000000000
      Gh(C)           3.656787019679    -5.154244641269     0.916593623970    12.000000000000
      Gh(C)          -2.478138530106     5.472285007498     0.916716428094    12.000000000000
      Gh(C)          -3.693141738564    -3.724079634009     0.917159193157    12.000000000000
      Gh(C)          -4.914512483053    -1.608470415058     0.917192125925    12.000000000000
      Gh(C)          -0.000006008926    -5.831727702044     0.915852545556    12.000000000000
      Gh(C)          -4.893020484101     2.643899183889     0.915391272516    12.000000000000
      Gh(C)           2.478125993298    -5.834862958919     0.915503023178    12.000000000000
      Gh(C)          -3.656798710258     4.791666767011     0.915319803810    12.000000000000
      Gh(C)          -4.892999478856    -3.006481182090     0.915858470574    12.000000000000
      Gh(C)          -2.478128498083    -5.834855585037     0.915227835530    12.000000000000
      Gh(C)          -6.134770503331     0.499259351226     0.914928908865    12.000000000000
      Gh(C)          -3.656788833189    -5.154233438001     0.916379336153    12.000000000000
      Gh(C)          -6.134765042913    -0.861843330512     0.916199305288    12.000000000000
      Gh(H)           5.835288495816     3.187986479924     0.919760680038     1.007825032230
      Gh(H)           7.073859172747     1.046927833869     0.915416103960     1.007825032230
      Gh(H)           4.600663264174     5.331091387423     0.915648324188     1.007825032230
      Gh(H)           5.835283387305    -3.550595471759     0.911558038957     1.007825032230
      Gh(H)          -0.000012151306     6.557241259106     0.911898804669     1.007825032230
      Gh(H)           7.073861171831    -1.409516357774     0.915711042988     1.007825032230
      Gh(H)           2.473313731799     6.559394876364     0.915965182155     1.007825032230
      Gh(H)           4.600668491381    -5.693665544206     0.916183626802     1.007825032230
      Gh(H)          -2.473318680537     6.559392304576     0.916266528780     1.007825032230
      Gh(H)          -0.000010268228    -6.919817591482     0.920382230541     1.007825032230
      Gh(H)          -5.835301914343     3.187981535266     0.919896702187     1.007825032230
      Gh(H)           2.473307923831    -6.921974789459     0.916073353603     1.007825032230
      Gh(H)          -4.600674841208     5.331088611573     0.915813652512     1.007825032230
      Gh(H)          -5.835279506835    -3.550578378810     0.911278733076     1.007825032230
      Gh(H)          -2.473300347440    -6.921968493170     0.915624037058     1.007825032230
      Gh(H)          -7.073857766768     1.046931057810     0.915332112479     1.007825032230
      Gh(H)          -4.600673786085    -5.693652084817     0.916011318779     1.007825032230
      Gh(H)          -7.073856934409    -1.409510047007     0.915616186522     1.007825032230

  Running in c1 symmetry.

  Rotational constants: A =      0.00139  B =      0.00138  C =      0.00106 [cm^-1]
  Rotational constants: A =     41.78873  B =     41.28682  C =     31.91312 [MHz]
  Nuclear repulsion =  306.774908447732969

  Charge       = 1
  Multiplicity = 1
  Electrons    = 52
  Nalpha       = 26
  Nbeta        = 26

  ==> Algorithm <==

  SCF Algorithm Type is DF.
  DIIS enabled.
  MOM disabled.
  Fractional occupation disabled.
  Guess Type is SAD.
  Energy threshold   = 1.00e-08
  Density threshold  = 1.00e-08
  Integral threshold = 1.00e-12

  ==> Primary Basis <==

  Basis Set: JUN-CC-PVDZ
    Blend: JUN-CC-PVDZ
    Number of shells: 569
    Number of basis functions: 1233
    Number of Cartesian functions: 1294
    Spherical Harmonics?: true
    Max angular momentum: 2

   => Loading Basis Set <=

    Name: (JUN-CC-PVDZ AUX)
    Role: JKFIT
    Keyword: DF_BASIS_SCF
    atoms 1-2, 4-5, 10, 17-70 entry C          line   146 file /home/gridsan/tfroembgen/.conda/envs/psi4test/share/psi4/basis/jun-cc-pvdz-jkfit.gbs 
    atoms 3, 6                entry N          line   202 file /home/gridsan/tfroembgen/.conda/envs/psi4test/share/psi4/basis/jun-cc-pvdz-jkfit.gbs 
    atoms 7-9, 11-16, 71-88   entry H          line    70 file /home/gridsan/tfroembgen/.conda/envs/psi4test/share/psi4/basis/jun-cc-pvdz-jkfit.gbs 

  ==> Integral Setup <==

  ==> DiskDFJK: Density-Fitted J/K Matrices <==

    J tasked:                  Yes
    K tasked:                  Yes
    wK tasked:                  No
    OpenMP threads:             12
    Integrals threads:          12
    Memory [MiB]:            22888
    Algorithm:                Core
    Integral Cache:           LOAD
    Schwarz Cutoff:          1E-12
    Fitting Condition:       1E-10

   => Auxiliary Basis Set <=

  Basis Set: (JUN-CC-PVDZ AUX)
    Blend: JUN-CC-PVDZ-JKFIT
    Number of shells: 1890
    Number of basis functions: 5440
    Number of Cartesian functions: 6226
    Spherical Harmonics?: true
    Max angular momentum: 3

  Minimum eigenvalue in the overlap matrix is 8.3905654623E-10.
  Reciprocal condition number of the overlap matrix is 3.7503640892E-11.
    Using canonical orthogonalization.
  Overall, 14 of 1233 possible MOs eliminated.


  ==> Pre-Iterations <==

  SCF Guess: Superposition of Atomic Densities via on-the-fly atomic UHF (no occupation information).

   -------------------------
    Irrep   Nso     Nmo    
   -------------------------
     A       1233    1219 
   -------------------------
    Total    1233    1219
   -------------------------

  ==> Iterations <==

                           Total Energy        Delta E     RMS |[F,P]|

   @DF-RHF iter SAD:  -303.36534108067178   -3.03365e+02   0.00000e+00 
   @DF-RHF iter   1:  -303.16944432098222    1.95897e-01   3.44090e-04 ADIIS/DIIS
   @DF-RHF iter   2:  -303.28378024659077   -1.14336e-01   1.15871e-04 ADIIS/DIIS
   @DF-RHF iter   3:  -303.29522875482110   -1.14485e-02   4.53263e-05 DIIS
   @DF-RHF iter   4:  -303.29713096134816   -1.90221e-03   9.89300e-06 DIIS
   @DF-RHF iter   5:  -303.29723650240589   -1.05541e-04   2.41188e-06 DIIS
   @DF-RHF iter   6:  -303.29724575950814   -9.25710e-06   6.54249e-07 DIIS
   @DF-RHF iter   7:  -303.29724683190670   -1.07240e-06   3.32204e-07 DIIS
   @DF-RHF iter   8:  -303.29724708446315   -2.52556e-07   1.33685e-07 DIIS
   @DF-RHF iter   9:  -303.29724713294428   -4.84811e-08   3.37136e-08 DIIS
   @DF-RHF iter  10:  -303.29724713577144   -2.82716e-09   1.26622e-08 DIIS
   @DF-RHF iter  11:  -303.29724713601803   -2.46587e-10   2.98299e-09 DIIS
  Energy and wave function converged.


  ==> Post-Iterations <==

    Orbital Energies [Eh]
    ---------------------

    Doubly Occupied:                                                      

       1A    -15.834659     2A    -15.834127     3A    -11.529539  
       4A    -11.459855     5A    -11.458300     6A    -11.449662  
       7A    -11.449549     8A     -1.578211     9A     -1.433804  
      10A     -1.238646    11A     -1.189294    12A     -1.118853  
      13A     -1.022516    14A     -0.996943    15A     -0.917029  
      16A     -0.850511    17A     -0.816240    18A     -0.813182  
      19A     -0.790110    20A     -0.786216    21A     -0.781752  
      22A     -0.729693    23A     -0.725772    24A     -0.717088  
      25A     -0.596287    26A     -0.523841  

    Virtual:                                                              

      27A     -0.074304    28A     -0.070976    29A     -0.058533  
      30A     -0.050967    31A     -0.037860    32A     -0.035044  
      33A     -0.034491    34A     -0.033297    35A     -0.031978  
      36A     -0.023830    37A     -0.021928    38A     -0.017407  
      39A     -0.015407    40A     -0.012456    41A     -0.009911  
      42A     -0.006253    43A     -0.005283    44A     -0.002869  
      45A     -0.001516    46A      0.002472    47A      0.003937  
      48A      0.008663    49A      0.010582    50A      0.014728  
      51A      0.015833    52A      0.017465    53A      0.018263  
      54A      0.023068    55A      0.025891    56A      0.026552  
      57A      0.028305    58A      0.032171    59A      0.034739  
      60A      0.035017    61A      0.038588    62A      0.038678  
      63A      0.040539    64A      0.041880    65A      0.047529  
      66A      0.049011    67A      0.051419    68A      0.052713  
      69A      0.054593    70A      0.056025    71A      0.060391  
      72A      0.061756    73A      0.063323    74A      0.063689  
      75A      0.069106    76A      0.069973    77A      0.070836  
      78A      0.071844    79A      0.072431    80A      0.074230  
      81A      0.076633    82A      0.079078    83A      0.079822  
      84A      0.081764    85A      0.082719    86A      0.083981  
      87A      0.084155    88A      0.087222    89A      0.089640  
      90A      0.090120    91A      0.091240    92A      0.091970  
      93A      0.093643    94A      0.097610    95A      0.098664  
      96A      0.099604    97A      0.099928    98A      0.102028  
      99A      0.102740   100A      0.104597   101A      0.109077  
     102A      0.110568   103A      0.114808   104A      0.115289  
     105A      0.115731   106A      0.116427   107A      0.119446  
     108A      0.119611   109A      0.120258   110A      0.123177  
     111A      0.123614   112A      0.124814   113A      0.124985  
     114A      0.126367   115A      0.128872   116A      0.130923  
     117A      0.132371   118A      0.134242   119A      0.138094  
     120A      0.139958   121A      0.140137   122A      0.140622  
     123A      0.140985   124A      0.143869   125A      0.146609  
     126A      0.147359   127A      0.147503   128A      0.148992  
     129A      0.150148   130A      0.151479   131A      0.152935  
     132A      0.153946   133A      0.154708   134A      0.155266  
     135A      0.155721   136A      0.159010   137A      0.162891  
     138A      0.163553   139A      0.167452   140A      0.168229  
     141A      0.169262   142A      0.169657   143A      0.169816  
     144A      0.173213   145A      0.174220   146A      0.176750  
     147A      0.179809   148A      0.180704   149A      0.181645  
     150A      0.183457   151A      0.183690   152A      0.184665  
     153A      0.186925   154A      0.187076   155A      0.187610  
     156A      0.188227   157A      0.191890   158A      0.194759  
     159A      0.195941   160A      0.196236   161A      0.197190  
     162A      0.198742   163A      0.201526   164A      0.205347  
     165A      0.212461   166A      0.213534   167A      0.214357  
     168A      0.215118   169A      0.218370   170A      0.219899  
     171A      0.221221   172A      0.221538   173A      0.222047  
     174A      0.222174   175A      0.222949   176A      0.225240  
     177A      0.226065   178A      0.227339   179A      0.228545  
     180A      0.229791   181A      0.231341   182A      0.231913  
     183A      0.232189   184A      0.233263   185A      0.238535  
     186A      0.238824   187A      0.240902   188A      0.242089  
     189A      0.246879   190A      0.247272   191A      0.248311  
     192A      0.250515   193A      0.253422   194A      0.253784  
     195A      0.257096   196A      0.257724   197A      0.263418  
     198A      0.266949   199A      0.268870   200A      0.269847  
     201A      0.273575   202A      0.274311   203A      0.275905  
     204A      0.276423   205A      0.279042   206A      0.283342  
     207A      0.285893   208A      0.285997   209A      0.287029  
     210A      0.288544   211A      0.290195   212A      0.291778  
     213A      0.294065   214A      0.296816   215A      0.297245  
     216A      0.298013   217A      0.299775   218A      0.302862  
     219A      0.305625   220A      0.306002   221A      0.306902  
     222A      0.307460   223A      0.309593   224A      0.310897  
     225A      0.313427   226A      0.316223   227A      0.316392  
     228A      0.318903   229A      0.321833   230A      0.323840  
     231A      0.325866   232A      0.331812   233A      0.333078  
     234A      0.335973   235A      0.337211   236A      0.340605  
     237A      0.341527   238A      0.346482   239A      0.349245  
     240A      0.350255   241A      0.353768   242A      0.357241  
     243A      0.358762   244A      0.359644   245A      0.361808  
     246A      0.365644   247A      0.367786   248A      0.369540  
     249A      0.371904   250A      0.372228   251A      0.372292  
     252A      0.374657   253A      0.376133   254A      0.377072  
     255A      0.377643   256A      0.382260   257A      0.386310  
     258A      0.386863   259A      0.387438   260A      0.388009  
     261A      0.391008   262A      0.391875   263A      0.396165  
     264A      0.396564   265A      0.398640   266A      0.399228  
     267A      0.399804   268A      0.400266   269A      0.400875  
     270A      0.401579   271A      0.408757   272A      0.410232  
     273A      0.410878   274A      0.412699   275A      0.414828  
     276A      0.415460   277A      0.417948   278A      0.418482  
     279A      0.419158   280A      0.424264   281A      0.424558  
     282A      0.427319   283A      0.427594   284A      0.430413  
     285A      0.431715   286A      0.433620   287A      0.435402  
     288A      0.436868   289A      0.437200   290A      0.437697  
     291A      0.440716   292A      0.445087   293A      0.449774  
     294A      0.450432   295A      0.452146   296A      0.459434  
     297A      0.459727   298A      0.460724   299A      0.466409  
     300A      0.467245   301A      0.470099   302A      0.470319  
     303A      0.471863   304A      0.472523   305A      0.473638  
     306A      0.475526   307A      0.480193   308A      0.481446  
     309A      0.484056   310A      0.486806   311A      0.487915  
     312A      0.489257   313A      0.489455   314A      0.491632  
     315A      0.496016   316A      0.505167   317A      0.506136  
     318A      0.507433   319A      0.509959   320A      0.513697  
     321A      0.515248   322A      0.515311   323A      0.517377  
     324A      0.517650   325A      0.519830   326A      0.521281  
     327A      0.524392   328A      0.526077   329A      0.528238  
     330A      0.538650   331A      0.539145   332A      0.540140  
     333A      0.541231   334A      0.541429   335A      0.542907  
     336A      0.550928   337A      0.551569   338A      0.555354  
     339A      0.557637   340A      0.558335   341A      0.559778  
     342A      0.561935   343A      0.563932   344A      0.568787  
     345A      0.572868   346A      0.574141   347A      0.577281  
     348A      0.579724   349A      0.582948   350A      0.586516  
     351A      0.586716   352A      0.587472   353A      0.592848  
     354A      0.596349   355A      0.602516   356A      0.605046  
     357A      0.610243   358A      0.616436   359A      0.617186  
     360A      0.617298   361A      0.621122   362A      0.621524  
     363A      0.622734   364A      0.623698   365A      0.627732  
     366A      0.630598   367A      0.630782   368A      0.634041  
     369A      0.637007   370A      0.637356   371A      0.641049  
     372A      0.642249   373A      0.643360   374A      0.645230  
     375A      0.646368   376A      0.647585   377A      0.648981  
     378A      0.650870   379A      0.661126   380A      0.661689  
     381A      0.663831   382A      0.664172   383A      0.666416  
     384A      0.668343   385A      0.675356   386A      0.681248  
     387A      0.687471   388A      0.690267   389A      0.692589  
     390A      0.699878   391A      0.701004   392A      0.701292  
     393A      0.703224   394A      0.704439   395A      0.705722  
     396A      0.706676   397A      0.707225   398A      0.707689  
     399A      0.707978   400A      0.710626   401A      0.713259  
     402A      0.713540   403A      0.713963   404A      0.715253  
     405A      0.716945   406A      0.719528   407A      0.725381  
     408A      0.726648   409A      0.728537   410A      0.728961  
     411A      0.731224   412A      0.735648   413A      0.736062  
     414A      0.738026   415A      0.739091   416A      0.743115  
     417A      0.745735   418A      0.746109   419A      0.748343  
     420A      0.749664   421A      0.758156   422A      0.760697  
     423A      0.764696   424A      0.785833   425A      0.786086  
     426A      0.790012   427A      0.790161   428A      0.794982  
     429A      0.798665   430A      0.800617   431A      0.803920  
     432A      0.808996   433A      0.820725   434A      0.820766  
     435A      0.823186   436A      0.825048   437A      0.827787  
     438A      0.830402   439A      0.830880   440A      0.832920  
     441A      0.838933   442A      0.839127   443A      0.846049  
     444A      0.857794   445A      0.863487   446A      0.863746  
     447A      0.864667   448A      0.887975   449A      0.895050  
     450A      0.899825   451A      0.900029   452A      0.904712  
     453A      0.908733   454A      0.908905   455A      0.917695  
     456A      0.931538   457A      0.940449   458A      0.940862  
     459A      0.944038   460A      0.948948   461A      0.961269  
     462A      0.965374   463A      0.966844   464A      0.968289  
     465A      0.973152   466A      0.981498   467A      0.981586  
     468A      0.987158   469A      0.998981   470A      1.005350  
     471A      1.005485   472A      1.008155   473A      1.008223  
     474A      1.034968   475A      1.037160   476A      1.042947  
     477A      1.043357   478A      1.045267   479A      1.063543  
     480A      1.068107   481A      1.093823   482A      1.093941  
     483A      1.100586   484A      1.100882   485A      1.101175  
     486A      1.108457   487A      1.115041   488A      1.117744  
     489A      1.123038   490A      1.123101   491A      1.126505  
     492A      1.136226   493A      1.136330   494A      1.139950  
     495A      1.140730   496A      1.150573   497A      1.159720  
     498A      1.159731   499A      1.167532   500A      1.168227  
     501A      1.168459   502A      1.226867   503A      1.235070  
     504A      1.235176   505A      1.243117   506A      1.245439  
     507A      1.245634   508A      1.261721   509A      1.261860  
     510A      1.266462   511A      1.268446   512A      1.276488  
     513A      1.284621   514A      1.304121   515A      1.309711  
     516A      1.309826   517A      1.327184   518A      1.351055  
     519A      1.360365   520A      1.381956   521A      1.382230  
     522A      1.399415   523A      1.400893   524A      1.403428  
     525A      1.405364   526A      1.405961   527A      1.408274  
     528A      1.422092   529A      1.422249   530A      1.424691  
     531A      1.465504   532A      1.478423   533A      1.482590  
     534A      1.493723   535A      1.494398   536A      1.496513  
     537A      1.497793   538A      1.503422   539A      1.507977  
     540A      1.518973   541A      1.563058   542A      1.565321  
     543A      1.573952   544A      1.577381   545A      1.586261  
     546A      1.589603   547A      1.598817   548A      1.600738  
     549A      1.602086   550A      1.607545   551A      1.620776  
     552A      1.621675   553A      1.623104   554A      1.629554  
     555A      1.630961   556A      1.642103   557A      1.662112  
     558A      1.670065   559A      1.682337   560A      1.684059  
     561A      1.685175   562A      1.687032   563A      1.689107  
     564A      1.690470   565A      1.690976   566A      1.694730  
     567A      1.698247   568A      1.702020   569A      1.704883  
     570A      1.714021   571A      1.724260   572A      1.729774  
     573A      1.731414   574A      1.731747   575A      1.732464  
     576A      1.736560   577A      1.743098   578A      1.745851  
     579A      1.748193   580A      1.748916   581A      1.750909  
     582A      1.757284   583A      1.759030   584A      1.764635  
     585A      1.765061   586A      1.768127   587A      1.769838  
     588A      1.771278   589A      1.773317   590A      1.773877  
     591A      1.781372   592A      1.783821   593A      1.785237  
     594A      1.787302   595A      1.789352   596A      1.791776  
     597A      1.798075   598A      1.800497   599A      1.800702  
     600A      1.811439   601A      1.813648   602A      1.817360  
     603A      1.819233   604A      1.820779   605A      1.821963  
     606A      1.823854   607A      1.824825   608A      1.827134  
     609A      1.828568   610A      1.835817   611A      1.837251  
     612A      1.844444   613A      1.845544   614A      1.846253  
[...]
     802A      1.677036   803A      1.677091   804A      1.682761  
     805A      1.686746   806A      1.686787   807A      1.696103  
     808A      1.697078   809A      1.699103   810A      1.699388  
     811A      1.700820   812A      1.704793   813A      1.704886  
     814A      1.713031   815A      1.716060   816A      1.716337  
     817A      1.741737   818A      1.751447   819A      1.758087  
     820A      1.760504   821A      1.760533   822A      1.761106  
     823A      1.761770   824A      1.776798   825A      1.776862  
     826A      1.791594   827A      1.791620   828A      1.797695  
     829A      1.809104   830A      1.814127   831A      1.816231  
     832A      1.816790   833A      1.818257   834A      1.820077  
     835A      1.824585   836A      1.824863   837A      1.828493  
     838A      1.832019   839A      1.833322   840A      1.840433  
     841A      1.842359   842A      1.842447   843A      1.844630  
     844A      1.859724   845A      1.861337   846A      1.861756  
     847A      1.862125   848A      1.864250   849A      1.868549  
     850A      1.869394   851A      1.873512   852A      1.880263  
     853A      1.880368   854A      1.895725   855A      1.896550  
     856A      1.898821   857A      1.899752   858A      1.900781  
     859A      1.903155   860A      1.903221   861A      1.908951  
     862A      1.909201   863A      1.915267   864A      1.916302  
     865A      1.916951   866A      1.917820   867A      1.917931  
     868A      1.919775   869A      1.922215   870A      1.922310  
     871A      1.941076   872A      1.941786   873A      1.942461  
     874A      1.943298   875A      1.944493   876A      1.947208  
     877A      1.947227   878A      1.954787   879A      1.955194  
     880A      1.955656   881A      1.956131   882A      1.958055  
     883A      1.970517   884A      1.983601   885A      1.983795  
     886A      1.990797   887A      1.997220   888A      1.998286  
     889A      1.998871   890A      2.001366   891A      2.007307  
     892A      2.008204   893A      2.012371   894A      2.013025  
     895A      2.019499   896A      2.027914   897A      2.028981  
     898A      2.029397   899A      2.030632   900A      2.030807  
     901A      2.031444   902A      2.031977   903A      2.038892  
     904A      2.041782   905A      2.048467   906A      2.051619  
     907A      2.052746   908A      2.052941   909A      2.058138  
     910A      2.058292   911A      2.060453   912A      2.060953  
     913A      2.064271   914A      2.069750   915A      2.071068  
     916A      2.071776   917A      2.072109   918A      2.076515  
     919A      2.077451   920A      2.081766   921A      2.084821  
     922A      2.086508   923A      2.088625   924A      2.092086  
     925A      2.094729   926A      2.095042   927A      2.096969  
     928A      2.097427   929A      2.100746   930A      2.101172  
     931A      2.108484   932A      2.108780   933A      2.109046  
     934A      2.110561   935A      2.111071   936A      2.112852  
     937A      2.115138   938A      2.117233   939A      2.119278  
     940A      2.119550   941A      2.121057   942A      2.121896  
     943A      2.125678   944A      2.127069   945A      2.128376  
     946A      2.133625   947A      2.134807   948A      2.135865  
     949A      2.135964   950A      2.141493   951A      2.143253  
     952A      2.143342   953A      2.155842   954A      2.156541  
     955A      2.160249   956A      2.160616   957A      2.162986  
     958A      2.164162   959A      2.171409   960A      2.178446  
     961A      2.178553   962A      2.183989   963A      2.190737  
     964A      2.190842   965A      2.192225   966A      2.192560  
     967A      2.194182   968A      2.195857   969A      2.196011  
     970A      2.200439   971A      2.203469   972A      2.217216  
     973A      2.219704   974A      2.220375   975A      2.220699  
     976A      2.228274   977A      2.228679   978A      2.228825  
     979A      2.229172   980A      2.243303   981A      2.243582  
     982A      2.244191   983A      2.244487   984A      2.247205  
     985A      2.249186   986A      2.260231   987A      2.260375  
     988A      2.270138   989A      2.270224   990A      2.271441  
     991A      2.272181   992A      2.272234   993A      2.281066  
     994A      2.281859   995A      2.300357   996A      2.302612  
     997A      2.306703   998A      2.310870   999A      2.312514  
    1000A      2.321665  1001A      2.322616  1002A      2.325002  
    1003A      2.331047  1004A      2.331165  1005A      2.331264  
    1006A      2.334047  1007A      2.348260  1008A      2.349824  
    1009A      2.351232  1010A      2.352136  1011A      2.352553  
    1012A      2.354390  1013A      2.366628  1014A      2.366880  
    1015A      2.375265  1016A      2.380255  1017A      2.392931  
    1018A      2.415957  1019A      2.424046  1020A      2.424435  
    1021A      2.424473  1022A      2.436478  1023A      2.441166  
    1024A      2.441251  1025A      2.449749  1026A      2.452936  
    1027A      2.460908  1028A      2.470315  1029A      2.472026  
    1030A      2.473502  1031A      2.473844  1032A      2.479587  
    1033A      2.485763  1034A      2.485803  1035A      2.502342  
    1036A      2.516309  1037A      2.519614  1038A      2.529897  
    1039A      2.530405  1040A      2.543598  1041A      2.545544  
    1042A      2.546020  1043A      2.554749  1044A      2.554811  
    1045A      2.554908  1046A      2.559896  1047A      2.559915  
    1048A      2.573019  1049A      2.573058  1050A      2.574877  
    1051A      2.575389  1052A      2.581369  1053A      2.586384  
    1054A      2.586693  1055A      2.587445  1056A      2.589875  
    1057A      2.591449  1058A      2.606325  1059A      2.623672  
    1060A      2.623700  1061A      2.625191  1062A      2.631808  
    1063A      2.632298  1064A      2.636970  1065A      2.641267  
    1066A      2.641449  1067A      2.648806  1068A      2.650965  
    1069A      2.651943  1070A      2.654051  1071A      2.657162  
    1072A      2.662546  1073A      2.677480  1074A      2.682575  
    1075A      2.683475  1076A      2.684072  1077A      2.687333  
    1078A      2.702114  1079A      2.702524  1080A      2.713056  
    1081A      2.713065  1082A      2.718765  1083A      2.718778  
    1084A      2.722885  1085A      2.723116  1086A      2.737632  
    1087A      2.741194  1088A      2.749529  1089A      2.752969  
    1090A      2.753718  1091A      2.768892  1092A      2.777477  
    1093A      2.794901  1094A      2.795228  1095A      2.811593  
    1096A      2.816650  1097A      2.827169  1098A      2.828149  
    1099A      2.840290  1100A      2.852568  1101A      2.852848  
    1102A      2.856071  1103A      2.858366  1104A      2.859647  
    1105A      2.860491  1106A      2.867643  1107A      2.881265  
    1108A      2.893552  1109A      2.912478  1110A      2.917662  
    1111A      2.918593  1112A      2.923850  1113A      2.925502  
    1114A      2.933735  1115A      2.934043  1116A      2.949758  
    1117A      2.949796  1118A      2.953641  1119A      2.963028  
    1120A      2.975791  1121A      3.003151  1122A      3.007774  
    1123A      3.008339  1124A      3.011901  1125A      3.017312  
    1126A      3.029628  1127A      3.044364  1128A      3.064272  
    1129A      3.064423  1130A      3.070962  1131A      3.071053  
    1132A      3.109663  1133A      3.110295  1134A      3.128776  
    1135A      3.129732  1136A      3.130257  1137A      3.137487  
    1138A      3.143186  1139A      3.146677  1140A      3.146761  
    1141A      3.147016  1142A      3.149395  1143A      3.149500  
    1144A      3.158372  1145A      3.158849  1146A      3.166134  
    1147A      3.166604  1148A      3.191781  1149A      3.211223  
    1150A      3.218973  1151A      3.237885  1152A      3.273918  
    1153A      3.277031  1154A      3.277379  1155A      3.282173  
    1156A      3.282413  1157A      3.286744  1158A      3.311147  
    1159A      3.323202  1160A      3.410888  1161A      3.416569  
    1162A      3.417197  1163A      3.443232  1164A      3.481803  
    1165A      3.484197  1166A      3.524353  1167A      3.549686  
    1168A      3.571846  1169A      3.577365  1170A      3.579338  
    1171A      3.593965  1172A      3.626564  1173A      3.628609  
    1174A      3.644704  1175A      3.663057  1176A      3.669489  
    1177A      3.757307  1178A      3.769267  1179A      3.782784  
    1180A      3.784029  1181A      3.815735  1182A      3.867951  
    1183A      3.870814  1184A      3.870899  1185A      3.913279  
    1186A      3.913415  1187A      3.962852  1188A      3.976949  
    1189A      4.010924  1190A      4.033249  1191A      4.046590  
    1192A      4.081293  1193A      4.206471  1194A      4.210312  
    1195A      4.349940  1196A      4.361671  1197A      4.488173  
    1198A      4.740129  1199A      4.777448  1200A      4.831194  
    1201A      4.846720  1202A      4.936182  1203A      5.051899  
    1204A      5.057228  1205A      5.066520  1206A      5.110991  
    1207A      5.137745  1208A      5.392601  1209A      5.422409  
    1210A      5.732656  1211A      5.758216  1212A      6.067226  
    1213A     18.198103  1214A     18.455297  1215A     18.472111  
    1216A     18.560380  1217A     18.831004  1218A     25.338946  
    1219A     25.374857  

    Final Occupation by Irrep:
              A 
    DOCC [   171 ]
    NA   [   171 ]
    NB   [   171 ]

  @DF-RHF Final Energy: -2055.89202179603035

   => Energetics <=

    Nuclear Repulsion Energy =           6452.5568002797781446
    One-Electron Energy =              -15636.4385095922189066
    Two-Electron Energy =                7127.9896875164113226
    Total Energy =                      -2055.8920217960303489

Computation Completed


Properties will be evaluated at   0.000000,   0.000000,   0.000000 [a0]

Properties computed using the SCF density matrix


 Multipole Moments:

 ------------------------------------------------------------------------------------
     Multipole            Electronic (a.u.)      Nuclear  (a.u.)        Total (a.u.)
 ------------------------------------------------------------------------------------

 L = 1.  Multiply by 2.5417464519 to convert [e a0] to [Debye]
 Dipole X            :          0.0001236           -0.0000085            0.0001151
 Dipole Y            :        117.1660596         -117.1648546            0.0012050
 Dipole Z            :       -591.8583518          591.8634155            0.0050637
 Magnitude           :                                                    0.0052064

 ------------------------------------------------------------------------------------

*** tstop() called on d-18-8-4 at Mon Jan 22 22:33:02 2024
Module time:
	user time   =    2680.18 seconds =      44.67 minutes
	system time =      67.69 seconds =       1.13 minutes
	total time  =        309 seconds =       5.15 minutes
Total time:
	user time   =    8275.77 seconds =     137.93 minutes
	system time =     177.35 seconds =       2.96 minutes
	total time  =        972 seconds =      16.20 minutes
  Constructing Basis Sets for SAPT...

   => Loading Basis Set <=

    Name: (JUN-CC-PVDZ AUX)
    Role: RIFIT
    Keyword: DF_BASIS_SAPT
    atoms 1-2, 4-5, 10, 17-70 entry C          line   100 file /home/gridsan/tfroembgen/.conda/envs/psi4test/share/psi4/basis/jun-cc-pvdz-ri.gbs 
    atoms 3, 6                entry N          line   144 file /home/gridsan/tfroembgen/.conda/envs/psi4test/share/psi4/basis/jun-cc-pvdz-ri.gbs 
    atoms 7-9, 11-16, 71-88   entry H          line    30 file /home/gridsan/tfroembgen/.conda/envs/psi4test/share/psi4/basis/jun-cc-pvdz-ri.gbs 

   => Loading Basis Set <=

    Name: (JUN-CC-PVDZ AUX)
    Role: JKFIT
    Keyword: DF_BASIS_ELST
    atoms 1-2, 4-5, 10, 17-70 entry C          line   146 file /home/gridsan/tfroembgen/.conda/envs/psi4test/share/psi4/basis/jun-cc-pvdz-jkfit.gbs 
    atoms 3, 6                entry N          line   202 file /home/gridsan/tfroembgen/.conda/envs/psi4test/share/psi4/basis/jun-cc-pvdz-jkfit.gbs 
    atoms 7-9, 11-16, 71-88   entry H          line    70 file /home/gridsan/tfroembgen/.conda/envs/psi4test/share/psi4/basis/jun-cc-pvdz-jkfit.gbs 


  //>>>>>>>>>>>>>>>>>>>>>>>>>>>>>>>>>>>//
  //               SSAPT0              //
  //<<<<<<<<<<<<<<<<<<<<<<<<<<<<<<<<<<<//


*** tstart() called on d-18-8-4
*** at Mon Jan 22 22:33:03 2024

        SAPT0  
    Ed Hohenstein
     6 June 2009

      Orbital Information
  --------------------------
    NSO        =      1233
    NMO        =      1219
    NRI        =      4343
    NRI (Elst) =      5440
    NOCC A     =        26
    NOCC B     =       171
    FOCC A     =         7
    FOCC B     =        54
    NVIR A     =      1193
    NVIR B     =      1048

    Elst10,r            =    -0.007370651556 [Eh]
    Exch10              =     0.000000077899 [Eh]
    Exch10 (S^2)        =     0.000000077899 [Eh]

    Iter     Energy [mEh]          dE [mEh]         Residual      Time [s]
       1      -0.02133693       0.021336933       1.373789040           545
       2      -0.02027504      -0.001061897       0.363888985           694
       3      -0.02232649       0.002051449       0.102222003           717
       4      -0.02245714       0.000130651       0.046692450           736
       5      -0.02236208      -0.000095056       0.014799452           754
       6      -0.02235994      -0.000002144       0.004556896           769
       7      -0.02236619       0.000006255       0.001523602           784
       8      -0.02236762       0.000001425       0.000381960           799
       9      -0.02236738      -0.000000239       0.000135618           813
      10      -0.02236723      -0.000000147       0.000035396           828
      11      -0.02236724       0.000000010       0.000009812           843
      12      -0.02236725       0.000000008       0.000003303           858
      13      -0.02236725       0.000000001       0.000001106           872
      14      -0.02236725      -0.000000001       0.000000233           888

    CHF Iterations converged


    Iter     Energy [mEh]          dE [mEh]         Residual      Time [s]
       1      -3.46161967       3.461619673      30.374724569           313
       2      -2.37103251      -1.090587167       3.873355092           688
       3      -2.37431475       0.003282247       1.425311593          1148
       4      -2.43206238       0.057747631       0.359235799          1464
       5      -2.43520040       0.003138012       0.127914423          1594
       6      -2.43339041      -0.001809988       0.075250111          1618
       7      -2.43285524      -0.000535172       0.037618004          1679
       8      -2.43325603       0.000400794       0.024418534          1700
       9      -2.43342086       0.000164835       0.015137839          1721
      10      -2.43333262      -0.000088241       0.010026472          1741
      11      -2.43327460      -0.000058021       0.003998797          1765
      12      -2.43328821       0.000013603       0.001689517          1807
      13      -2.43329635       0.000008141       0.000694674          1848
      14      -2.43329613      -0.000000220       0.000322844          1874
      15      -2.43329431      -0.000001820       0.000172804          1897
      16      -2.43329388      -0.000000431       0.000077087          1929
      17      -2.43329444       0.000000564       0.000032976          1966
      18      -2.43329448       0.000000038       0.000016140          2080
      19      -2.43329440      -0.000000081       0.000008225          2374
      20      -2.43329438      -0.000000015       0.000002947          2729
      21      -2.43329439       0.000000010       0.000001255          3084
      22      -2.43329440       0.000000005       0.000000477          3421

    CHF Iterations converged

    Ind20,r (A<-B)      =    -0.000022367247 [Eh]
    Ind20,r (B<-A)      =    -0.002433294396 [Eh]
    Ind20,r             =    -0.002455661644 [Eh]
    Exch-Ind20,r (A<-B) =     0.000000041926 [Eh]
    Exch-Ind20,r (B<-A) =     0.000000530734 [Eh]
    Exch-Ind20,r        =     0.000000572660 [Eh]
    Disp20              =    -0.001320929845 [Eh]
    Disp20 (SS)         =    -0.000660464922 [Eh]
    Disp20 (OS)         =    -0.000660464922 [Eh]
    Exch-Disp20         =     0.000000211112 [Eh]
    Exch-Disp20 (SS)    =     0.000000158658 [Eh]
    Exch-Disp20 (OS)    =     0.000000052454 [Eh]

    SAPT Results 
  --------------------------------------------------------------------------------------------------------
    Electrostatics                 -7.37065156 [mEh]      -4.62515368 [kcal/mol]     -19.35164299 [kJ/mol]
      Elst10,r                     -7.37065156 [mEh]      -4.62515368 [kcal/mol]     -19.35164299 [kJ/mol]

    Exchange                        0.00007790 [mEh]       0.00004888 [kcal/mol]       0.00020452 [kJ/mol]
      Exch10                        0.00007790 [mEh]       0.00004888 [kcal/mol]       0.00020452 [kJ/mol]
      Exch10(S^2)                   0.00007790 [mEh]       0.00004888 [kcal/mol]       0.00020452 [kJ/mol]

    Induction                      -2.50793584 [mEh]      -1.57375350 [kcal/mol]      -6.58458464 [kJ/mol]
      Ind20,r                      -2.45566164 [mEh]      -1.54095095 [kcal/mol]      -6.44733876 [kJ/mol]
      Exch-Ind20,r                  0.00057266 [mEh]       0.00035935 [kcal/mol]       0.00150352 [kJ/mol]
      delta HF,r (2)               -0.05284686 [mEh]      -0.03316190 [kcal/mol]      -0.13874940 [kJ/mol]

    Dispersion                     -1.32071873 [mEh]      -0.82876352 [kcal/mol]      -3.46754656 [kJ/mol]
      Disp20                       -1.32092984 [mEh]      -0.82889599 [kcal/mol]      -3.46810083 [kJ/mol]
      Exch-Disp20                   0.00021111 [mEh]       0.00013247 [kcal/mol]       0.00055427 [kJ/mol]
      Disp20 (SS)                  -0.66046492 [mEh]      -0.41444800 [kcal/mol]      -1.73405042 [kJ/mol]
      Disp20 (OS)                  -0.66046492 [mEh]      -0.41444800 [kcal/mol]      -1.73405042 [kJ/mol]
      Exch-Disp20 (SS)              0.00015866 [mEh]       0.00009956 [kcal/mol]       0.00041656 [kJ/mol]
      Exch-Disp20 (OS)              0.00005245 [mEh]       0.00003292 [kcal/mol]       0.00013772 [kJ/mol]

  Total HF                         -9.87850950 [mEh]      -6.19885830 [kcal/mol]     -25.93602311 [kJ/mol]
  Total SAPT0                     -11.19922823 [mEh]      -7.02762181 [kcal/mol]     -29.40356967 [kJ/mol]

  Special recipe for scaled SAPT0 (see Manual):
    Electrostatics sSAPT0          -7.37065156 [mEh]      -4.62515368 [kcal/mol]     -19.35164299 [kJ/mol]
    Exchange sSAPT0                 0.00007790 [mEh]       0.00004888 [kcal/mol]       0.00020452 [kJ/mol]
    Induction sSAPT0               -2.50793584 [mEh]      -1.57375350 [kcal/mol]      -6.58458464 [kJ/mol]
    Dispersion sSAPT0              -1.32071873 [mEh]      -0.82876352 [kcal/mol]      -3.46754656 [kJ/mol]
  Total sSAPT0                    -11.19922823 [mEh]      -7.02762181 [kcal/mol]     -29.40356967 [kJ/mol]
  --------------------------------------------------------------------------------------------------------

*** tstop() called on d-18-8-4 at Tue Jan 23 00:20:02 2024
Module time:
	user time   =    8718.84 seconds =     145.31 minutes
	system time =     960.19 seconds =      16.00 minutes
	total time  =       6419 seconds =     106.98 minutes
Total time:
	user time   =   16996.08 seconds =     283.27 minutes
	system time =    1137.57 seconds =      18.96 minutes
	total time  =       7392 seconds =     123.20 minutes

    Psi4 stopped on: Tuesday, 23 January 2024 12:20AM
    Psi4 wall time for execution: 2:03:13.13

*** Psi4 exiting successfully. Buy a developer a beer!
