
    -----------------------------------------------------------------------
          Psi4: An Open-Source Ab Initio Electronic Structure Package
                               Psi4 1.9 release

                         Git: Rev {} zzzzzzz 


    D. G. A. Smith, L. A. Burns, A. C. Simmonett, R. M. Parrish,
    M. C. Schieber, R. Galvelis, P. Kraus, H. Kruse, R. Di Remigio,
    A. Alenaizan, A. M. James, S. Lehtola, J. P. Misiewicz, M. Scheurer,
    R. A. Shaw, J. B. Schriber, Y. Xie, Z. L. Glick, D. A. Sirianni,
    J. S. O'Brien, J. M. Waldrop, A. Kumar, E. G. Hohenstein,
    B. P. Pritchard, B. R. Brooks, H. F. Schaefer III, A. Yu. Sokolov,
    K. Patkowski, A. E. DePrince III, U. Bozkaya, R. A. King,
    F. A. Evangelista, J. M. Turney, T. D. Crawford, C. D. Sherrill,
    J. Chem. Phys. 152(18) 184108 (2020). https://doi.org/10.1063/5.0006002

                            Additional Code Authors
    E. T. Seidl, C. L. Janssen, E. F. Valeev, M. L. Leininger,
    J. F. Gonthier, R. M. Richard, H. R. McAlexander, M. Saitow, X. Wang,
    P. Verma, M. H. Lechner, A. Jiang, S. Behnle, A. G. Heide,
    M. F. Herbst, and D. L. Poole

             Previous Authors, Complete List of Code Contributors,
                       and Citations for Specific Modules
    https://github.com/psi4/psi4/blob/master/codemeta.json
    https://github.com/psi4/psi4/graphs/contributors
    http://psicode.org/psi4manual/master/introduction.html#citing-psifour

    -----------------------------------------------------------------------


    Psi4 started on: Tuesday, 30 January 2024 06:27PM

    Process ID: 87771
    Host:       n2cn1115.ab2021.local
    PSIDATADIR: /opt/software/pc2/EB-SW/software/PSI4/1.9-foss-2022a/share/psi4
    Memory:     500.0 MiB
    Threads:    16
    
  ==> Input File <==

--------------------------------------------------------------------------
memory 80 GB # how much memory is available ! Depends on the nodes/cores !

molecule dimer {
# monomer A
+1 1    # Charge and multiplicity
C  0.680067 -1.215929 4.208042
C -0.680504 -1.215545 4.206014
N -1.085635  0.102779 4.205016
C  0.000108  0.884180 4.201740
C -2.477365  0.570758 4.155610
N  1.085222  0.102779 4.205016
H  1.385146 -2.033368 4.215870
H -1.385302 -2.033214 4.206204
H -0.000009  1.965269 4.199993
C  2.478117  0.567877 4.221908
H  2.490592  1.658130 4.194563
H  2.967028  0.220701 5.135354
H  3.001428  0.176405 3.346425
H -2.857359  0.490799 3.133539
H -3.082679 -0.042306 4.825694
H -2.518128  1.610706 4.482594
--
# monomer B
0 1     # Charge and multiplicity
C   -3.66844126402057      7.80375217008252      0.00190004133558
C   -4.84759871934653      7.13124183134024     -0.00046653359696
C   -4.89495929917518      5.69633040353158     -0.00103944469517
C   -3.65374067877320      4.98073034095895      0.00662099703436
C   -2.40942512149445      7.11398103667468      0.00209438359570
C   -2.42547734410473      5.68112195090346     -0.00491050527438
C   -1.19474401643570      7.78614419430947      0.00356656413763
C   0.03795902893699      7.09942164575698      0.00139585983271
C   0.03033258741920      5.66948955970466     -0.00408752508301
C   -1.20098450790502      4.96927034791531      0.00488220885047
C   1.27795782581485      7.77285944319479      0.00277170839332
C   2.48535808472416      7.08769688523756      0.00049722048857
C   2.48612868491717      5.65477081024076     -0.00644052849921
C   1.25408291964399      4.95607811366431      0.00518741308898
C   3.75171459140595      7.76391215098033      0.00062407186893
C   4.92356605618520      7.07878077698995     -0.00143240883900
C   4.95560727132542      5.64344746336949     -0.00159282164606
C   3.70680153420475      4.94121020833308      0.00349873852374
H   -3.65852113775815      8.89082741913536      0.00358502958574
H   -1.18921332975660      8.87412108735996      0.00753844057883
H   1.28429423888630      8.86083343548850      0.00693053253426
H   3.75354208679975      8.85103527897216      0.00214659618464
H   5.86995870320703      7.61379483465560     -0.00235777588134
H   -5.78823170750226      7.67630221293400     -0.00202638095293
C   -6.09197395869619      4.99326001364347     -0.00291168518608
C   -6.12866148031747      3.58258016879823     -0.00171050815740
C   -3.66457974004527      3.56418217974434     -0.00463560277484
C   -4.89429820469869      2.86108077590057      0.00453338221034
C   -2.43733499489796      2.84761165708481      0.00719617576166
C   -1.20922785759670      3.54788693497833     -0.00648285103018
C   1.24714157216223      3.53468075142962     -0.00729145743546
C   0.01517603956900      2.83311183930540      0.00439272578912
C   2.46764517244071      2.82128997725533      0.00449278391269
C   3.70254947457969      3.52466015442405     -0.00899517692985
C   6.14498038638375      4.92757236613191     -0.00282626685777
C   6.16658835886151      3.51658447594213     -0.00065971342101
C   4.92460995845939      2.80840792535402      0.00587903281610
H   7.08990550964105      5.46688776622306     -0.00658814770723
H   -7.03104175110130      5.54268795285765     -0.00714490013730
C   -7.33969804112295      2.85841153457957     -0.00333767559888
C   -7.36488195805880      1.47032337158330     -0.00157213747140
C   -4.90350460894690      1.44442681216000     -0.00628840166334
C   -6.13225715261081      0.73993935705394      0.00600164231964
C   -3.67687480051673      0.72669714267312      0.00433931473643
C   -2.44565658606518      1.42964113326212     -0.00597039546461
C   -1.22360068130162      0.71532450163492      0.00545886906656
C   0.00763786931376      1.41738314923765      0.00392452278437
C   1.23121980774686      0.70211669058719     -0.01490206287210
C   2.46082110053113      1.40329203612573      0.00460244601878
C   3.68443025419614      0.68719842821222      0.00377365974158
C   4.91870890153864      1.39173456118907     -0.00862816189375
C   7.36980207796101      2.77948220318441     -0.00242013321349
C   7.38016266612146      1.39121750785509     -0.00087345036788
C   6.13979953912259      0.67411862320065      0.00545489144369
H   -8.27919079934664      3.40711804112415     -0.00763522772059
H   8.31511347147953      3.31811809662368     -0.00663070901292
C   -8.59175593758115      0.72483255304480     -0.00123170985383
C   -8.59902460370342     -0.63263980622873      0.00089141472904
C   -6.13981313911873     -0.67413663715361     -0.00609792660607
C   -7.38018411213749     -1.39126618958160      0.00131813493501
C   -4.91868448025621     -1.39175501803000      0.00624257154343
C   -3.68443829568458     -0.68723731573599     -0.00478966852105
C   -2.46081704024768     -1.40334517882457      0.00575341766833
C   -1.23116201232071     -0.70217386488055     -0.00636696112346
C   -0.00756962538737     -1.41741884941102      0.00108956317991
C   1.22364771588843     -0.71527537726392      0.01109518512883
C   2.44567064933149     -1.42964328900682     -0.00065482763106
C   3.67686670284649     -0.72670743155550     -0.00479541202602
C   6.13224884641929     -0.73997883984993     -0.00632338623858
C   4.90351914550401     -1.44445752054090      0.00751768830159
C   8.59901484869081      0.63260386666793     -0.00101133422380
C   8.59174548810050     -0.72485086719319      0.00072504603735
C   7.36486276438985     -1.47033266560598      0.00049486934466
H   -9.52830597181814      1.27684744919284     -0.00270163681798
H   9.54141097460619      1.17457248844457     -0.00206336648518
C   -7.36983790976868     -2.77954514593389      0.00312634335708
C   -4.92459910905015     -2.80843725734101     -0.00460528907921
C   -6.16662249566744     -3.51665219282533      0.00169655107992
C   -3.70251035970491     -3.52468154912026      0.00571878010666
C   -2.46764698511392     -2.82132596280400     -0.00632585824990
C   -0.01513347410770     -2.83314164539971     -0.00604426974092
C   -1.24712184122656     -3.53473217556300      0.00551968366725
C   1.20924506964357     -3.54791467864352      0.00805871345849
C   2.43733602215464     -2.84764173817541     -0.00608104485234
C   4.89430234377080     -2.86112296828604     -0.00526030478103
C   3.66461525504104     -3.56421984553201      0.00761911515957
C   6.12863901474565     -3.58258405771778      0.00096495711699
C   7.33967266469532     -2.85841330737039      0.00248018319869
H   -9.54144911125902     -1.17456346666430      0.00226083090216
H   9.52826186807155     -1.27691907390448      0.00197485379837
H   -8.31516504384864     -3.31814985321231      0.00729857188773
H   8.27915514249207     -3.40714078989363      0.00681973918158
C   -6.14499418870218     -4.92764727278338      0.00302254913999
C   -3.70678334799751     -4.94126171411716     -0.00679841894792
C   -4.95559005800169     -5.64349397349412      0.00116871569699
C   -2.48612132622665     -5.65478557440947      0.00614125209662
C   -1.25405833548005     -4.95612205000132     -0.00503435388927
C   1.20101257386816     -4.96928038819302     -0.00385322963129
C   -0.03033667441341     -5.66952030313900      0.00398997003238
C   3.65375010132847     -4.98074377541453     -0.00309522988330
C   2.42549269587528     -5.68117463552727      0.00628170066869
C   6.09196561781097     -4.99325796338655      0.00325918379042
C   4.89497644461045     -5.69634842095790      0.00202298796027
H   -7.08989238804069     -5.46699984223871      0.00742531082125
H   7.03105520920009     -5.54265853633254      0.00683896355417
C   -4.92354532219813     -7.07882109967734      0.00061394679214
C   -2.48534208823777     -7.08772807792913     -0.00189594564379
C   -3.75168589177895     -7.76394715763627     -0.00170126671874
C   -0.03794895698805     -7.09946487446944     -0.00168022049625
C   -1.27795610040136     -7.77290438466689     -0.00366491325785
C   2.40944432072629     -7.11402201200282     -0.00081701968533
C   1.19474993715296     -7.78618536556242     -0.00296931056689
C   4.84762105249800     -7.13126211057943      0.00168979497423
C   3.66847160587561     -7.80378799294376     -0.00065863938960
H   -5.86994035041618     -7.61383059804164      0.00215798365757
H   5.78824962538815     -7.67633218931421      0.00281691445618
H   -3.75352693944918     -8.85107156923607     -0.00353718114765
H   -1.28430440589466     -8.86087539249706     -0.00809229711623
H   1.18922157469537     -8.87416062058945     -0.00706194725726
H   3.65854661482387     -8.89086063405326     -0.00231318081200

    units angstrom      # Angstroms are the default
    no_reorient         # Geometry fixed, default
    symmetry c1         # C1 symmetry, default
}

set {
    scf_type DF         # Density fitting, faster than exact integrals
    freeze_core True    # Freeze core electrons
    basis jun-cc-pVDZ   # Jun-cc-pVDZ basis set, recommended for sSAPT0 in https://doi.org/10.1063/1.4867135
}

energy('ssapt0')        # Compute sSAPT0 energy, includes also SAPT0
--------------------------------------------------------------------------

  Memory set to  74.506 GiB by Python driver.

Scratch directory: /tmp/
   => Loading Basis Set <=

    Name: JUN-CC-PVDZ
    Role: ORBITAL
    Keyword: BASIS
    atoms 1-2, 4-5, 10, 17-34, 41-53, 56-70, 73-89, 92-104, 109-119, 122-130 entry C          line   164 file /opt/software/pc2/EB-SW/software/PSI4/1.9-foss-2022a/share/psi4/basis/jun-cc-pvdz.gbs 
    atoms 3, 6                                                               entry N          line   198 file /opt/software/pc2/EB-SW/software/PSI4/1.9-foss-2022a/share/psi4/basis/jun-cc-pvdz.gbs 
    atoms 7-9, 11-16, 35-40, 54-55, 71-72, 90-91, 105-108, 120-121, 131-136  entry H          line    36 file /opt/software/pc2/EB-SW/software/PSI4/1.9-foss-2022a/share/psi4/basis/jun-cc-pvdz.gbs 

   => Loading Basis Set <=

    Name: JUN-CC-PVDZ
    Role: ORBITAL
    Keyword: BASIS
    atoms 1-2, 4-5, 10, 17-34, 41-53, 56-70, 73-89, 92-104, 109-119, 122-130 entry C          line   164 file /opt/software/pc2/EB-SW/software/PSI4/1.9-foss-2022a/share/psi4/basis/jun-cc-pvdz.gbs 
    atoms 3, 6                                                               entry N          line   198 file /opt/software/pc2/EB-SW/software/PSI4/1.9-foss-2022a/share/psi4/basis/jun-cc-pvdz.gbs 
    atoms 7-9, 11-16, 35-40, 54-55, 71-72, 90-91, 105-108, 120-121, 131-136  entry H          line    36 file /opt/software/pc2/EB-SW/software/PSI4/1.9-foss-2022a/share/psi4/basis/jun-cc-pvdz.gbs 


  //>>>>>>>>>>>>>>>>>>>>>>>>>>>>>>>>>>>//
  //              Dimer HF             //
  //<<<<<<<<<<<<<<<<<<<<<<<<<<<<<<<<<<<//

   => Libint2 <=

    Primary   basis highest AM E, G, H:  5, 4, 3
    Auxiliary basis highest AM E, G, H:  6, 5, 4
    Onebody   basis highest AM E, G, H:  6, 5, 4
    Solid Harmonics ordering:            gaussian

*** tstart() called on n2cn1115.ab2021.local
*** at Tue Jan 30 18:27:36 2024

   => Loading Basis Set <=

    Name: JUN-CC-PVDZ
    Role: ORBITAL
    Keyword: BASIS
    atoms 1-2, 4-5, 10, 17-34, 41-53, 56-70, 73-89, 92-104, 109-119, 122-130 entry C          line   164 file /opt/software/pc2/EB-SW/software/PSI4/1.9-foss-2022a/share/psi4/basis/jun-cc-pvdz.gbs 
    atoms 3, 6                                                               entry N          line   198 file /opt/software/pc2/EB-SW/software/PSI4/1.9-foss-2022a/share/psi4/basis/jun-cc-pvdz.gbs 
    atoms 7-9, 11-16, 35-40, 54-55, 71-72, 90-91, 105-108, 120-121, 131-136  entry H          line    36 file /opt/software/pc2/EB-SW/software/PSI4/1.9-foss-2022a/share/psi4/basis/jun-cc-pvdz.gbs 


         ---------------------------------------------------------
                                   SCF
               by Justin Turney, Rob Parrish, Andy Simmonett
                          and Daniel G. A. Smith
                              RHF Reference
                       16 Threads,  76293 MiB Core
         ---------------------------------------------------------

  ==> Geometry <==

    Molecular point group: c1
    Full point group: C1

    Geometry (in Angstrom), charge = 1, multiplicity = 1:

       Center              X                  Y                   Z               Mass       
    ------------   -----------------  -----------------  -----------------  -----------------
         C            0.680062820275    -1.215917226251     3.887821331492    12.000000000000
         C           -0.680508179725    -1.215533226251     3.885793331492    12.000000000000
         N           -1.085639179725     0.102790773749     3.884795331492    14.003074004430
         C            0.000103820275     0.884191773749     3.881519331492    12.000000000000
         C           -2.477369179725     0.570769773749     3.835389331492    12.000000000000
         N            1.085217820275     0.102790773749     3.884795331492    14.003074004430
         H            1.385141820275    -2.033356226251     3.895649331492     1.007825032230
         H           -1.385306179725    -2.033202226251     3.885983331492     1.007825032230
         H           -0.000013179725     1.965280773749     3.879772331492     1.007825032230
         C            2.478112820275     0.567888773749     3.901687331492    12.000000000000
         H            2.490587820275     1.658141773750     3.874342331492     1.007825032230
         H            2.967023820275     0.220712773749     4.815133331492     1.007825032230
         H            3.001423820275     0.176416773749     3.026204331492     1.007825032230
         H           -2.857363179725     0.490810773749     2.813318331492     1.007825032230
         H           -3.082683179725    -0.042294226251     4.505473331492     1.007825032230
         H           -2.518132179725     1.610717773749     4.162373331492     1.007825032230
         C           -3.668445443746     7.803763943832    -0.318320627172    12.000000000000
         C           -4.847602899072     7.131253605090    -0.320687202105    12.000000000000
         C           -4.894963478901     5.696342177281    -0.321260113203    12.000000000000
         C           -3.653744858499     4.980742114708    -0.313599671473    12.000000000000
         C           -2.409429301220     7.113992810424    -0.318126284912    12.000000000000
         C           -2.425481523830     5.681133724653    -0.325131173782    12.000000000000
         C           -1.194748196161     7.786155968059    -0.316654104370    12.000000000000
         C            0.037954849212     7.099433419506    -0.318824808675    12.000000000000
         C            0.030328407694     5.669501333454    -0.324308193591    12.000000000000
         C           -1.200988687630     4.969282121665    -0.315338459657    12.000000000000
         C            1.277953646089     7.772871216944    -0.317448960114    12.000000000000
         C            2.485353904999     7.087708658987    -0.319723448019    12.000000000000
         C            2.486124505192     5.654782583990    -0.326661197007    12.000000000000
         C            1.254078739919     4.956089887414    -0.315033255419    12.000000000000
         C            3.751710411681     7.763923924730    -0.319596596639    12.000000000000
         C            4.923561876460     7.078792550739    -0.321653077347    12.000000000000
         C            4.955603091600     5.643459237119    -0.321813490154    12.000000000000
         C            3.706797354479     4.941221982083    -0.316721929984    12.000000000000
         H           -3.658525317484     8.890839192885    -0.316635638922     1.007825032230
         H           -1.189217509482     8.874132861109    -0.312682227929     1.007825032230
         H            1.284290059161     8.860845209238    -0.313290135974     1.007825032230
         H            3.753537907074     8.851047052722    -0.318074072323     1.007825032230
         H            5.869954523482     7.613806608405    -0.322578444389     1.007825032230
         H           -5.788235887228     7.676313986684    -0.322247049461     1.007825032230
         C           -6.091978138422     4.993271787393    -0.323132353694    12.000000000000
         C           -6.128665660043     3.582591942548    -0.321931176665    12.000000000000
         C           -3.664583919771     3.564193953494    -0.324856271283    12.000000000000
         C           -4.894302384424     2.861092549650    -0.315687286297    12.000000000000
         C           -2.437339174623     2.847623430834    -0.313024492746    12.000000000000
         C           -1.209232037322     3.547898708728    -0.326703519538    12.000000000000
         C            1.247137392437     3.534692525179    -0.327512125943    12.000000000000
         C            0.015171859844     2.833123613055    -0.315827942719    12.000000000000
         C            2.467640992715     2.821301751005    -0.315727884595    12.000000000000
         C            3.702545294854     3.524671928174    -0.329215845438    12.000000000000
         C            6.144976206658     4.927584139881    -0.323046935366    12.000000000000
         C            6.166584179136     3.516596249692    -0.320880381929    12.000000000000
         C            4.924605778734     2.808419699104    -0.314341635692    12.000000000000
         H            7.089901329916     5.466899539973    -0.326808816215     1.007825032230
         H           -7.031045930827     5.542699726607    -0.327365568645     1.007825032230
         C           -7.339702220848     2.858423308329    -0.323558344107    12.000000000000
         C           -7.364886137784     1.470335145333    -0.321792805979    12.000000000000
         C           -4.903508788672     1.444438585909    -0.326509070171    12.000000000000
         C           -6.132261332336     0.739951130803    -0.314219026188    12.000000000000
         C           -3.676878980242     0.726708916423    -0.315881353771    12.000000000000
         C           -2.445660765791     1.429652907012    -0.326191063972    12.000000000000
         C           -1.223604861027     0.715336275384    -0.314761799441    12.000000000000
         C            0.007633689588     1.417394922987    -0.316296145723    12.000000000000
         C            1.231215628021     0.702128464337    -0.335122731380    12.000000000000
         C            2.460816920806     1.403303809875    -0.315618222489    12.000000000000
         C            3.684426074471     0.687210201962    -0.316447008766    12.000000000000
         C            4.918704721813     1.391746334939    -0.328848830402    12.000000000000
         C            7.369797898236     2.779493976934    -0.322640801721    12.000000000000
         C            7.380158486396     1.391229281605    -0.321094118876    12.000000000000
         C            6.139795359397     0.674130396950    -0.314765777064    12.000000000000
         H           -8.279194979072     3.407129814874    -0.327855896228     1.007825032230
         H            8.315109291754     3.318129870373    -0.326851377521     1.007825032230
         C           -8.591760117307     0.724844326794    -0.321452378362    12.000000000000
         C           -8.599028783429    -0.632628032479    -0.319329253779    12.000000000000
         C           -6.139817318844    -0.674124863404    -0.326318595114    12.000000000000
         C           -7.380188291863    -1.391254415832    -0.318902533573    12.000000000000
         C           -4.918688659982    -1.391743244281    -0.313978096964    12.000000000000
         C           -3.684442475410    -0.687225541986    -0.325010337029    12.000000000000
         C           -2.460821219973    -1.403333405075    -0.314467250839    12.000000000000
         C           -1.231166192046    -0.702162091131    -0.326587629631    12.000000000000
         C           -0.007573805113    -1.417407075662    -0.319131105328    12.000000000000
         C            1.223643536163    -0.715263603514    -0.309125483379    12.000000000000
         C            2.445666469606    -1.429631515257    -0.320875496139    12.000000000000
         C            3.676862523121    -0.726695657806    -0.325016080534    12.000000000000
         C            6.132244666694    -0.739967066100    -0.326544054746    12.000000000000
         C            4.903514965779    -1.444445746791    -0.312702980206    12.000000000000
         C            8.599010668965     0.632615640417    -0.321232002732    12.000000000000
         C            8.591741308375    -0.724839093444    -0.319495622470    12.000000000000
         C            7.364858584664    -1.470320891856    -0.319725799163    12.000000000000
         H           -9.528310151544     1.276859222942    -0.322922305326     1.007825032230
         H            9.541406794881     1.174584262194    -0.322284034993     1.007825032230
         C           -7.369842089494    -2.779533372184    -0.317094325151    12.000000000000
         C           -4.924603288776    -2.808425483592    -0.324825957587    12.000000000000
         C           -6.166626675393    -3.516640419076    -0.318524117428    12.000000000000
         C           -3.702514539430    -3.524669775371    -0.314501888401    12.000000000000
         C           -2.467651164839    -2.821314189055    -0.326546526758    12.000000000000
         C           -0.015137653833    -2.833129871650    -0.326264938249    12.000000000000
         C           -1.247126020952    -3.534720401814    -0.314700984841    12.000000000000
         C            1.209240889918    -3.547902904894    -0.312161955049    12.000000000000
         C            2.437331842429    -2.847629964426    -0.326301713360    12.000000000000
         C            4.894298164045    -2.861111194537    -0.325480973289    12.000000000000
         C            3.664611075316    -3.564208071783    -0.312601553348    12.000000000000
         C            6.128634835020    -3.582572283968    -0.319255711391    12.000000000000
         C            7.339668484970    -2.858401533621    -0.317740485309    12.000000000000
         H           -9.541453290984    -1.174551692915    -0.317959837606     1.007825032230
         H            9.528257688346    -1.276907300155    -0.318245814709     1.007825032230
         H           -8.315169223574    -3.318138079463    -0.312922096620     1.007825032230
         H            8.279150962767    -3.407129016144    -0.313400929326     1.007825032230
         C           -6.144998368428    -4.927635499034    -0.317198119368    12.000000000000
         C           -3.706787527723    -4.941249940368    -0.327019087456    12.000000000000
         C           -4.955594237727    -5.643482199745    -0.319051952811    12.000000000000
         C           -2.486125505952    -5.654773800660    -0.314079416411    12.000000000000
         C           -1.254062515205    -4.956110276252    -0.325255022397    12.000000000000
         C            1.201008394143    -4.969268614444    -0.324073898139    12.000000000000
         C           -0.030340854139    -5.669508529390    -0.316230698475    12.000000000000
         C            3.653745921603    -4.980732001665    -0.323315898391    12.000000000000
         C            2.425488516150    -5.681162861778    -0.313938967839    12.000000000000
         C            6.091961438086    -4.993246189637    -0.316961484717    12.000000000000
         C            4.894972264885    -5.696336647208    -0.318197680547    12.000000000000
         H           -7.089896567766    -5.466988068489    -0.312795357687     1.007825032230
         H            7.031051029475    -5.542646762583    -0.313381704954     1.007825032230
         C           -4.923549501924    -7.078809325928    -0.319606721716    12.000000000000
         C           -2.485346267963    -7.087716304180    -0.322116614152    12.000000000000
         C           -3.751690071504    -7.763935383887    -0.321921935227    12.000000000000
         C           -0.037953136713    -7.099453100720    -0.321900889004    12.000000000000
         C           -1.277960280127    -7.772892610917    -0.323885581766    12.000000000000
         C            2.409440141001    -7.114010238253    -0.321037688193    12.000000000000
         C            1.194745757428    -7.786173591813    -0.323189979075    12.000000000000
         C            4.847616872773    -7.131250336830    -0.318530873534    12.000000000000
         C            3.668467426150    -7.803776219194    -0.320879307897    12.000000000000
         H           -5.869944530142    -7.613818824292    -0.318062684850     1.007825032230
         H            5.788245445663    -7.676320415565    -0.317403754052     1.007825032230
         H           -3.753531119175    -8.851059795487    -0.323757849655     1.007825032230
         H           -1.284308585620    -8.860863618748    -0.328312965624     1.007825032230
         H            1.189217394970    -8.874148846840    -0.327282615765     1.007825032230
         H            3.658542435098    -8.890848860304    -0.322533849320     1.007825032230

  Running in c1 symmetry.

  Rotational constants: A =      0.00066  B =      0.00066  C =      0.00035 [cm^-1]
  Rotational constants: A =     19.77495  B =     19.64533  C =     10.50436 [MHz]
  Nuclear repulsion = 18253.565668895320414

  Charge       = 1
  Multiplicity = 1
  Electrons    = 652
  Nalpha       = 326
  Nbeta        = 326

  ==> Algorithm <==

  SCF Algorithm Type is DF.
  DIIS enabled.
  MOM disabled.
  Fractional occupation disabled.
  Guess Type is SAD.
  Energy threshold   = 1.00e-08
  Density threshold  = 1.00e-08
  Integral threshold = 1.00e-12

  ==> Primary Basis <==

  Basis Set: JUN-CC-PVDZ
    Blend: JUN-CC-PVDZ
    Number of shells: 923
    Number of basis functions: 2019
    Number of Cartesian functions: 2122
    Spherical Harmonics?: true
    Max angular momentum: 2

   => Loading Basis Set <=

    Name: (JUN-CC-PVDZ AUX)
    Role: JKFIT
    Keyword: DF_BASIS_SCF
    atoms 1-2, 4-5, 10, 17-34, 41-53, 56-70, 73-89, 92-104, 109-119, 122-130 entry C          line   146 file /opt/software/pc2/EB-SW/software/PSI4/1.9-foss-2022a/share/psi4/basis/jun-cc-pvdz-jkfit.gbs 
    atoms 3, 6                                                               entry N          line   202 file /opt/software/pc2/EB-SW/software/PSI4/1.9-foss-2022a/share/psi4/basis/jun-cc-pvdz-jkfit.gbs 
    atoms 7-9, 11-16, 35-40, 54-55, 71-72, 90-91, 105-108, 120-121, 131-136  entry H          line    70 file /opt/software/pc2/EB-SW/software/PSI4/1.9-foss-2022a/share/psi4/basis/jun-cc-pvdz-jkfit.gbs 

  ==> Integral Setup <==

  ==> DiskDFJK: Density-Fitted J/K Matrices <==

    J tasked:                  Yes
    K tasked:                  Yes
    wK tasked:                  No
    OpenMP threads:             16
    Integrals threads:          16
    Memory [MiB]:            57220
    Algorithm:                Disk
    Integral Cache:           SAVE
    Schwarz Cutoff:          1E-12
    Fitting Condition:       1E-10

   => Auxiliary Basis Set <=

  Basis Set: (JUN-CC-PVDZ AUX)
    Blend: JUN-CC-PVDZ-JKFIT
    Number of shells: 3078
    Number of basis functions: 8896
    Number of Cartesian functions: 10198
    Spherical Harmonics?: true
    Max angular momentum: 3

  Minimum eigenvalue in the overlap matrix is 8.3273082461E-11.
  Reciprocal condition number of the overlap matrix is 3.4360440766E-12.
    Using canonical orthogonalization.
  Overall, 39 of 2019 possible MOs eliminated.


  ==> Pre-Iterations <==

  SCF Guess: Superposition of Atomic Densities via on-the-fly atomic UHF (no occupation information).

   -------------------------
    Irrep   Nso     Nmo    
   -------------------------
     A       2019    1980 
   -------------------------
    Total    2019    1980
   -------------------------

  ==> Iterations <==

                           Total Energy        Delta E     RMS |[F,P]|

   @DF-RHF iter SAD: -3967.25247842416366   -3.96725e+03   0.00000e+00 
   @DF-RHF iter   1: -3952.12164551938258    1.51308e+01   7.15671e-04 ADIIS/DIIS
   @DF-RHF iter   2: -3953.50783498092778   -1.38619e+00   2.35448e-04 ADIIS/DIIS
   @DF-RHF iter   3: -3953.63110327399590   -1.23268e-01   1.04160e-04 ADIIS/DIIS
   @DF-RHF iter   4: -3953.65472665928291   -2.36234e-02   4.40046e-05 DIIS
   @DF-RHF iter   5: -3953.65959566395532   -4.86900e-03   1.15136e-05 DIIS
   @DF-RHF iter   6: -3953.66009355388542   -4.97890e-04   4.67352e-06 DIIS
   @DF-RHF iter   7: -3953.66028420860221   -1.90655e-04   2.24525e-06 DIIS
   @DF-RHF iter   8: -3953.66034817137552   -6.39628e-05   1.11873e-06 DIIS
   @DF-RHF iter   9: -3953.66036645966233   -1.82883e-05   3.64109e-07 DIIS
   @DF-RHF iter  10: -3953.66036771799099   -1.25833e-06   1.44217e-07 DIIS
   @DF-RHF iter  11: -3953.66036786910627   -1.51115e-07   6.16695e-08 DIIS
   @DF-RHF iter  12: -3953.66036790194585   -3.28396e-08   3.14845e-08 DIIS
   @DF-RHF iter  13: -3953.66036791073520   -8.78936e-09   1.23886e-08 DIIS
   @DF-RHF iter  14: -3953.66036791164061   -9.05402e-10   6.51490e-09 DIIS
  Energy and wave function converged.


  ==> Post-Iterations <==

    Orbital Energies [Eh]
    ---------------------

    Doubly Occupied:                                                      

       1A    -15.801697     2A    -15.801111     3A    -11.496776  
       4A    -11.427336     5A    -11.425785     6A    -11.417921  
       7A    -11.417039     8A    -11.336691     9A    -11.336197  
      10A    -11.335780    11A    -11.335247    12A    -11.335098  
      13A    -11.334562    14A    -11.334332    15A    -11.334248  
      16A    -11.334118    17A    -11.333746    18A    -11.333620  
      19A    -11.332844    20A    -11.332798    21A    -11.332664  
      22A    -11.332597    23A    -11.332429    24A    -11.331842  
      25A    -11.331667    26A    -11.331585    27A    -11.331432  
      28A    -11.331387    29A    -11.331274    30A    -11.330332  
      31A    -11.330177    32A    -11.328547    33A    -11.328385  
      34A    -11.328271    35A    -11.328161    36A    -11.328031  
      37A    -11.327959    38A    -11.327904    39A    -11.327862  
      40A    -11.327215    41A    -11.327193    42A    -11.326850  
      43A    -11.326686    44A    -11.325658    45A    -11.325573  
      46A    -11.325551    47A    -11.325471    48A    -11.325454  
      49A    -11.325397    50A    -11.325273    51A    -11.324979  
      52A    -11.324931    53A    -11.324669    54A    -11.324593  
      55A    -11.324585    56A    -11.324513    57A    -11.324502  
      58A    -11.324489    59A    -11.324461    60A    -11.324450  
      61A    -11.324307    62A    -11.324192    63A    -11.323989  
      64A    -11.323942    65A    -11.323525    66A    -11.323502  
      67A    -11.323398    68A    -11.323332    69A    -11.323330  
      70A    -11.323283    71A    -11.323162    72A    -11.323155  
      73A    -11.323130    74A    -11.323064    75A    -11.323001  
      76A    -11.322516    77A    -11.322491    78A    -11.322158  
      79A    -11.322154    80A    -11.316076    81A    -11.316051  
      82A    -11.316035    83A    -11.316016    84A    -11.316000  
      85A    -11.315965    86A    -11.315957    87A    -11.315919  
      88A    -11.315354    89A    -11.315318    90A    -11.315063  
      91A    -11.314985    92A    -11.313526    93A    -11.313520  
      94A    -11.313490    95A    -11.313470    96A    -11.312635  
      97A    -11.312620    98A    -11.312049    99A    -11.312048  
     100A    -11.312019   101A    -11.311994   102A    -11.311161  
     103A    -11.311146   104A     -1.544822   105A     -1.400588  
     106A     -1.323834   107A     -1.306516   108A     -1.305980  
     109A     -1.286111   110A     -1.286022   111A     -1.282793  
     112A     -1.265264   113A     -1.260469   114A     -1.255312  
     115A     -1.254865   116A     -1.237548   117A     -1.237538  
     118A     -1.222089   119A     -1.221992   120A     -1.219349  
     121A     -1.208033   122A     -1.208017   123A     -1.205660  
     124A     -1.193738   125A     -1.180938   126A     -1.178963  
     127A     -1.178629   128A     -1.176287   129A     -1.174560  
     130A     -1.156585   131A     -1.153350   132A     -1.153296  
     133A     -1.139901   134A     -1.139871   135A     -1.133249  
     136A     -1.133182   137A     -1.131073   138A     -1.111086  
     139A     -1.111078   140A     -1.104894   141A     -1.101646  
     142A     -1.101576   143A     -1.091764   144A     -1.089098  
     145A     -1.088846   146A     -1.086513   147A     -1.072095  
     148A     -1.070681   149A     -1.067741   150A     -1.066015  
     151A     -1.065947   152A     -1.053419   153A     -1.035891  
     154A     -1.035818   155A     -1.019270   156A     -1.019239  
     157A     -0.989622   158A     -0.972786   159A     -0.972668  
     160A     -0.971984   161A     -0.967745   162A     -0.967706  
     163A     -0.964171   164A     -0.959449   165A     -0.959341  
     166A     -0.956288   167A     -0.956160   168A     -0.954872  
     169A     -0.935116   170A     -0.930270   171A     -0.915504  
     172A     -0.913707   173A     -0.913475   174A     -0.911061  
     175A     -0.908240   176A     -0.898597   177A     -0.898549  
     178A     -0.890389   179A     -0.890345   180A     -0.884557  
     181A     -0.850504   182A     -0.850259   183A     -0.847672  
     184A     -0.846698   185A     -0.846685   186A     -0.846042  
     187A     -0.846038   188A     -0.831700   189A     -0.827227  
     190A     -0.817566   191A     -0.815622   192A     -0.796263  
     193A     -0.791565   194A     -0.791294   195A     -0.789559  
     196A     -0.788986   197A     -0.788798   198A     -0.784082  
     199A     -0.783904   200A     -0.780369   201A     -0.779145  
     202A     -0.779045   203A     -0.762924   204A     -0.762832  
     205A     -0.757562   206A     -0.753918   207A     -0.751609  
     208A     -0.749406   209A     -0.749291   210A     -0.749230  
     211A     -0.745994   212A     -0.745959   213A     -0.743005  
     214A     -0.716573   215A     -0.715302   216A     -0.715117  
     217A     -0.714410   218A     -0.714406   219A     -0.712644  
     220A     -0.706187   221A     -0.705990   222A     -0.703651  
     223A     -0.702329   224A     -0.700604   225A     -0.700488  
     226A     -0.697839   227A     -0.694076   228A     -0.693181  
     229A     -0.689510   230A     -0.684194   231A     -0.677682  
     232A     -0.677608   233A     -0.672590   234A     -0.672554  
     235A     -0.667216   236A     -0.666530   237A     -0.664401  
     238A     -0.663863   239A     -0.663688   240A     -0.662489  
     241A     -0.659149   242A     -0.658726   243A     -0.658621  
     244A     -0.658335   245A     -0.655013   246A     -0.654939  
     247A     -0.653503   248A     -0.641437   249A     -0.641374  
     250A     -0.639250   251A     -0.639147   252A     -0.637621  
     253A     -0.636773   254A     -0.633789   255A     -0.633729  
     256A     -0.629867   257A     -0.629700   258A     -0.623265  
     259A     -0.623026   260A     -0.622102   261A     -0.620345  
     262A     -0.618298   263A     -0.614611   264A     -0.609048  
     265A     -0.608315   266A     -0.602913   267A     -0.602351  
     268A     -0.597084   269A     -0.596977   270A     -0.593486  
     271A     -0.591020   272A     -0.590976   273A     -0.581251  
     274A     -0.581072   275A     -0.578829   276A     -0.578772  
     277A     -0.572214   278A     -0.572164   279A     -0.563517  
     280A     -0.561866   281A     -0.560755   282A     -0.560562  
     283A     -0.560233   284A     -0.560205   285A     -0.556700  
     286A     -0.543903   287A     -0.540250   288A     -0.540248  
     289A     -0.537223   290A     -0.534661   291A     -0.530751  
     292A     -0.530674   293A     -0.524068   294A     -0.513203  
     295A     -0.513020   296A     -0.507889   297A     -0.507841  
     298A     -0.507564   299A     -0.496982   300A     -0.496499  
     301A     -0.490282   302A     -0.472446   303A     -0.472410  
     304A     -0.452591   305A     -0.452530   306A     -0.450344  
     307A     -0.447936   308A     -0.447890   309A     -0.418715  
     310A     -0.418664   311A     -0.415394   312A     -0.407128  
     313A     -0.405342   314A     -0.404888   315A     -0.394949  
     316A     -0.394769   317A     -0.373596   318A     -0.368664  
     319A     -0.368628   320A     -0.364442   321A     -0.349764  
     322A     -0.319612   323A     -0.319493   324A     -0.317332  
     325A     -0.268345   326A     -0.268216  

    Virtual:                                                              

     327A     -0.075653   328A     -0.075379   329A     -0.047579  
     330A     -0.031199   331A     -0.031108   332A     -0.030542  
     333A     -0.026328   334A     -0.023495   335A     -0.021069  
     336A     -0.010716   337A     -0.007285   338A     -0.004009  
     339A     -0.003026   340A     -0.002803   341A      0.001272  
     342A      0.001648   343A      0.001706   344A      0.003568  
     345A      0.004067   346A      0.004141   347A      0.004572  
     348A      0.005419   349A      0.007846   350A      0.009096  
     351A      0.013396   352A      0.013678   353A      0.014566  
     354A      0.014652   355A      0.015960   356A      0.017852  
     357A      0.019796   358A      0.020732   359A      0.021338  
     360A      0.022773   361A      0.024746   362A      0.025752  
     363A      0.025808   364A      0.030305   365A      0.033959  
     366A      0.035845   367A      0.037256   368A      0.039239  
     369A      0.041067   370A      0.041752   371A      0.042014  
     372A      0.042442   373A      0.044268   374A      0.045816  
     375A      0.045865   376A      0.046538   377A      0.049812  
     378A      0.050997   379A      0.051390   380A      0.052877  
     381A      0.053038   382A      0.053276   383A      0.053337  
     384A      0.054169   385A      0.054672   386A      0.055511  
     387A      0.058812   388A      0.059097   389A      0.059600  
     390A      0.060242   391A      0.063939   392A      0.067575  
     393A      0.068228   394A      0.068872   395A      0.072002  
     396A      0.073545   397A      0.075884   398A      0.076531  
     399A      0.076648   400A      0.079398   401A      0.080805  
     402A      0.081067   403A      0.082385   404A      0.084157  
     405A      0.084601   406A      0.085610   407A      0.086760  
     408A      0.088521   409A      0.090874   410A      0.091539  
     411A      0.091666   412A      0.094232   413A      0.095236  
     414A      0.096669   415A      0.100466   416A      0.102538  
     417A      0.102797   418A      0.105421   419A      0.106357  
     420A      0.106571   421A      0.107507   422A      0.107750  
     423A      0.108034   424A      0.109472   425A      0.113355  
     426A      0.113775   427A      0.113898   428A      0.114770  
     429A      0.115246   430A      0.116662   431A      0.116775  
     432A      0.117493   433A      0.119605   434A      0.120518  
     435A      0.122919   436A      0.127171   437A      0.127410  
     438A      0.128949   439A      0.130454   440A      0.131772  
     441A      0.132288   442A      0.133723   443A      0.135548  
     444A      0.135617   445A      0.137380   446A      0.138131  
     447A      0.138723   448A      0.139517   449A      0.144491  
     450A      0.144652   451A      0.146175   452A      0.146765  
     453A      0.147248   454A      0.148307   455A      0.149296  
     456A      0.149538   457A      0.150497   458A      0.151545  
     459A      0.152311   460A      0.152942   461A      0.153285  
     462A      0.153851   463A      0.154866   464A      0.155526  
     465A      0.155664   466A      0.156783   467A      0.158115  
     468A      0.159883   469A      0.159965   470A      0.161331  
     471A      0.161875   472A      0.164854   473A      0.166119  
     474A      0.166253   475A      0.167080   476A      0.169837  
     477A      0.170273   478A      0.171132   479A      0.173069  
     480A      0.173587   481A      0.174129   482A      0.174797  
     483A      0.174929   484A      0.175697   485A      0.177253  
     486A      0.178569   487A      0.180544   488A      0.181924  
     489A      0.182366   490A      0.183867   491A      0.184276  
     492A      0.185171   493A      0.187316   494A      0.188672  
     495A      0.190680   496A      0.191378   497A      0.192204  
     498A      0.192252   499A      0.193605   500A      0.194970  
     501A      0.196528   502A      0.197209   503A      0.198975  
     504A      0.199699   505A      0.201854   506A      0.202259  
     507A      0.202825   508A      0.203100   509A      0.203399  
     510A      0.205854   511A      0.206799   512A      0.208489  
     513A      0.208987   514A      0.209365   515A      0.209905  
     516A      0.210257   517A      0.212347   518A      0.212785  
     519A      0.213612   520A      0.214738   521A      0.217343  
     522A      0.219575   523A      0.220230   524A      0.220691  
     525A      0.221416   526A      0.222202   527A      0.223440  
     528A      0.225117   529A      0.226289   530A      0.226549  
     531A      0.228442   532A      0.228873   533A      0.229675  
     534A      0.230134   535A      0.230490   536A      0.232216  
     537A      0.233411   538A      0.234219   539A      0.236408  
     540A      0.236840   541A      0.237283   542A      0.237377  
     543A      0.238181   544A      0.242238   545A      0.242997  
     546A      0.245298   547A      0.246009   548A      0.246685  
     549A      0.246926   550A      0.248791   551A      0.249788  
     552A      0.250605   553A      0.250695   554A      0.253097  
     555A      0.254115   556A      0.254904   557A      0.255612  
     558A      0.256783   559A      0.258132   560A      0.258394  
     561A      0.258776   562A      0.260368   563A      0.261114  
     564A      0.262186   565A      0.262763   566A      0.263701  
     567A      0.264028   568A      0.264464   569A      0.265390  
     570A      0.266981   571A      0.268885   572A      0.269826  
     573A      0.270852   574A      0.271406   575A      0.271829  
     576A      0.272336   577A      0.274123   578A      0.274173  
     579A      0.274953   580A      0.275241   581A      0.276920  
     582A      0.277131   583A      0.278520   584A      0.279174  
     585A      0.281277   586A      0.281866   587A      0.282643  
     588A      0.285515   589A      0.286747   590A      0.287813  
     591A      0.287976   592A      0.288061   593A      0.288810  
     594A      0.289093   595A      0.290238   596A      0.290918  
     597A      0.292423   598A      0.294156   599A      0.295067  
     600A      0.295582   601A      0.298463   602A      0.299397  
     603A      0.300790   604A      0.301285   605A      0.302207  
     606A      0.302734   607A      0.303513   608A      0.304337  
     609A      0.304696   610A      0.305961   611A      0.308877  
     612A      0.309689   613A      0.310351   614A      0.310974  
     615A      0.311288   616A      0.311547   617A      0.311874  
     618A      0.315217   619A      0.316592   620A      0.318217  
     621A      0.319195   622A      0.319406   623A      0.321037  
     624A      0.321534   625A      0.321702   626A      0.322223  
     627A      0.323833   628A      0.324257   629A      0.325421  
     630A      0.326007   631A      0.327630   632A      0.328585  
     633A      0.330938   634A      0.331120   635A      0.331711  
     636A      0.332598   637A      0.333619   638A      0.334406  
     639A      0.334899   640A      0.335648   641A      0.335712  
     642A      0.335952   643A      0.336813   644A      0.337824  
     645A      0.339908   646A      0.340409   647A      0.341362  
     648A      0.342327   649A      0.343219   650A      0.343350  
     651A      0.344172   652A      0.344613   653A      0.344857  
     654A      0.345373   655A      0.346944   656A      0.347978  
     657A      0.349073   658A      0.349693   659A      0.350212  
     660A      0.350293   661A      0.352083   662A      0.352775  
     663A      0.353984   664A      0.355298   665A      0.356201  
     666A      0.356465   667A      0.358241   668A      0.359377  
     669A      0.360065   670A      0.360788   671A      0.361114  
     672A      0.361546   673A      0.364853   674A      0.366095  
     675A      0.366509   676A      0.368837   677A      0.368988  
     678A      0.369345   679A      0.370397   680A      0.371046  
     681A      0.371768   682A      0.372750   683A      0.373755  
     684A      0.374337   685A      0.374851   686A      0.375347  
     687A      0.377342   688A      0.379334   689A      0.380236  
     690A      0.380628   691A      0.380972   692A      0.382543  
     693A      0.384039   694A      0.385472   695A      0.387633  
     696A      0.387988   697A      0.391135   698A      0.391973  
     699A      0.392180   700A      0.392549   701A      0.393692  
     702A      0.394166   703A      0.394820   704A      0.395468  
     705A      0.396159   706A      0.397148   707A      0.398984  
     708A      0.400420   709A      0.401674   710A      0.402255  
     711A      0.403493   712A      0.404695   713A      0.405167  
     714A      0.405843   715A      0.406353   716A      0.407599  
     717A      0.408203   718A      0.409191   719A      0.410542  
     720A      0.410741   721A      0.411300   722A      0.412036  
     723A      0.413674   724A      0.414067   725A      0.414556  
     726A      0.415314   727A      0.415994   728A      0.417619  
     729A      0.418327   730A      0.419697   731A      0.420609  
     732A      0.422873   733A      0.424943   734A      0.425648  
     735A      0.428135   736A      0.429252   737A      0.429899  
     738A      0.431205   739A      0.432114   740A      0.434337  
     741A      0.435244   742A      0.435802   743A      0.436788  
     744A      0.437241   745A      0.438911   746A      0.440488  
     747A      0.441083   748A      0.443230   749A      0.444180  
     750A      0.444870   751A      0.446292   752A      0.446658  
     753A      0.447069   754A      0.448364   755A      0.450926  
     756A      0.452611   757A      0.453266   758A      0.453921  
     759A      0.454556   760A      0.456894   761A      0.457732  
     762A      0.458705   763A      0.459845   764A      0.460384  
     765A      0.461103   766A      0.462327   767A      0.463229  
     768A      0.464351   769A      0.464988   770A      0.469153  
     771A      0.469522   772A      0.470250   773A      0.471062  
     774A      0.473193   775A      0.474985   776A      0.477381  
     777A      0.477722   778A      0.479639   779A      0.481124  
     780A      0.481771   781A      0.483605   782A      0.484864  
     783A      0.491171   784A      0.492787   785A      0.494604  
     786A      0.498087   787A      0.499938   788A      0.501155  
     789A      0.503305   790A      0.503765   791A      0.504283  
     792A      0.505173   793A      0.506319   794A      0.507268  
     795A      0.507654   796A      0.509453   797A      0.510984  
     798A      0.511519   799A      0.512870   800A      0.515077  
     801A      0.515562   802A      0.516429   803A      0.517233  
     804A      0.518684   805A      0.521428   806A      0.522209  
     807A      0.523534   808A      0.525885   809A      0.527671  
     810A      0.529583   811A      0.530162   812A      0.530643  
     813A      0.532289   814A      0.533093   815A      0.534542  
     816A      0.536463   817A      0.539600   818A      0.543324  
     819A      0.543780   820A      0.544082   821A      0.544901  
     822A      0.547386   823A      0.553438   824A      0.554688  
     825A      0.557255   826A      0.558384   827A      0.559681  
     828A      0.560362   829A      0.564785   830A      0.567087  
     831A      0.568389   832A      0.568960   833A      0.575670  
     834A      0.576594   835A      0.582123   836A      0.585437  
     837A      0.586297   838A      0.588774   839A      0.591859  
     840A      0.592098   841A      0.593947   842A      0.596756  
     843A      0.597041   844A      0.597921   845A      0.598796  
     846A      0.603093   847A      0.605244   848A      0.606013  
     849A      0.609630   850A      0.616844   851A      0.620880  
     852A      0.623362   853A      0.624329   854A      0.624487  
     855A      0.627152   856A      0.628233   857A      0.628822  
     858A      0.632850   859A      0.635728   860A      0.636572  
     861A      0.637440   862A      0.639737   863A      0.640807  
     864A      0.641622   865A      0.647424   866A      0.648363  
     867A      0.657684   868A      0.660217   869A      0.667345  
     870A      0.669948   871A      0.672551   872A      0.677335  
     873A      0.677771   874A      0.679332   875A      0.679883  
     876A      0.682074   877A      0.682302   878A      0.685751  
     879A      0.686818   880A      0.690731   881A      0.710387  
     882A      0.712362   883A      0.718836   884A      0.722991  
     885A      0.724633   886A      0.725900   887A      0.726765  
     888A      0.729121   889A      0.730049   890A      0.731584  
     891A      0.734323   892A      0.736462   893A      0.740029  
     894A      0.741311   895A      0.742620   896A      0.745224  
     897A      0.747440   898A      0.749849   899A      0.752289  
     900A      0.753661   901A      0.755917   902A      0.756616  
     903A      0.756809   904A      0.759614   905A      0.760593  
     906A      0.763158   907A      0.764508   908A      0.766907  
     909A      0.767418   910A      0.769557   911A      0.770464  
     912A      0.771863   913A      0.774768   914A      0.775983  
     915A      0.776931   916A      0.777431   917A      0.783543  
     918A      0.786778   919A      0.787609   920A      0.789895  
     921A      0.791666   922A      0.793612   923A      0.794852  
     924A      0.795702   925A      0.797555   926A      0.798126  
     927A      0.799490   928A      0.800420   929A      0.804451  
     930A      0.805519   931A      0.807872   932A      0.808344  
     933A      0.808950   934A      0.811479   935A      0.811713  
     936A      0.815479   937A      0.816867   938A      0.817428  
     939A      0.817970   940A      0.819525   941A      0.823723  
     942A      0.825407   943A      0.826228   944A      0.827746  
     945A      0.828313   946A      0.830017   947A      0.831021  
     948A      0.833508   949A      0.833814   950A      0.834370  
     951A      0.838603   952A      0.839588   953A      0.842751  
     954A      0.844906   955A      0.847077   956A      0.848459  
     957A      0.849677   958A      0.852917   959A      0.853048  
     960A      0.855536   961A      0.855907   962A      0.856910  
     963A      0.858323   964A      0.859094   965A      0.859381  
     966A      0.860478   967A      0.860964   968A      0.862843  
     969A      0.864637   970A      0.866198   971A      0.867821  
     972A      0.870404   973A      0.870853   974A      0.872683  
     975A      0.874257   976A      0.875032   977A      0.875474  
     978A      0.877328   979A      0.879230   980A      0.881548  
     981A      0.882752   982A      0.883964   983A      0.885525  
     984A      0.886801   985A      0.888304   986A      0.889137  
     987A      0.890153   988A      0.892292   989A      0.892770  
     990A      0.894309   991A      0.895816   992A      0.896540  
     993A      0.897795   994A      0.898755   995A      0.902288  
     996A      0.902732   997A      0.904880   998A      0.908153  
     999A      0.908910  1000A      0.910733  1001A      0.913850  
    1002A      0.919976  1003A      0.922192  1004A      0.924301  
    1005A      0.926466  1006A      0.927110  1007A      0.929279  
    1008A      0.930663  1009A      0.932355  1010A      0.933541  
    1011A      0.934351  1012A      0.935857  1013A      0.938796  
    1014A      0.940654  1015A      0.941793  1016A      0.942670  
    1017A      0.943357  1018A      0.945192  1019A      0.946097  
    1020A      0.948473  1021A      0.949762  1022A      0.951030  
    1023A      0.954525  1024A      0.956466  1025A      0.957499  
    1026A      0.959229  1027A      0.961826  1028A      0.962102  
    1029A      0.962358  1030A      0.964348  1031A      0.966710  
    1032A      0.967773  1033A      0.969306  1034A      0.970184  
    1035A      0.972281  1036A      0.975266  1037A      0.975916  
    1038A      0.978257  1039A      0.980509  1040A      0.981393  
    1041A      0.982591  1042A      0.984016  1043A      0.986763  
    1044A      0.986986  1045A      0.987586  1046A      0.987943  
    1047A      0.990385  1048A      0.991620  1049A      0.991728  
    1050A      0.993989  1051A      0.994246  1052A      0.995191  
    1053A      0.997463  1054A      0.998077  1055A      0.999297  
    1056A      1.000325  1057A      1.001147  1058A      1.003269  
    1059A      1.003630  1060A      1.005764  1061A      1.006113  
    1062A      1.006947  1063A      1.007930  1064A      1.008859  
    1065A      1.009416  1066A      1.010514  1067A      1.011082  
    1068A      1.011253  1069A      1.012209  1070A      1.013339  
    1071A      1.013788  1072A      1.014766  1073A      1.016010  
    1074A      1.016721  1075A      1.017138  1076A      1.018928  
    1077A      1.019405  1078A      1.021165  1079A      1.022449  
    1080A      1.023273  1081A      1.024211  1082A      1.024862  
    1083A      1.025439  1084A      1.026759  1085A      1.027527  
    1086A      1.028207  1087A      1.028897  1088A      1.029471  
    1089A      1.029900  1090A      1.030993  1091A      1.033901  
    1092A      1.034423  1093A      1.034978  1094A      1.037105  
    1095A      1.037248  1096A      1.038580  1097A      1.039259  
    1098A      1.040631  1099A      1.041535  1100A      1.042941  
    1101A      1.044195  1102A      1.044795  1103A      1.046592  
    1104A      1.047496  1105A      1.048982  1106A      1.049994  
    1107A      1.050906  1108A      1.055904  1109A      1.056786  
    1110A      1.058630  1111A      1.060969  1112A      1.062442  
    1113A      1.064384  1114A      1.066181  1115A      1.066375  
    1116A      1.067770  1117A      1.069486  1118A      1.070827  
    1119A      1.072235  1120A      1.074696  1121A      1.076266  
    1122A      1.078371  1123A      1.080487  1124A      1.080817  
    1125A      1.083755  1126A      1.084110  1127A      1.086239  
    1128A      1.087064  1129A      1.088585  1130A      1.089202  
    1131A      1.091562  1132A      1.092639  1133A      1.095088  
    1134A      1.095615  1135A      1.095857  1136A      1.098970  
    1137A      1.100127  1138A      1.103751  1139A      1.105718  
    1140A      1.107021  1141A      1.108310  1142A      1.109037  
    1143A      1.110543  1144A      1.111763  1145A      1.114923  
    1146A      1.118138  1147A      1.120305  1148A      1.123751  
    1149A      1.126161  1150A      1.126475  1151A      1.128705  
    1152A      1.131427  1153A      1.131893  1154A      1.133436  
    1155A      1.138185  1156A      1.139155  1157A      1.140009  
    1158A      1.142157  1159A      1.144880  1160A      1.146627  
    1161A      1.148625  1162A      1.150631  1163A      1.152088  
    1164A      1.153998  1165A      1.157706  1166A      1.158584  
    1167A      1.159487  1168A      1.161015  1169A      1.164167  
    1170A      1.166709  1171A      1.166979  1172A      1.168416  
    1173A      1.169724  1174A      1.174043  1175A      1.179063  
    1176A      1.181945  1177A      1.182233  1178A      1.185633  
    1179A      1.187800  1180A      1.190374  1181A      1.191086  
    1182A      1.193362  1183A      1.199318  1184A      1.200179  
    1185A      1.200615  1186A      1.200997  1187A      1.204126  
    1188A      1.205058  1189A      1.206039  1190A      1.210988  
    1191A      1.212421  1192A      1.214421  1193A      1.218140  
    1194A      1.222807  1195A      1.225164  1196A      1.226895  
    1197A      1.229089  1198A      1.230199  1199A      1.231620  
    1200A      1.231844  1201A      1.233462  1202A      1.234423  
    1203A      1.237881  1204A      1.240623  1205A      1.243187  
    1206A      1.243323  1207A      1.244421  1208A      1.245243  
    1209A      1.247233  1210A      1.251135  1211A      1.253533  
    1212A      1.256988  1213A      1.259542  1214A      1.259801  
    1215A      1.260254  1216A      1.261728  1217A      1.263397  
    1218A      1.265810  1219A      1.266457  1220A      1.267431  
    1221A      1.270426  1222A      1.271278  1223A      1.274861  
    1224A      1.275710  1225A      1.276177  1226A      1.276672  
    1227A      1.277409  1228A      1.279350  1229A      1.281426  
    1230A      1.282323  1231A      1.286157  1232A      1.291015  
    1233A      1.291200  1234A      1.293224  1235A      1.301117  
    1236A      1.301336  1237A      1.303054  1238A      1.304167  
    1239A      1.305025  1240A      1.309652  1241A      1.309953  
    1242A      1.310852  1243A      1.311525  1244A      1.314703  
    1245A      1.316862  1246A      1.321688  1247A      1.326250  
    1248A      1.327525  1249A      1.328048  1250A      1.333876  
    1251A      1.336263  1252A      1.337378  1253A      1.337896  
    1254A      1.343467  1255A      1.345593  1256A      1.346285  
    1257A      1.347109  1258A      1.348533  1259A      1.351428  
    1260A      1.352513  1261A      1.354464  1262A      1.354985  
    1263A      1.359049  1264A      1.360425  1265A      1.363607  
    1266A      1.366358  1267A      1.366679  1268A      1.366993  
    1269A      1.367994  1270A      1.370862  1271A      1.373955  
    1272A      1.374933  1273A      1.375503  1274A      1.376096  
    1275A      1.377133  1276A      1.378177  1277A      1.380103  
    1278A      1.384994  1279A      1.385712  1280A      1.386088  
    1281A      1.388226  1282A      1.392244  1283A      1.392818  
    1284A      1.394618  1285A      1.395832  1286A      1.397012  
    1287A      1.406835  1288A      1.407928  1289A      1.409884  
    1290A      1.411969  1291A      1.413332  1292A      1.415308  
    1293A      1.416261  1294A      1.418527  1295A      1.421521  
    1296A      1.422486  1297A      1.424225  1298A      1.426055  
    1299A      1.426734  1300A      1.436378  1301A      1.437712  
    1302A      1.440433  1303A      1.441350  1304A      1.441647  
    1305A      1.443070  1306A      1.455642  1307A      1.456137  
    1308A      1.461261  1309A      1.467418  1310A      1.470944  
    1311A      1.477809  1312A      1.478648  1313A      1.482732  
    1314A      1.488425  1315A      1.488916  1316A      1.509513  
    1317A      1.516332  1318A      1.518987  1319A      1.525981  
    1320A      1.528792  1321A      1.533815  1322A      1.535637  
    1323A      1.537162  1324A      1.538956  1325A      1.540812  
    1326A      1.541381  1327A      1.542093  1328A      1.544502  
    1329A      1.547883  1330A      1.548172  1331A      1.548987  
    1332A      1.550974  1333A      1.551760  1334A      1.554410  
    1335A      1.554560  1336A      1.555036  1337A      1.557209  
    1338A      1.559979  1339A      1.560445  1340A      1.561609  
    1341A      1.562475  1342A      1.564815  1343A      1.565121  
    1344A      1.566717  1345A      1.567606  1346A      1.570458  
    1347A      1.572436  1348A      1.573394  1349A      1.574904  
    1350A      1.575609  1351A      1.576193  1352A      1.576480  
    1353A      1.577216  1354A      1.581323  1355A      1.583119  
    1356A      1.584142  1357A      1.584658  1358A      1.587414  
    1359A      1.589188  1360A      1.590684  1361A      1.592055  
    1362A      1.594121  1363A      1.595837  1364A      1.599012  
    1365A      1.600052  1366A      1.600402  1367A      1.603030  
    1368A      1.603897  1369A      1.604405  1370A      1.605303  
    1371A      1.606726  1372A      1.607059  1373A      1.607623  
    1374A      1.611511  1375A      1.614256  1376A      1.614698  
    1377A      1.615964  1378A      1.619579  1379A      1.625046  
    1380A      1.626187  1381A      1.629333  1382A      1.629910  
    1383A      1.633152  1384A      1.633778  1385A      1.635403  
    1386A      1.635677  1387A      1.639656  1388A      1.641465  
    1389A      1.646304  1390A      1.647208  1391A      1.647782  
    1392A      1.650161  1393A      1.652050  1394A      1.653357  
    1395A      1.656871  1396A      1.657659  1397A      1.657902  
    1398A      1.658248  1399A      1.662251  1400A      1.663507  
    1401A      1.675610  1402A      1.677397  1403A      1.681380  
    1404A      1.684234  1405A      1.684732  1406A      1.685815  
    1407A      1.688122  1408A      1.689945  1409A      1.699521  
    1410A      1.702049  1411A      1.705877  1412A      1.714192  
    1413A      1.721115  1414A      1.724834  1415A      1.725376  
    1416A      1.726284  1417A      1.729846  1418A      1.736113  
    1419A      1.736299  1420A      1.747274  1421A      1.752879  
    1422A      1.757915  1423A      1.760759  1424A      1.761430  
    1425A      1.762749  1426A      1.764565  1427A      1.765418  
    1428A      1.767291  1429A      1.768574  1430A      1.770460  
    1431A      1.771880  1432A      1.772871  1433A      1.774262  
    1434A      1.777152  1435A      1.777500  1436A      1.780625  
    1437A      1.784219  1438A      1.785947  1439A      1.793242  
    1440A      1.794708  1441A      1.795193  1442A      1.796986  
    1443A      1.798010  1444A      1.798619  1445A      1.800320  
    1446A      1.803501  1447A      1.806205  1448A      1.807458  
    1449A      1.809736  1450A      1.812469  1451A      1.813822  
    1452A      1.815864  1453A      1.816554  1454A      1.818741  
    1455A      1.819309  1456A      1.820010  1457A      1.820688  
    1458A      1.821690  1459A      1.823723  1460A      1.824116  
    1461A      1.824681  1462A      1.827026  1463A      1.828043  
    1464A      1.832947  1465A      1.840036  1466A      1.842779  
    1467A      1.844552  1468A      1.845578  1469A      1.846860  
    1470A      1.849615  1471A      1.851404  1472A      1.853212  
    1473A      1.854212  1474A      1.855995  1475A      1.857426  
    1476A      1.858014  1477A      1.858552  1478A      1.862029  
    1479A      1.862562  1480A      1.863650  1481A      1.864485  
    1482A      1.871728  1483A      1.873787  1484A      1.874698  
    1485A      1.876711  1486A      1.877448  1487A      1.878142  
    1488A      1.881022  1489A      1.882208  1490A      1.882545  
    1491A      1.883398  1492A      1.885867  1493A      1.886905  
    1494A      1.890083  1495A      1.893512  1496A      1.895852  
    1497A      1.896206  1498A      1.898589  1499A      1.899584  
    1500A      1.900506  1501A      1.901039  1502A      1.904159  
    1503A      1.906560  1504A      1.907493  1505A      1.908403  
    1506A      1.910473  1507A      1.910966  1508A      1.911494  
    1509A      1.914077  1510A      1.919092  1511A      1.922536  
    1512A      1.923304  1513A      1.927412  1514A      1.929200  
    1515A      1.930705  1516A      1.931596  1517A      1.933044  
    1518A      1.934172  1519A      1.934646  1520A      1.942212  
    1521A      1.944860  1522A      1.946191  1523A      1.946581  
    1524A      1.950062  1525A      1.952014  1526A      1.952487  
    1527A      1.954394  1528A      1.955124  1529A      1.955916  
    1530A      1.957458  1531A      1.957799  1532A      1.959768  
    1533A      1.960925  1534A      1.961476  1535A      1.962239  
    1536A      1.965569  1537A      1.967553  1538A      1.968328  
    1539A      1.972568  1540A      1.973621  1541A      1.975308  
    1542A      1.977999  1543A      1.981558  1544A      1.982955  
    1545A      1.986357  1546A      1.989585  1547A      1.990526  
    1548A      1.991347  1549A      1.993769  1550A      1.995079  
    1551A      1.996246  1552A      1.998320  1553A      1.998845  
    1554A      2.000265  1555A      2.002372  1556A      2.004666  
    1557A      2.004930  1558A      2.007544  1559A      2.008471  
    1560A      2.012037  1561A      2.014281  1562A      2.017020  
    1563A      2.018144  1564A      2.019093  1565A      2.019993  
    1566A      2.020715  1567A      2.021784  1568A      2.023842  
    1569A      2.024599  1570A      2.024819  1571A      2.026781  
    1572A      2.027510  1573A      2.028556  1574A      2.029571  
    1575A      2.029894  1576A      2.030429  1577A      2.032679  
    1578A      2.034559  1579A      2.035476  1580A      2.037314  
    1581A      2.038579  1582A      2.038673  1583A      2.041267  
    1584A      2.044062  1585A      2.045193  1586A      2.047784  
    1587A      2.049887  1588A      2.050865  1589A      2.052408  
    1590A      2.052894  1591A      2.053676  1592A      2.055277  
    1593A      2.055882  1594A      2.057393  1595A      2.058563  
    1596A      2.059490  1597A      2.063437  1598A      2.064995  
    1599A      2.065184  1600A      2.066212  1601A      2.066988  
    1602A      2.067944  1603A      2.068622  1604A      2.070567  
    1605A      2.074607  1606A      2.075625  1607A      2.078500  
    1608A      2.079992  1609A      2.081971  1610A      2.082739  
    1611A      2.083158  1612A      2.083887  1613A      2.085356  
    1614A      2.086516  1615A      2.094973  1616A      2.095896  
    1617A      2.096358  1618A      2.096824  1619A      2.097599  
    1620A      2.097800  1621A      2.100243  1622A      2.102475  
    1623A      2.103152  1624A      2.103691  1625A      2.109163  
    1626A      2.110387  1627A      2.117349  1628A      2.118641  
    1629A      2.119695  1630A      2.120081  1631A      2.121594  
    1632A      2.125298  1633A      2.126827  1634A      2.127779  
    1635A      2.127952  1636A      2.130061  1637A      2.131466  
    1638A      2.133260  1639A      2.134912  1640A      2.137985  
    1641A      2.138628  1642A      2.138833  1643A      2.139707  
    1644A      2.143310  1645A      2.147495  1646A      2.148859  
    1647A      2.149226  1648A      2.150268  1649A      2.154408  
    1650A      2.154986  1651A      2.159059  1652A      2.160570  
    1653A      2.161532  1654A      2.162208  1655A      2.164679  
    1656A      2.166057  1657A      2.167523  1658A      2.169914  
    1659A      2.170975  1660A      2.172378  1661A      2.173872  
    1662A      2.174489  1663A      2.175041  1664A      2.180998  
    1665A      2.183869  1666A      2.188030  1667A      2.188905  
    1668A      2.192059  1669A      2.193650  1670A      2.200201  
    1671A      2.204111  1672A      2.206067  1673A      2.208375  
    1674A      2.209737  1675A      2.210975  1676A      2.217628  
    1677A      2.218671  1678A      2.220683  1679A      2.221195  
    1680A      2.230353  1681A      2.230875  1682A      2.231666  
    1683A      2.234833  1684A      2.235483  1685A      2.241422  
    1686A      2.242817  1687A      2.245892  1688A      2.255389  
    1689A      2.260131  1690A      2.261819  1691A      2.262772  
    1692A      2.263682  1693A      2.264544  1694A      2.266433  
    1695A      2.267614  1696A      2.268099  1697A      2.268667  
    1698A      2.270982  1699A      2.271655  1700A      2.276349  
    1701A      2.276920  1702A      2.278340  1703A      2.278730  
    1704A      2.279193  1705A      2.279926  1706A      2.280392  
    1707A      2.281831  1708A      2.283859  1709A      2.284448  
    1710A      2.290029  1711A      2.300815  1712A      2.306746  
    1713A      2.311616  1714A      2.321645  1715A      2.324654  
    1716A      2.327160  1717A      2.329079  1718A      2.331055  
    1719A      2.333803  1720A      2.346072  1721A      2.355131  
    1722A      2.357474  1723A      2.359902  1724A      2.363340  
    1725A      2.364399  1726A      2.368942  1727A      2.380023  
    1728A      2.381575  1729A      2.387808  1730A      2.388973  
    1731A      2.392715  1732A      2.401174  1733A      2.401969  
    1734A      2.404610  1735A      2.405178  1736A      2.408875  
    1737A      2.409237  1738A      2.415541  1739A      2.429466  
    1740A      2.430190  1741A      2.431273  1742A      2.440170  
    1743A      2.446321  1744A      2.446871  1745A      2.449469  
    1746A      2.455311  1747A      2.475174  1748A      2.475843  
    1749A      2.477554  1750A      2.480267  1751A      2.480986  
    1752A      2.482239  1753A      2.485010  1754A      2.486659  
    1755A      2.488351  1756A      2.488477  1757A      2.490170  
    1758A      2.490552  1759A      2.500311  1760A      2.502862  
    1761A      2.508154  1762A      2.511005  1763A      2.520411  
    1764A      2.522431  1765A      2.523476  1766A      2.525403  
    1767A      2.525831  1768A      2.528772  1769A      2.529214  
    1770A      2.529870  1771A      2.534626  1772A      2.535191  
    1773A      2.539379  1774A      2.539400  1775A      2.550188  
    1776A      2.550897  1777A      2.551870  1778A      2.552567  
    1779A      2.556592  1780A      2.557025  1781A      2.564678  
    1782A      2.569426  1783A      2.577728  1784A      2.579823  
    1785A      2.581257  1786A      2.582131  1787A      2.585036  
    1788A      2.585634  1789A      2.587527  1790A      2.593296  
    1791A      2.596254  1792A      2.596823  1793A      2.599475  
    1794A      2.602118  1795A      2.606758  1796A      2.607925  
    1797A      2.610126  1798A      2.610765  1799A      2.617549  
    1800A      2.618314  1801A      2.622951  1802A      2.623214  
    1803A      2.624765  1804A      2.627126  1805A      2.627756  
    1806A      2.628144  1807A      2.630115  1808A      2.632163  
    1809A      2.633978  1810A      2.635880  1811A      2.640604  
    1812A      2.659524  1813A      2.668037  1814A      2.668202  
    1815A      2.668834  1816A      2.670130  1817A      2.670849  
    1818A      2.678174  1819A      2.689945  1820A      2.694389  
    1821A      2.695880  1822A      2.707456  1823A      2.708892  
    1824A      2.709963  1825A      2.715653  1826A      2.717648  
    1827A      2.720232  1828A      2.732947  1829A      2.733956  
    1830A      2.734689  1831A      2.736333  1832A      2.736769  
    1833A      2.738077  1834A      2.744415  1835A      2.748077  
    1836A      2.749521  1837A      2.750059  1838A      2.752795  
    1839A      2.754814  1840A      2.757184  1841A      2.765419  
    1842A      2.765904  1843A      2.775060  1844A      2.775726  
    1845A      2.779042  1846A      2.779750  1847A      2.780619  
    1848A      2.785110  1849A      2.797824  1850A      2.800116  
    1851A      2.800910  1852A      2.801527  1853A      2.808526  
    1854A      2.809845  1855A      2.812175  1856A      2.822314  
    1857A      2.827627  1858A      2.828590  1859A      2.833526  
    1860A      2.856666  1861A      2.857580  1862A      2.858629  
    1863A      2.862103  1864A      2.868604  1865A      2.870588  
    1866A      2.874594  1867A      2.874896  1868A      2.901942  
    1869A      2.906080  1870A      2.906679  1871A      2.915607  
    1872A      2.932176  1873A      2.933884  1874A      2.965699  
    1875A      2.966077  1876A      2.977124  1877A      2.980783  
    1878A      2.985228  1879A      2.986433  1880A      2.988152  
    1881A      2.993486  1882A      2.993827  1883A      2.998579  
    1884A      3.005570  1885A      3.009347  1886A      3.040506  
    1887A      3.047799  1888A      3.052530  1889A      3.054374  
    1890A      3.060393  1891A      3.066211  1892A      3.066644  
    1893A      3.072132  1894A      3.074222  1895A      3.080932  
    1896A      3.082616  1897A      3.087574  1898A      3.088913  
    1899A      3.090117  1900A      3.091876  1901A      3.092244  
    1902A      3.099131  1903A      3.101393  1904A      3.101567  
    1905A      3.105801  1906A      3.113741  1907A      3.115798  
    1908A      3.116330  1909A      3.133267  1910A      3.134302  
    1911A      3.159657  1912A      3.191737  1913A      3.198610  
    1914A      3.198778  1915A      3.199719  1916A      3.201019  
    1917A      3.202998  1918A      3.207368  1919A      3.210317  
    1920A      3.213113  1921A      3.214267  1922A      3.236565  
    1923A      3.237214  1924A      3.239172  1925A      3.246942  
    1926A      3.296920  1927A      3.298174  1928A      3.307275  
    1929A      3.351131  1930A      3.363077  1931A      3.368847  
    1932A      3.371117  1933A      3.384639  1934A      3.390371  
    1935A      3.399663  1936A      3.400995  1937A      3.405394  
    1938A      3.407367  1939A      3.413158  1940A      3.423571  
    1941A      3.424419  1942A      3.440334  1943A      3.445371  
    1944A      3.480510  1945A      3.498795  1946A      3.512349  
    1947A      3.514928  1948A      3.521289  1949A      3.526872  
    1950A      3.579072  1951A      3.585874  1952A      3.593780  
    1953A      3.603973  1954A      3.606897  1955A      3.642504  
    1956A      3.684957  1957A      3.689279  1958A      3.691728  
    1959A      3.701106  1960A      3.715936  1961A      3.718115  
    1962A      3.780198  1963A      3.781112  1964A      3.809574  
    1965A      3.811773  1966A      3.848854  1967A      3.857957  
    1968A      3.877840  1969A      3.883616  1970A      3.884323  
    1971A      3.886342  1972A      3.901189  1973A      3.903328  
    1974A      3.912918  1975A      3.957847  1976A      3.960148  
    1977A      4.013387  1978A      4.175537  1979A      4.245400  
    1980A      4.354256  

    Final Occupation by Irrep:
              A 
    DOCC [   326 ]
    NA   [   326 ]
    NB   [   326 ]

  @DF-RHF Final Energy: -3953.66036791164061

   => Energetics <=

    Nuclear Repulsion Energy =          18253.5656688953204139
    One-Electron Energy =              -41712.6290156233371818
    Two-Electron Energy =               19505.4029788163752528
    Total Energy =                      -3953.6603679116415151

Computation Completed


Properties will be evaluated at   0.000000,   0.000000,   0.000000 [a0]

Properties computed using the SCF density matrix


 Multipole Moments:

 ------------------------------------------------------------------------------------
     Multipole            Electronic (a.u.)      Nuclear  (a.u.)        Total (a.u.)
 ------------------------------------------------------------------------------------

 L = 1.  Multiply by 2.5417464519 to convert [e a0] to [Debye]
 Dipole X            :          0.0018916            0.0004804            0.0023720
 Dipole Y            :         -1.6030045            1.8866171            0.2836126
 Dipole Z            :        -19.6895389           25.4509116            5.7613726
 Magnitude           :                                                    5.7683495

 ------------------------------------------------------------------------------------

*** tstop() called on n2cn1115.ab2021.local at Tue Jan 30 19:19:40 2024
Module time:
	user time   =   28812.35 seconds =     480.21 minutes
	system time =    4159.04 seconds =      69.32 minutes
	total time  =       3124 seconds =      52.07 minutes
Total time:
	user time   =   28812.35 seconds =     480.21 minutes
	system time =    4159.04 seconds =      69.32 minutes
	total time  =       3124 seconds =      52.07 minutes

  //>>>>>>>>>>>>>>>>>>>>>>>>>>>>>>>>>>>//
  //            Monomer A HF           //
  //<<<<<<<<<<<<<<<<<<<<<<<<<<<<<<<<<<<//

   => Libint2 <=

    Primary   basis highest AM E, G, H:  5, 4, 3
    Auxiliary basis highest AM E, G, H:  6, 5, 4
    Onebody   basis highest AM E, G, H:  6, 5, 4
    Solid Harmonics ordering:            gaussian

*** tstart() called on n2cn1115.ab2021.local
*** at Tue Jan 30 19:19:40 2024

   => Loading Basis Set <=

    Name: JUN-CC-PVDZ
    Role: ORBITAL
    Keyword: BASIS
    atoms 1-2, 4-5, 10, 17-34, 41-53, 56-70, 73-89, 92-104, 109-119, 122-130 entry C          line   164 file /opt/software/pc2/EB-SW/software/PSI4/1.9-foss-2022a/share/psi4/basis/jun-cc-pvdz.gbs 
    atoms 3, 6                                                               entry N          line   198 file /opt/software/pc2/EB-SW/software/PSI4/1.9-foss-2022a/share/psi4/basis/jun-cc-pvdz.gbs 
    atoms 7-9, 11-16, 35-40, 54-55, 71-72, 90-91, 105-108, 120-121, 131-136  entry H          line    36 file /opt/software/pc2/EB-SW/software/PSI4/1.9-foss-2022a/share/psi4/basis/jun-cc-pvdz.gbs 


         ---------------------------------------------------------
                                   SCF
               by Justin Turney, Rob Parrish, Andy Simmonett
                          and Daniel G. A. Smith
                              RHF Reference
                       16 Threads,  76293 MiB Core
         ---------------------------------------------------------

  ==> Geometry <==

    Molecular point group: c1
    Full point group: C1

    Geometry (in Angstrom), charge = 1, multiplicity = 1:

       Center              X                  Y                   Z               Mass       
    ------------   -----------------  -----------------  -----------------  -----------------
         C            0.680062820275    -1.215917226251     3.887821331492    12.000000000000
         C           -0.680508179725    -1.215533226251     3.885793331492    12.000000000000
         N           -1.085639179725     0.102790773749     3.884795331492    14.003074004430
[...]
    1585A      2.195771  1586A      2.197211  1587A      2.198208  
    1588A      2.199670  1589A      2.200729  1590A      2.201673  
    1591A      2.202187  1592A      2.203819  1593A      2.205789  
    1594A      2.206789  1595A      2.210403  1596A      2.212018  
    1597A      2.212704  1598A      2.215451  1599A      2.216797  
    1600A      2.220379  1601A      2.222711  1602A      2.223295  
    1603A      2.223561  1604A      2.224986  1605A      2.227060  
    1606A      2.227574  1607A      2.229250  1608A      2.231839  
    1609A      2.232496  1610A      2.235458  1611A      2.236681  
    1612A      2.239462  1613A      2.239956  1614A      2.240338  
    1615A      2.242012  1616A      2.244874  1617A      2.247675  
    1618A      2.251514  1619A      2.252247  1620A      2.253429  
    1621A      2.257572  1622A      2.262199  1623A      2.264510  
    1624A      2.266372  1625A      2.267917  1626A      2.269812  
    1627A      2.272925  1628A      2.281687  1629A      2.283622  
    1630A      2.284408  1631A      2.286089  1632A      2.291640  
    1633A      2.293094  1634A      2.296240  1635A      2.297331  
    1636A      2.298013  1637A      2.305959  1638A      2.306353  
    1639A      2.311812  1640A      2.317815  1641A      2.318889  
    1642A      2.324813  1643A      2.325936  1644A      2.326765  
    1645A      2.328660  1646A      2.329868  1647A      2.330743  
    1648A      2.331653  1649A      2.332484  1650A      2.333419  
    1651A      2.336028  1652A      2.336212  1653A      2.340110  
    1654A      2.342087  1655A      2.342855  1656A      2.343303  
    1657A      2.345318  1658A      2.345541  1659A      2.346303  
    1660A      2.346664  1661A      2.349022  1662A      2.349733  
    1663A      2.352962  1664A      2.365024  1665A      2.373196  
    1666A      2.375033  1667A      2.382275  1668A      2.385748  
    1669A      2.388432  1670A      2.390248  1671A      2.391939  
    1672A      2.395775  1673A      2.399532  1674A      2.407202  
    1675A      2.413446  1676A      2.419089  1677A      2.421493  
    1678A      2.424279  1679A      2.426845  1680A      2.432853  
    1681A      2.433713  1682A      2.443183  1683A      2.446275  
    1684A      2.449692  1685A      2.453326  1686A      2.455406  
    1687A      2.461980  1688A      2.465247  1689A      2.466674  
    1690A      2.468753  1691A      2.471284  1692A      2.472235  
    1693A      2.472601  1694A      2.492074  1695A      2.492379  
    1696A      2.494480  1697A      2.501365  1698A      2.505772  
    1699A      2.508647  1700A      2.510288  1701A      2.512145  
    1702A      2.516909  1703A      2.539047  1704A      2.539817  
    1705A      2.540835  1706A      2.541303  1707A      2.543665  
    1708A      2.545101  1709A      2.545791  1710A      2.547381  
    1711A      2.549944  1712A      2.550371  1713A      2.551993  
    1714A      2.553619  1715A      2.557022  1716A      2.557249  
    1717A      2.564768  1718A      2.569010  1719A      2.572055  
    1720A      2.572548  1721A      2.576858  1722A      2.583826  
    1723A      2.585387  1724A      2.585901  1725A      2.586451  
    1726A      2.588525  1727A      2.589372  1728A      2.589781  
    1729A      2.593387  1730A      2.593546  1731A      2.600778  
    1732A      2.602283  1733A      2.608159  1734A      2.613660  
    1735A      2.615306  1736A      2.615567  1737A      2.616466  
    1738A      2.619087  1739A      2.621035  1740A      2.626635  
    1741A      2.633407  1742A      2.642014  1743A      2.644317  
    1744A      2.646425  1745A      2.647113  1746A      2.649922  
    1747A      2.650005  1748A      2.652275  1749A      2.654753  
    1750A      2.658796  1751A      2.660312  1752A      2.666475  
    1753A      2.667130  1754A      2.668609  1755A      2.671860  
    1756A      2.672545  1757A      2.674502  1758A      2.676300  
    1759A      2.679751  1760A      2.682135  1761A      2.687140  
    1762A      2.687475  1763A      2.688832  1764A      2.691155  
    1765A      2.692249  1766A      2.692915  1767A      2.693667  
    1768A      2.695150  1769A      2.696398  1770A      2.698940  
    1771A      2.702747  1772A      2.706872  1773A      2.721165  
    1774A      2.730843  1775A      2.731591  1776A      2.732452  
    1777A      2.732889  1778A      2.734212  1779A      2.749796  
    1780A      2.752761  1781A      2.757372  1782A      2.763052  
    1783A      2.767509  1784A      2.772485  1785A      2.777196  
    1786A      2.781895  1787A      2.782608  1788A      2.791426  
    1789A      2.799983  1790A      2.800272  1791A      2.802411  
    1792A      2.802631  1793A      2.803787  1794A      2.813683  
    1795A      2.815908  1796A      2.816395  1797A      2.817360  
    1798A      2.819290  1799A      2.820264  1800A      2.825158  
    1801A      2.832942  1802A      2.835211  1803A      2.838088  
    1804A      2.841751  1805A      2.844176  1806A      2.844944  
    1807A      2.846397  1808A      2.850587  1809A      2.866506  
    1810A      2.866551  1811A      2.867593  1812A      2.872231  
    1813A      2.872987  1814A      2.877175  1815A      2.889185  
    1816A      2.896227  1817A      2.897119  1818A      2.904791  
    1819A      2.916898  1820A      2.919095  1821A      2.920982  
    1822A      2.929324  1823A      2.929485  1824A      2.931372  
    1825A      2.936115  1826A      2.937450  1827A      2.956871  
    1828A      2.963886  1829A      2.966333  1830A      2.967985  
    1831A      2.970040  1832A      2.978792  1833A      2.983622  
    1834A      2.996182  1835A      2.998189  1836A      3.012352  
    1837A      3.030812  1838A      3.031713  1839A      3.037955  
    1840A      3.042975  1841A      3.048196  1842A      3.049100  
    1843A      3.050327  1844A      3.058419  1845A      3.058778  
    1846A      3.064412  1847A      3.069860  1848A      3.074146  
    1849A      3.093621  1850A      3.108757  1851A      3.112673  
    1852A      3.115046  1853A      3.117083  1854A      3.124698  
    1855A      3.130665  1856A      3.131885  1857A      3.139588  
    1858A      3.143152  1859A      3.145105  1860A      3.146429  
    1861A      3.152255  1862A      3.152340  1863A      3.153303  
    1864A      3.154812  1865A      3.159528  1866A      3.161878  
    1867A      3.162671  1868A      3.168432  1869A      3.175055  
    1870A      3.177932  1871A      3.179888  1872A      3.195794  
    1873A      3.196093  1874A      3.220762  1875A      3.232788  
    1876A      3.254703  1877A      3.261921  1878A      3.262541  
    1879A      3.263693  1880A      3.264166  1881A      3.266870  
    1882A      3.270191  1883A      3.273790  1884A      3.276012  
    1885A      3.277679  1886A      3.300384  1887A      3.300985  
    1888A      3.304886  1889A      3.308846  1890A      3.312653  
    1891A      3.354850  1892A      3.360988  1893A      3.366774  
    1894A      3.370443  1895A      3.380521  1896A      3.417871  
    1897A      3.431682  1898A      3.433149  1899A      3.439166  
    1900A      3.451513  1901A      3.461349  1902A      3.467243  
    1903A      3.471054  1904A      3.472827  1905A      3.475229  
    1906A      3.479112  1907A      3.481145  1908A      3.492357  
    1909A      3.492607  1910A      3.511950  1911A      3.522137  
    1912A      3.544278  1913A      3.550649  1914A      3.577754  
    1915A      3.579760  1916A      3.587936  1917A      3.591103  
    1918A      3.612136  1919A      3.650666  1920A      3.652963  
    1921A      3.660963  1922A      3.670519  1923A      3.671882  
    1924A      3.708241  1925A      3.751533  1926A      3.754585  
    1927A      3.756604  1928A      3.767507  1929A      3.768544  
    1930A      3.779441  1931A      3.787204  1932A      3.829636  
    1933A      3.844909  1934A      3.845086  1935A      3.873732  
    1936A      3.876061  1937A      3.881420  1938A      3.913866  
    1939A      3.922803  1940A      3.945604  1941A      3.949083  
    1942A      3.950151  1943A      3.954863  1944A      3.967878  
    1945A      3.971027  1946A      3.979457  1947A      3.987689  
    1948A      4.024957  1949A      4.027824  1950A      4.080490  
    1951A      4.240097  1952A      4.244960  1953A      4.252512  
    1954A      4.316822  1955A      4.425536  1956A      4.490371  
    1957A      4.504439  1958A      4.536599  1959A      4.778134  
    1960A      4.813689  1961A      4.862816  1962A      4.894196  
    1963A      4.966869  1964A      5.077430  1965A      5.085565  
    1966A      5.090811  1967A      5.138829  1968A      5.163645  
    1969A      5.402945  1970A      5.436984  1971A      5.764876  
    1972A      5.769869  1973A      6.078616  1974A     18.216798  
    1975A     18.472406  1976A     18.489454  1977A     18.580779  
    1978A     18.874725  1979A     25.363134  1980A     25.397557  

    Final Occupation by Irrep:
              A 
    DOCC [   300 ]
    NA   [   300 ]
    NB   [   300 ]

  @DF-RHF Final Energy: -3650.34115767243020

   => Energetics <=

    Nuclear Repulsion Energy =          15611.4211649754324753
    One-Electron Energy =              -36072.1784130052765249
    Two-Electron Energy =               16810.4160903574120312
    Total Energy =                      -3650.3411576724320184

Computation Completed


Properties will be evaluated at   0.000000,   0.000000,   0.000000 [a0]

Properties computed using the SCF density matrix


 Multipole Moments:

 ------------------------------------------------------------------------------------
     Multipole            Electronic (a.u.)      Nuclear  (a.u.)        Total (a.u.)
 ------------------------------------------------------------------------------------

 L = 1.  Multiply by 2.5417464519 to convert [e a0] to [Debye]
 Dipole X            :         -0.0004805            0.0002112           -0.0002693
 Dipole Y            :          0.0044105           -0.0044281           -0.0000176
 Dipole Z            :        363.0649008         -363.0742260           -0.0093252
 Magnitude           :                                                    0.0093291

 ------------------------------------------------------------------------------------

*** tstop() called on n2cn1115.ab2021.local at Tue Jan 30 20:19:38 2024
Module time:
	user time   =   20069.44 seconds =     334.49 minutes
	system time =    3474.57 seconds =      57.91 minutes
	total time  =       2812 seconds =      46.87 minutes
Total time:
	user time   =   54353.41 seconds =     905.89 minutes
	system time =    8063.03 seconds =     134.38 minutes
	total time  =       6722 seconds =     112.03 minutes
  Constructing Basis Sets for SAPT...

   => Loading Basis Set <=

    Name: (JUN-CC-PVDZ AUX)
    Role: RIFIT
    Keyword: DF_BASIS_SAPT
    atoms 1-2, 4-5, 10, 17-34, 41-53, 56-70, 73-89, 92-104, 109-119, 122-130 entry C          line   100 file /opt/software/pc2/EB-SW/software/PSI4/1.9-foss-2022a/share/psi4/basis/jun-cc-pvdz-ri.gbs 
    atoms 3, 6                                                               entry N          line   144 file /opt/software/pc2/EB-SW/software/PSI4/1.9-foss-2022a/share/psi4/basis/jun-cc-pvdz-ri.gbs 
    atoms 7-9, 11-16, 35-40, 54-55, 71-72, 90-91, 105-108, 120-121, 131-136  entry H          line    30 file /opt/software/pc2/EB-SW/software/PSI4/1.9-foss-2022a/share/psi4/basis/jun-cc-pvdz-ri.gbs 

   => Loading Basis Set <=

    Name: (JUN-CC-PVDZ AUX)
    Role: JKFIT
    Keyword: DF_BASIS_ELST
    atoms 1-2, 4-5, 10, 17-34, 41-53, 56-70, 73-89, 92-104, 109-119, 122-130 entry C          line   146 file /opt/software/pc2/EB-SW/software/PSI4/1.9-foss-2022a/share/psi4/basis/jun-cc-pvdz-jkfit.gbs 
    atoms 3, 6                                                               entry N          line   202 file /opt/software/pc2/EB-SW/software/PSI4/1.9-foss-2022a/share/psi4/basis/jun-cc-pvdz-jkfit.gbs 
    atoms 7-9, 11-16, 35-40, 54-55, 71-72, 90-91, 105-108, 120-121, 131-136  entry H          line    70 file /opt/software/pc2/EB-SW/software/PSI4/1.9-foss-2022a/share/psi4/basis/jun-cc-pvdz-jkfit.gbs 


  //>>>>>>>>>>>>>>>>>>>>>>>>>>>>>>>>>>>//
  //               SSAPT0              //
  //<<<<<<<<<<<<<<<<<<<<<<<<<<<<<<<<<<<//


*** tstart() called on n2cn1115.ab2021.local
*** at Tue Jan 30 20:19:40 2024

        SAPT0  
    Ed Hohenstein
     6 June 2009

      Orbital Information
  --------------------------
    NSO        =      2019
    NMO        =      1980
    NRI        =      7157
    NRI (Elst) =      8896
    NOCC A     =        26
    NOCC B     =       300
    FOCC A     =         7
    FOCC B     =        96
    NVIR A     =      1954
    NVIR B     =      1680

    Elst10,r            =    -0.012839109880 [Eh]
    Exch10              =     0.001957442921 [Eh]
    Exch10 (S^2)        =     0.001957103463 [Eh]

    Iter     Energy [mEh]          dE [mEh]         Residual      Time [s]
       1      -0.14671585       0.146715851       1.577550527            99
       2      -0.16879867       0.022082818       0.503454759           168
       3      -0.17291488       0.004116215       0.055799360           238
       4      -0.17255569      -0.000359194       0.016304260           306
       5      -0.17255116      -0.000004531       0.005096715           375
       6      -0.17256878       0.000017623       0.001020171           444
       7      -0.17256721      -0.000001567       0.000391605           514
       8      -0.17256692      -0.000000294       0.000164206           592
       9      -0.17256711       0.000000187       0.000060659           669
      10      -0.17256714       0.000000034       0.000023497           741
      11      -0.17256713      -0.000000014       0.000008069           817
      12      -0.17256712      -0.000000005       0.000002768           891
      13      -0.17256712       0.000000000       0.000000663           963

    CHF Iterations converged


    Iter     Energy [mEh]          dE [mEh]         Residual      Time [s]
       1     -14.57032696      14.570326957      65.359443907           109
       2      -9.45596140      -5.114365561       7.956469992           225
       3      -9.43660767      -0.019353725       2.784712705           332
       4      -9.62711730       0.190509626       0.877924890           441
       5      -9.65183003       0.024712730       0.312114215           549
       6      -9.64880357      -0.003026455       0.212384402           658
       7      -9.64332050      -0.005483069       0.087075274           766
       8      -9.64377989       0.000459386       0.048332138           871
       9      -9.64501873       0.001238844       0.029678282           976
      10      -9.64474924      -0.000269494       0.025291963          1082
      11      -9.64447655      -0.000272689       0.011216302          1185
      12      -9.64447156      -0.000004987       0.005375239          1287
      13      -9.64453037       0.000058811       0.002246103          1392
      14      -9.64454567       0.000015293       0.001173494          1494
      15      -9.64453788      -0.000007791       0.000755657          1599
      16      -9.64452844      -0.000009431       0.000338300          1701
      17      -9.64453318       0.000004740       0.000138712          1805
      18      -9.64453436       0.000001178       0.000058784          1912
      19      -9.64453386      -0.000000507       0.000038885          2016
      20      -9.64453343      -0.000000422       0.000017946          2119
      21      -9.64453358       0.000000149       0.000009196          2221
      22      -9.64453365       0.000000071       0.000004112          2323
      23      -9.64453363      -0.000000020       0.000002103          2427
      24      -9.64453362      -0.000000017       0.000001336          2529
      25      -9.64453362       0.000000001       0.000000787          2633

    CHF Iterations converged

    Ind20,r (A<-B)      =    -0.000172567122 [Eh]
    Ind20,r (B<-A)      =    -0.009644533618 [Eh]
    Ind20,r             =    -0.009817100740 [Eh]
    Exch-Ind20,r (A<-B) =     0.000150887113 [Eh]
    Exch-Ind20,r (B<-A) =     0.000308204011 [Eh]
    Exch-Ind20,r        =     0.000459091125 [Eh]
    Disp20              =    -0.015273144045 [Eh]
    Disp20 (SS)         =    -0.007636572022 [Eh]
    Disp20 (OS)         =    -0.007636572022 [Eh]
    Exch-Disp20         =     0.000300854501 [Eh]
    Exch-Disp20 (SS)    =     0.000193635364 [Eh]
    Exch-Disp20 (OS)    =     0.000107219137 [Eh]

    SAPT Results 
  --------------------------------------------------------------------------------------------------------
    Electrostatics                -12.83910988 [mEh]      -8.05666308 [kcal/mol]     -33.70907835 [kJ/mol]
      Elst10,r                    -12.83910988 [mEh]      -8.05666308 [kcal/mol]     -33.70907835 [kJ/mol]

    Exchange                        1.95744292 [mEh]       1.22831398 [kcal/mol]       5.13926568 [kJ/mol]
      Exch10                        1.95744292 [mEh]       1.22831398 [kcal/mol]       5.13926568 [kJ/mol]
      Exch10(S^2)                   1.95710346 [mEh]       1.22810096 [kcal/mol]       5.13837443 [kJ/mol]

    Induction                      -9.88397592 [mEh]      -6.20228853 [kcal/mol]     -25.95037521 [kJ/mol]
      Ind20,r                      -9.81710074 [mEh]      -6.16032372 [kcal/mol]     -25.77479444 [kJ/mol]
      Exch-Ind20,r                  0.45909112 [mEh]       0.28808403 [kcal/mol]       1.20534358 [kJ/mol]
      delta HF,r (2)               -0.52596631 [mEh]      -0.33004884 [kcal/mol]      -1.38092435 [kJ/mol]

    Dispersion                    -14.97228954 [mEh]      -9.39525353 [kcal/mol]     -39.30974078 [kJ/mol]
      Disp20                      -15.27314404 [mEh]      -9.58404258 [kcal/mol]     -40.09963416 [kJ/mol]
      Exch-Disp20                   0.30085450 [mEh]       0.18878905 [kcal/mol]       0.78989338 [kJ/mol]
      Disp20 (SS)                  -7.63657202 [mEh]      -4.79202129 [kcal/mol]     -20.04981708 [kJ/mol]
      Disp20 (OS)                  -7.63657202 [mEh]      -4.79202129 [kcal/mol]     -20.04981708 [kJ/mol]
      Exch-Disp20 (SS)              0.19363536 [mEh]       0.12150803 [kcal/mol]       0.50838958 [kJ/mol]
      Exch-Disp20 (OS)              0.10721914 [mEh]       0.06728102 [kcal/mol]       0.28150381 [kJ/mol]

  Total HF                        -20.76564288 [mEh]     -13.03063764 [kcal/mol]     -54.52018788 [kJ/mol]
  Total SAPT0                     -35.73793243 [mEh]     -22.42589117 [kcal/mol]     -93.82992866 [kJ/mol]

  Special recipe for scaled SAPT0 (see Manual):
    Electrostatics sSAPT0         -12.83910988 [mEh]      -8.05666308 [kcal/mol]     -33.70907835 [kJ/mol]
    Exchange sSAPT0                 1.95744292 [mEh]       1.22831398 [kcal/mol]       5.13926568 [kJ/mol]
    Induction sSAPT0               -9.88373700 [mEh]      -6.20213860 [kcal/mol]     -25.94974791 [kJ/mol]
    Dispersion sSAPT0             -14.97213297 [mEh]      -9.39515528 [kcal/mol]     -39.30932969 [kJ/mol]
  Total sSAPT0                    -35.73753692 [mEh]     -22.42564299 [kcal/mol]     -93.82889026 [kJ/mol]
  --------------------------------------------------------------------------------------------------------

*** tstop() called on n2cn1115.ab2021.local at Tue Jan 30 23:13:56 2024
Module time:
	user time   =   76174.60 seconds =    1269.58 minutes
	system time =    4423.48 seconds =      73.72 minutes
	total time  =      10456 seconds =     174.27 minutes
Total time:
	user time   =  130529.59 seconds =    2175.49 minutes
	system time =   12486.51 seconds =     208.11 minutes
	total time  =      17180 seconds =     286.33 minutes

    Psi4 stopped on: Tuesday, 30 January 2024 11:13PM
    Psi4 wall time for execution: 4:46:22.08

*** Psi4 exiting successfully. Buy a developer a beer!
