
    -----------------------------------------------------------------------
          Psi4: An Open-Source Ab Initio Electronic Structure Package
                               Psi4 1.9 release

                         Git: Rev {} zzzzzzz 


    D. G. A. Smith, L. A. Burns, A. C. Simmonett, R. M. Parrish,
    M. C. Schieber, R. Galvelis, P. Kraus, H. Kruse, R. Di Remigio,
    A. Alenaizan, A. M. James, S. Lehtola, J. P. Misiewicz, M. Scheurer,
    R. A. Shaw, J. B. Schriber, Y. Xie, Z. L. Glick, D. A. Sirianni,
    J. S. O'Brien, J. M. Waldrop, A. Kumar, E. G. Hohenstein,
    B. P. Pritchard, B. R. Brooks, H. F. Schaefer III, A. Yu. Sokolov,
    K. Patkowski, A. E. DePrince III, U. Bozkaya, R. A. King,
    F. A. Evangelista, J. M. Turney, T. D. Crawford, C. D. Sherrill,
    J. Chem. Phys. 152(18) 184108 (2020). https://doi.org/10.1063/5.0006002

                            Additional Code Authors
    E. T. Seidl, C. L. Janssen, E. F. Valeev, M. L. Leininger,
    J. F. Gonthier, R. M. Richard, H. R. McAlexander, M. Saitow, X. Wang,
    P. Verma, M. H. Lechner, A. Jiang, S. Behnle, A. G. Heide,
    M. F. Herbst, and D. L. Poole

             Previous Authors, Complete List of Code Contributors,
                       and Citations for Specific Modules
    https://github.com/psi4/psi4/blob/master/codemeta.json
    https://github.com/psi4/psi4/graphs/contributors
    http://psicode.org/psi4manual/master/introduction.html#citing-psifour

    -----------------------------------------------------------------------


    Psi4 started on: Saturday, 27 January 2024 10:41AM

    Process ID: 3798080
    Host:       n2cn1025
    PSIDATADIR: /opt/software/pc2/EB-SW/software/PSI4/1.9-foss-2022a/share/psi4
    Memory:     500.0 MiB
    Threads:    16
    
  ==> Input File <==

--------------------------------------------------------------------------
memory 64 GB # how much memory is available ! Depends on the nodes/cores !

molecule dimer {
# monomer A
-1 1    # Charge and multiplicity
B -1.977592e-04  2.742729e-04 -5.399966
F  1.123153e-16  1.430594e-17 -3.987181
F  1.147860e+00  6.757812e-01 -5.871107
F  1.191806e-02 -1.332011e+00 -5.870905
F -1.159666e+00  6.560735e-01 -5.870826
--
# monomer B
0 1     # Charge and multiplicity
C   -3.66844126402057      7.80375217008252      0.00190004133558
C   -4.84759871934653      7.13124183134024     -0.00046653359696
C   -4.89495929917518      5.69633040353158     -0.00103944469517
C   -3.65374067877320      4.98073034095895      0.00662099703436
C   -2.40942512149445      7.11398103667468      0.00209438359570
C   -2.42547734410473      5.68112195090346     -0.00491050527438
C   -1.19474401643570      7.78614419430947      0.00356656413763
C   0.03795902893699      7.09942164575698      0.00139585983271
C   0.03033258741920      5.66948955970466     -0.00408752508301
C   -1.20098450790502      4.96927034791531      0.00488220885047
C   1.27795782581485      7.77285944319479      0.00277170839332
C   2.48535808472416      7.08769688523756      0.00049722048857
C   2.48612868491717      5.65477081024076     -0.00644052849921
C   1.25408291964399      4.95607811366431      0.00518741308898
C   3.75171459140595      7.76391215098033      0.00062407186893
C   4.92356605618520      7.07878077698995     -0.00143240883900
C   4.95560727132542      5.64344746336949     -0.00159282164606
C   3.70680153420475      4.94121020833308      0.00349873852374
H   -3.65852113775815      8.89082741913536      0.00358502958574
H   -1.18921332975660      8.87412108735996      0.00753844057883
H   1.28429423888630      8.86083343548850      0.00693053253426
H   3.75354208679975      8.85103527897216      0.00214659618464
H   5.86995870320703      7.61379483465560     -0.00235777588134
H   -5.78823170750226      7.67630221293400     -0.00202638095293
C   -6.09197395869619      4.99326001364347     -0.00291168518608
C   -6.12866148031747      3.58258016879823     -0.00171050815740
C   -3.66457974004527      3.56418217974434     -0.00463560277484
C   -4.89429820469869      2.86108077590057      0.00453338221034
C   -2.43733499489796      2.84761165708481      0.00719617576166
C   -1.20922785759670      3.54788693497833     -0.00648285103018
C   1.24714157216223      3.53468075142962     -0.00729145743546
C   0.01517603956900      2.83311183930540      0.00439272578912
C   2.46764517244071      2.82128997725533      0.00449278391269
C   3.70254947457969      3.52466015442405     -0.00899517692985
C   6.14498038638375      4.92757236613191     -0.00282626685777
C   6.16658835886151      3.51658447594213     -0.00065971342101
C   4.92460995845939      2.80840792535402      0.00587903281610
H   7.08990550964105      5.46688776622306     -0.00658814770723
H   -7.03104175110130      5.54268795285765     -0.00714490013730
C   -7.33969804112295      2.85841153457957     -0.00333767559888
C   -7.36488195805880      1.47032337158330     -0.00157213747140
C   -4.90350460894690      1.44442681216000     -0.00628840166334
C   -6.13225715261081      0.73993935705394      0.00600164231964
C   -3.67687480051673      0.72669714267312      0.00433931473643
C   -2.44565658606518      1.42964113326212     -0.00597039546461
C   -1.22360068130162      0.71532450163492      0.00545886906656
C   0.00763786931376      1.41738314923765      0.00392452278437
C   1.23121980774686      0.70211669058719     -0.01490206287210
C   2.46082110053113      1.40329203612573      0.00460244601878
C   3.68443025419614      0.68719842821222      0.00377365974158
C   4.91870890153864      1.39173456118907     -0.00862816189375
C   7.36980207796101      2.77948220318441     -0.00242013321349
C   7.38016266612146      1.39121750785509     -0.00087345036788
C   6.13979953912259      0.67411862320065      0.00545489144369
H   -8.27919079934664      3.40711804112415     -0.00763522772059
H   8.31511347147953      3.31811809662368     -0.00663070901292
C   -8.59175593758115      0.72483255304480     -0.00123170985383
C   -8.59902460370342     -0.63263980622873      0.00089141472904
C   -6.13981313911873     -0.67413663715361     -0.00609792660607
C   -7.38018411213749     -1.39126618958160      0.00131813493501
C   -4.91868448025621     -1.39175501803000      0.00624257154343
C   -3.68443829568458     -0.68723731573599     -0.00478966852105
C   -2.46081704024768     -1.40334517882457      0.00575341766833
C   -1.23116201232071     -0.70217386488055     -0.00636696112346
C   -0.00756962538737     -1.41741884941102      0.00108956317991
C   1.22364771588843     -0.71527537726392      0.01109518512883
C   2.44567064933149     -1.42964328900682     -0.00065482763106
C   3.67686670284649     -0.72670743155550     -0.00479541202602
C   6.13224884641929     -0.73997883984993     -0.00632338623858
C   4.90351914550401     -1.44445752054090      0.00751768830159
C   8.59901484869081      0.63260386666793     -0.00101133422380
C   8.59174548810050     -0.72485086719319      0.00072504603735
C   7.36486276438985     -1.47033266560598      0.00049486934466
H   -9.52830597181814      1.27684744919284     -0.00270163681798
H   9.54141097460619      1.17457248844457     -0.00206336648518
C   -7.36983790976868     -2.77954514593389      0.00312634335708
C   -4.92459910905015     -2.80843725734101     -0.00460528907921
C   -6.16662249566744     -3.51665219282533      0.00169655107992
C   -3.70251035970491     -3.52468154912026      0.00571878010666
C   -2.46764698511392     -2.82132596280400     -0.00632585824990
C   -0.01513347410770     -2.83314164539971     -0.00604426974092
C   -1.24712184122656     -3.53473217556300      0.00551968366725
C   1.20924506964357     -3.54791467864352      0.00805871345849
C   2.43733602215464     -2.84764173817541     -0.00608104485234
C   4.89430234377080     -2.86112296828604     -0.00526030478103
C   3.66461525504104     -3.56421984553201      0.00761911515957
C   6.12863901474565     -3.58258405771778      0.00096495711699
C   7.33967266469532     -2.85841330737039      0.00248018319869
H   -9.54144911125902     -1.17456346666430      0.00226083090216
H   9.52826186807155     -1.27691907390448      0.00197485379837
H   -8.31516504384864     -3.31814985321231      0.00729857188773
H   8.27915514249207     -3.40714078989363      0.00681973918158
C   -6.14499418870218     -4.92764727278338      0.00302254913999
C   -3.70678334799751     -4.94126171411716     -0.00679841894792
C   -4.95559005800169     -5.64349397349412      0.00116871569699
C   -2.48612132622665     -5.65478557440947      0.00614125209662
C   -1.25405833548005     -4.95612205000132     -0.00503435388927
C   1.20101257386816     -4.96928038819302     -0.00385322963129
C   -0.03033667441341     -5.66952030313900      0.00398997003238
C   3.65375010132847     -4.98074377541453     -0.00309522988330
C   2.42549269587528     -5.68117463552727      0.00628170066869
C   6.09196561781097     -4.99325796338655      0.00325918379042
C   4.89497644461045     -5.69634842095790      0.00202298796027
H   -7.08989238804069     -5.46699984223871      0.00742531082125
H   7.03105520920009     -5.54265853633254      0.00683896355417
C   -4.92354532219813     -7.07882109967734      0.00061394679214
C   -2.48534208823777     -7.08772807792913     -0.00189594564379
C   -3.75168589177895     -7.76394715763627     -0.00170126671874
C   -0.03794895698805     -7.09946487446944     -0.00168022049625
C   -1.27795610040136     -7.77290438466689     -0.00366491325785
C   2.40944432072629     -7.11402201200282     -0.00081701968533
C   1.19474993715296     -7.78618536556242     -0.00296931056689
C   4.84762105249800     -7.13126211057943      0.00168979497423
C   3.66847160587561     -7.80378799294376     -0.00065863938960
H   -5.86994035041618     -7.61383059804164      0.00215798365757
H   5.78824962538815     -7.67633218931421      0.00281691445618
H   -3.75352693944918     -8.85107156923607     -0.00353718114765
H   -1.28430440589466     -8.86087539249706     -0.00809229711623
H   1.18922157469537     -8.87416062058945     -0.00706194725726
H   3.65854661482387     -8.89086063405326     -0.00231318081200

    units angstrom      # Angstroms are the default
    no_reorient         # Geometry fixed, default
    symmetry c1         # C1 symmetry, default
}

set {
    scf_type DF         # Density fitting, faster than exact integrals
    freeze_core True    # Freeze core electrons
    basis jun-cc-pVDZ   # Jun-cc-pVDZ basis set, recommended for sSAPT0 in https://doi.org/10.1063/1.4867135
}

energy('ssapt0')        # Compute sSAPT0 energy, includes also SAPT0
--------------------------------------------------------------------------

  Memory set to  59.605 GiB by Python driver.

Scratch directory: /tmp/
   => Loading Basis Set <=

    Name: JUN-CC-PVDZ
    Role: ORBITAL
    Keyword: BASIS
    atoms 1                                                   entry B          line   130 file /opt/software/pc2/EB-SW/software/PSI4/1.9-foss-2022a/share/psi4/basis/jun-cc-pvdz.gbs 
    atoms 2-5                                                 entry F          line   266 file /opt/software/pc2/EB-SW/software/PSI4/1.9-foss-2022a/share/psi4/basis/jun-cc-pvdz.gbs 
    atoms 6-23, 30-42, 45-59, 62-78, 81-93, 98-108, 111-119   entry C          line   164 file /opt/software/pc2/EB-SW/software/PSI4/1.9-foss-2022a/share/psi4/basis/jun-cc-pvdz.gbs 
    atoms 24-29, 43-44, 60-61, 79-80, 94-97, 109-110, 120-125 entry H          line    36 file /opt/software/pc2/EB-SW/software/PSI4/1.9-foss-2022a/share/psi4/basis/jun-cc-pvdz.gbs 

   => Loading Basis Set <=

    Name: JUN-CC-PVDZ
    Role: ORBITAL
    Keyword: BASIS
    atoms 1                                                   entry B          line   130 file /opt/software/pc2/EB-SW/software/PSI4/1.9-foss-2022a/share/psi4/basis/jun-cc-pvdz.gbs 
    atoms 2-5                                                 entry F          line   266 file /opt/software/pc2/EB-SW/software/PSI4/1.9-foss-2022a/share/psi4/basis/jun-cc-pvdz.gbs 
    atoms 6-23, 30-42, 45-59, 62-78, 81-93, 98-108, 111-119   entry C          line   164 file /opt/software/pc2/EB-SW/software/PSI4/1.9-foss-2022a/share/psi4/basis/jun-cc-pvdz.gbs 
    atoms 24-29, 43-44, 60-61, 79-80, 94-97, 109-110, 120-125 entry H          line    36 file /opt/software/pc2/EB-SW/software/PSI4/1.9-foss-2022a/share/psi4/basis/jun-cc-pvdz.gbs 


  //>>>>>>>>>>>>>>>>>>>>>>>>>>>>>>>>>>>//
  //              Dimer HF             //
  //<<<<<<<<<<<<<<<<<<<<<<<<<<<<<<<<<<<//

   => Libint2 <=

    Primary   basis highest AM E, G, H:  5, 4, 3
    Auxiliary basis highest AM E, G, H:  6, 5, 4
    Onebody   basis highest AM E, G, H:  6, 5, 4
    Solid Harmonics ordering:            gaussian

*** tstart() called on n2cn1025
*** at Sat Jan 27 10:41:44 2024

   => Loading Basis Set <=

    Name: JUN-CC-PVDZ
    Role: ORBITAL
    Keyword: BASIS
    atoms 1                                                   entry B          line   130 file /opt/software/pc2/EB-SW/software/PSI4/1.9-foss-2022a/share/psi4/basis/jun-cc-pvdz.gbs 
    atoms 2-5                                                 entry F          line   266 file /opt/software/pc2/EB-SW/software/PSI4/1.9-foss-2022a/share/psi4/basis/jun-cc-pvdz.gbs 
    atoms 6-23, 30-42, 45-59, 62-78, 81-93, 98-108, 111-119   entry C          line   164 file /opt/software/pc2/EB-SW/software/PSI4/1.9-foss-2022a/share/psi4/basis/jun-cc-pvdz.gbs 
    atoms 24-29, 43-44, 60-61, 79-80, 94-97, 109-110, 120-125 entry H          line    36 file /opt/software/pc2/EB-SW/software/PSI4/1.9-foss-2022a/share/psi4/basis/jun-cc-pvdz.gbs 


         ---------------------------------------------------------
                                   SCF
               by Justin Turney, Rob Parrish, Andy Simmonett
                          and Daniel G. A. Smith
                              RHF Reference
                       16 Threads,  61035 MiB Core
         ---------------------------------------------------------

  ==> Geometry <==

    Molecular point group: c1
    Full point group: C1

    Geometry (in Angstrom), charge = -1, multiplicity = 1:

       Center              X                  Y                   Z               Mass       
    ------------   -----------------  -----------------  -----------------  -----------------
         B           -0.000201921932     0.000288800891    -5.028041324722    11.009305360000
         F           -0.000004162732     0.000014527991    -3.615256324722    18.998403162730
         F            1.147855837268     0.675795727991    -5.499182324722    18.998403162730
         F            0.011913897268    -1.331996472009    -5.498980324722    18.998403162730
         F           -1.159670162732     0.656088027991    -5.498901324722    18.998403162730
         C           -3.668445426752     7.803766698073     0.373824716614    12.000000000000
         C           -4.847602882078     7.131256359331     0.371458141681    12.000000000000
         C           -4.894963461907     5.696344931522     0.370885230583    12.000000000000
         C           -3.653744841505     4.980744868950     0.378545672313    12.000000000000
         C           -2.409429284226     7.113995564665     0.374019058874    12.000000000000
         C           -2.425481506836     5.681136478894     0.367014170004    12.000000000000
         C           -1.194748179167     7.786158722300     0.375491239416    12.000000000000
         C            0.037954866205     7.099436173748     0.373320535111    12.000000000000
         C            0.030328424687     5.669504087695     0.367837150195    12.000000000000
         C           -1.200988670637     4.969284875906     0.376806884129    12.000000000000
         C            1.277953663083     7.772873971185     0.374696383672    12.000000000000
         C            2.485353921992     7.087711413228     0.372421895767    12.000000000000
         C            2.486124522185     5.654785338231     0.365484146779    12.000000000000
         C            1.254078756912     4.956092641655     0.377112088367    12.000000000000
         C            3.751710428674     7.763926678971     0.372548747147    12.000000000000
         C            4.923561893453     7.078795304981     0.370492266439    12.000000000000
         C            4.955603108594     5.643461991360     0.370331853632    12.000000000000
         C            3.706797371473     4.941224736324     0.375423413802    12.000000000000
         H           -3.658525300490     8.890841947126     0.375509704864     1.007825032230
         H           -1.189217492488     8.874135615351     0.379463115857     1.007825032230
         H            1.284290076155     8.860847963479     0.378855207812     1.007825032230
         H            3.753537924068     8.851049806963     0.374071271463     1.007825032230
         H            5.869954540475     7.613809362646     0.369566899397     1.007825032230
         H           -5.788235870234     7.676316740925     0.369898294325     1.007825032230
         C           -6.091978121428     4.993274541634     0.369012990092    12.000000000000
         C           -6.128665643049     3.582594696789     0.370214167121    12.000000000000
         C           -3.664583902777     3.564196707735     0.367289072503    12.000000000000
         C           -4.894302367430     2.861095303891     0.376458057489    12.000000000000
         C           -2.437339157630     2.847626185075     0.379120851040    12.000000000000
         C           -1.209232020328     3.547901462969     0.365441824248    12.000000000000
         C            1.247137409430     3.534695279420     0.364633217843    12.000000000000
         C            0.015171876837     2.833126367296     0.376317401067    12.000000000000
         C            2.467641009709     2.821304505246     0.376417459191    12.000000000000
         C            3.702545311848     3.524674682415     0.362929498348    12.000000000000
         C            6.144976223652     4.927586894122     0.369098408420    12.000000000000
         C            6.166584196130     3.516599003933     0.371264961857    12.000000000000
         C            4.924605795728     2.808422453345     0.377803708094    12.000000000000
         H            7.089901346909     5.466902294214     0.365336527571     1.007825032230
         H           -7.031045913833     5.542702480848     0.364779775141     1.007825032230
         C           -7.339702203855     2.858426062570     0.368586999679    12.000000000000
         C           -7.364886120791     1.470337899574     0.370352537807    12.000000000000
         C           -4.903508771679     1.444441340151     0.365636273615    12.000000000000
         C           -6.132261315343     0.739953885044     0.377926317598    12.000000000000
         C           -3.676878963248     0.726711670664     0.376263990015    12.000000000000
         C           -2.445660748797     1.429655661253     0.365954279814    12.000000000000
         C           -1.223604844033     0.715339029625     0.377383544345    12.000000000000
         C            0.007633706582     1.417397677228     0.375849198063    12.000000000000
         C            1.231215645015     0.702131218578     0.357022612406    12.000000000000
         C            2.460816937799     1.403306564116     0.376527121297    12.000000000000
         C            3.684426091464     0.687212956203     0.375698335020    12.000000000000
         C            4.918704738807     1.391749089180     0.363296513384    12.000000000000
         C            7.369797915229     2.779496731175     0.369504542065    12.000000000000
         C            7.380158503390     1.391232035846     0.371051224910    12.000000000000
         C            6.139795376391     0.674133151191     0.377379566722    12.000000000000
         H           -8.279194962078     3.407132569115     0.364289447558     1.007825032230
         H            8.315109308748     3.318132624614     0.365293966265     1.007825032230
         C           -8.591760100313     0.724847081035     0.370692965424    12.000000000000
         C           -8.599028766435    -0.632625278238     0.372816090007    12.000000000000
         C           -6.139817301850    -0.674122109163     0.365826748672    12.000000000000
         C           -7.380188274869    -1.391251661591     0.373242810213    12.000000000000
         C           -4.918688642988    -1.391740490039     0.378167246822    12.000000000000
         C           -3.684442458416    -0.687222787745     0.367135006757    12.000000000000
         C           -2.460821202979    -1.403330650834     0.377678092947    12.000000000000
         C           -1.231166175052    -0.702159336890     0.365557714155    12.000000000000
         C           -0.007573788119    -1.417404321420     0.373014238458    12.000000000000
         C            1.223643553157    -0.715260849273     0.383019860407    12.000000000000
         C            2.445666486600    -1.429628761016     0.371269847647    12.000000000000
         C            3.676862540115    -0.726692903565     0.367129263252    12.000000000000
         C            6.132244683688    -0.739964311859     0.365601289040    12.000000000000
         C            4.903514982772    -1.444442992550     0.379442363580    12.000000000000
         C            8.599010685959     0.632618394658     0.370913341054    12.000000000000
         C            8.591741325369    -0.724836339203     0.372649721316    12.000000000000
         C            7.364858601658    -1.470318137615     0.372419544623    12.000000000000
         H           -9.528310134550     1.276861977183     0.369223038460     1.007825032230
         H            9.541406811874     1.174587016435     0.369861308793     1.007825032230
         C           -7.369842072500    -2.779530617943     0.375051018635    12.000000000000
         C           -4.924603271782    -2.808422729350     0.367319386199    12.000000000000
         C           -6.166626658399    -3.516637664835     0.373621226358    12.000000000000
         C           -3.702514522437    -3.524667021130     0.377643455385    12.000000000000
         C           -2.467651147846    -2.821311434813     0.365598817028    12.000000000000
         C           -0.015137636839    -2.833127117409     0.365880405537    12.000000000000
         C           -1.247126003958    -3.534717647572     0.377444358945    12.000000000000
         C            1.209240906912    -3.547900150653     0.379983388737    12.000000000000
         C            2.437331859423    -2.847627210185     0.365843630426    12.000000000000
         C            4.894298181039    -2.861108440295     0.366664370497    12.000000000000
         C            3.664611092309    -3.564205317541     0.379543790438    12.000000000000
         C            6.128634852014    -3.582569529727     0.372889632395    12.000000000000
         C            7.339668501964    -2.858398779380     0.374404858477    12.000000000000
         H           -9.541453273991    -1.174548938674     0.374185506180     1.007825032230
         H            9.528257705340    -1.276904545914     0.373899529077     1.007825032230
         H           -8.315169206580    -3.318135325222     0.379223247166     1.007825032230
         H            8.279150979760    -3.407126261903     0.378744414460     1.007825032230
         C           -6.144998351434    -4.927632744793     0.374947224418    12.000000000000
         C           -3.706787510729    -4.941247186127     0.365126256330    12.000000000000
         C           -4.955594220733    -5.643479445504     0.373093390975    12.000000000000
         C           -2.486125488958    -5.654771046419     0.378065927375    12.000000000000
         C           -1.254062498212    -4.956107522011     0.366890321389    12.000000000000
         C            1.201008411136    -4.969265860202     0.368071445647    12.000000000000
         C           -0.030340837145    -5.669505775148     0.375914645311    12.000000000000
         C            3.653745938597    -4.980729247424     0.368829445395    12.000000000000
         C            2.425488533144    -5.681160107537     0.378206375947    12.000000000000
         C            6.091961455079    -4.993243435396     0.375183859069    12.000000000000
         C            4.894972281879    -5.696333892967     0.373947663238    12.000000000000
         H           -7.089896550772    -5.466985314248     0.379349986099     1.007825032230
         H            7.031051046468    -5.542644008342     0.378763638832     1.007825032230
         C           -4.923549484930    -7.078806571687     0.372538622070    12.000000000000
         C           -2.485346250970    -7.087713549939     0.370028729634    12.000000000000
         C           -3.751690054511    -7.763932629646     0.370223408559    12.000000000000
         C           -0.037953119720    -7.099450346479     0.370244454782    12.000000000000
         C           -1.277960263133    -7.772889856676     0.368259762020    12.000000000000
         C            2.409440157995    -7.114007484012     0.371107655593    12.000000000000
         C            1.194745774421    -7.786170837572     0.368955364711    12.000000000000
         C            4.847616889766    -7.131247582589     0.373614470252    12.000000000000
         C            3.668467443144    -7.803773464953     0.371266035889    12.000000000000
         H           -5.869944513148    -7.613816070051     0.374082658936     1.007825032230
         H            5.788245462656    -7.676317661324     0.374741589734     1.007825032230
         H           -3.753531102181    -8.851057041246     0.368387494131     1.007825032230
         H           -1.284308568626    -8.860860864507     0.363832378162     1.007825032230
         H            1.189217411964    -8.874146092599     0.364862728021     1.007825032230
         H            3.658542452092    -8.890846106063     0.369611494466     1.007825032230

  Running in c1 symmetry.

  Rotational constants: A =      0.00064  B =      0.00064  C =      0.00035 [cm^-1]
  Rotational constants: A =     19.17243  B =     19.16932  C =     10.55117 [MHz]
  Nuclear repulsion = 17418.966723519475636

  Charge       = -1
  Multiplicity = 1
  Electrons    = 642
  Nalpha       = 321
  Nbeta        = 321

  ==> Algorithm <==

  SCF Algorithm Type is DF.
  DIIS enabled.
  MOM disabled.
  Fractional occupation disabled.
  Guess Type is SAD.
  Energy threshold   = 1.00e-08
  Density threshold  = 1.00e-08
  Integral threshold = 1.00e-12

  ==> Primary Basis <==

  Basis Set: JUN-CC-PVDZ
    Blend: JUN-CC-PVDZ
    Number of shells: 880
    Number of basis functions: 1938
    Number of Cartesian functions: 2039
    Spherical Harmonics?: true
    Max angular momentum: 2

   => Loading Basis Set <=

    Name: (JUN-CC-PVDZ AUX)
    Role: JKFIT
    Keyword: DF_BASIS_SCF
    atoms 1                                                   entry B          line    90 file /opt/software/pc2/EB-SW/software/PSI4/1.9-foss-2022a/share/psi4/basis/jun-cc-pvdz-jkfit.gbs 
    atoms 2-5                                                 entry F          line   314 file /opt/software/pc2/EB-SW/software/PSI4/1.9-foss-2022a/share/psi4/basis/jun-cc-pvdz-jkfit.gbs 
    atoms 6-23, 30-42, 45-59, 62-78, 81-93, 98-108, 111-119   entry C          line   146 file /opt/software/pc2/EB-SW/software/PSI4/1.9-foss-2022a/share/psi4/basis/jun-cc-pvdz-jkfit.gbs 
    atoms 24-29, 43-44, 60-61, 79-80, 94-97, 109-110, 120-125 entry H          line    70 file /opt/software/pc2/EB-SW/software/PSI4/1.9-foss-2022a/share/psi4/basis/jun-cc-pvdz-jkfit.gbs 

  ==> Integral Setup <==

  ==> DiskDFJK: Density-Fitted J/K Matrices <==

    J tasked:                  Yes
    K tasked:                  Yes
    wK tasked:                  No
    OpenMP threads:             16
    Integrals threads:          16
    Memory [MiB]:            45776
    Algorithm:                Disk
    Integral Cache:           SAVE
    Schwarz Cutoff:          1E-12
    Fitting Condition:       1E-10

   => Auxiliary Basis Set <=

  Basis Set: (JUN-CC-PVDZ AUX)
    Blend: JUN-CC-PVDZ-JKFIT
    Number of shells: 2943
    Number of basis functions: 8531
    Number of Cartesian functions: 9791
    Spherical Harmonics?: true
    Max angular momentum: 3

  Minimum eigenvalue in the overlap matrix is 9.0170618231E-11.
  Reciprocal condition number of the overlap matrix is 3.9198723297E-12.
    Using canonical orthogonalization.
  Overall, 38 of 1938 possible MOs eliminated.


  ==> Pre-Iterations <==

  SCF Guess: Superposition of Atomic Densities via on-the-fly atomic UHF (no occupation information).

   -------------------------
    Irrep   Nso     Nmo    
   -------------------------
     A       1938    1900 
   -------------------------
    Total    1938    1900
   -------------------------

  ==> Iterations <==

                           Total Energy        Delta E     RMS |[F,P]|

   @DF-RHF iter SAD: -4085.00883608389813   -4.08501e+03   0.00000e+00 
   @DF-RHF iter   1: -4071.51683536998735    1.34920e+01   7.90143e-04 ADIIS/DIIS
   @DF-RHF iter   2: -4072.91629071823172   -1.39946e+00   3.09306e-04 ADIIS/DIIS
   @DF-RHF iter   3: -4073.08128641145004   -1.64996e-01   1.02201e-04 ADIIS/DIIS
   @DF-RHF iter   4: -4073.10322134540320   -2.19349e-02   3.71790e-05 DIIS
   @DF-RHF iter   5: -4073.10652837466750   -3.30703e-03   1.05986e-05 DIIS
   @DF-RHF iter   6: -4073.10695739225048   -4.29018e-04   4.21478e-06 DIIS
   @DF-RHF iter   7: -4073.10713507266155   -1.77680e-04   2.10246e-06 DIIS
   @DF-RHF iter   8: -4073.10718696875210   -5.18961e-05   1.16518e-06 DIIS
   @DF-RHF iter   9: -4073.10720233425855   -1.53655e-05   3.43936e-07 DIIS
   @DF-RHF iter  10: -4073.10720327398803   -9.39729e-07   1.76313e-07 DIIS
   @DF-RHF iter  11: -4073.10720344311221   -1.69124e-07   6.25319e-08 DIIS
   @DF-RHF iter  12: -4073.10720347640108   -3.32889e-08   3.26951e-08 DIIS
   @DF-RHF iter  13: -4073.10720348384484   -7.44376e-09   1.06436e-08 DIIS
   @DF-RHF iter  14: -4073.10720348459517   -7.50333e-10   4.42555e-09 DIIS
  Energy and wave function converged.


  ==> Post-Iterations <==

    Orbital Energies [Eh]
    ---------------------

    Doubly Occupied:                                                      

       1A    -26.073662     2A    -26.069715     3A    -26.069622  
       4A    -26.069536     5A    -11.204504     6A    -11.204493  
       7A    -11.204493     8A    -11.204492     9A    -11.204487  
      10A    -11.204482    11A    -11.204480    12A    -11.204475  
      13A    -11.204472    14A    -11.204470    15A    -11.204470  
      16A    -11.204458    17A    -11.204039    18A    -11.204019  
      19A    -11.204017    20A    -11.204016    21A    -11.203999  
      22A    -11.203993    23A    -11.201946    24A    -11.201931  
      25A    -11.201924    26A    -11.201878    27A    -11.201876  
      28A    -11.201828    29A    -11.201743    30A    -11.201680  
      31A    -11.201679    32A    -11.201600    33A    -11.201596  
      34A    -11.201562    35A    -11.200768    36A    -11.200741  
      37A    -11.200734    38A    -11.200680    39A    -11.200671  
      40A    -11.200645    41A    -11.200331    42A    -11.200328  
      43A    -11.200319    44A    -11.200318    45A    -11.200318  
      46A    -11.200317    47A    -11.199981    48A    -11.199968  
      49A    -11.199961    50A    -11.199941    51A    -11.199925  
      52A    -11.199922    53A    -11.199718    54A    -11.199715  
      55A    -11.199713    56A    -11.199650    57A    -11.199647  
      58A    -11.199574    59A    -11.199499    60A    -11.199489  
      61A    -11.199477    62A    -11.199466    63A    -11.199458  
      64A    -11.199446    65A    -11.198883    66A    -11.198879  
      67A    -11.198876    68A    -11.198869    69A    -11.198868  
      70A    -11.198867    71A    -11.198866    72A    -11.198778  
      73A    -11.198758    74A    -11.198559    75A    -11.198556  
      76A    -11.198441    77A    -11.197990    78A    -11.197708  
      79A    -11.197702    80A    -11.197424    81A    -11.197404  
      82A    -11.197338    83A    -11.196970    84A    -11.196707  
      85A    -11.196702    86A    -11.196702    87A    -11.196693  
      88A    -11.196682    89A    -11.196627    90A    -11.196625  
      91A    -11.196619    92A    -11.196609    93A    -11.196608  
      94A    -11.196600    95A    -11.196533    96A    -11.196532  
      97A    -11.196527    98A    -11.195859    99A    -11.195808  
     100A    -11.195345   101A     -7.542831   102A     -1.414532  
     103A     -1.356687   104A     -1.353821   105A     -1.353657  
     106A     -1.190908   107A     -1.178174   108A     -1.178169  
     109A     -1.160897   110A     -1.160890   111A     -1.153591  
     112A     -1.142548   113A     -1.136521   114A     -1.127029  
     115A     -1.127024   116A     -1.115542   117A     -1.115539  
     118A     -1.095151   119A     -1.095151   120A     -1.091775  
     121A     -1.086805   122A     -1.086802   123A     -1.069198  
     124A     -1.055241   125A     -1.054447   126A     -1.054025  
     127A     -1.051924   128A     -1.051909   129A     -1.029238  
     130A     -1.029224   131A     -1.019227   132A     -1.019226  
     133A     -1.007789   134A     -1.007759   135A     -1.004474  
     136A     -0.988053   137A     -0.988044   138A     -0.981633  
     139A     -0.980995   140A     -0.980994   141A     -0.964987  
     142A     -0.959647   143A     -0.959597   144A     -0.948922  
     145A     -0.947303   146A     -0.944807   147A     -0.940753  
     148A     -0.940707   149A     -0.933777   150A     -0.911518  
     151A     -0.911473   152A     -0.897649   153A     -0.897594  
     154A     -0.848506   155A     -0.848465   156A     -0.844832  
     157A     -0.844789   158A     -0.842778   159A     -0.831354  
     160A     -0.831294   161A     -0.829855   162A     -0.829797  
     163A     -0.829778   164A     -0.814480   165A     -0.812865  
     166A     -0.793735   167A     -0.788004   168A     -0.787984  
     169A     -0.785230   170A     -0.783559   171A     -0.776038  
     172A     -0.776026   173A     -0.770911   174A     -0.770908  
     175A     -0.727475   176A     -0.727459   177A     -0.723343  
     178A     -0.723324   179A     -0.723258   180A     -0.723239  
     181A     -0.722111   182A     -0.708309   183A     -0.700428  
     184A     -0.690870   185A     -0.676293   186A     -0.668411  
     187A     -0.668396   188A     -0.666178   189A     -0.665865  
     190A     -0.665845   191A     -0.658145   192A     -0.654092  
     193A     -0.654089   194A     -0.641638   195A     -0.641626  
     196A     -0.628176   197A     -0.628173   198A     -0.626195  
     199A     -0.623886   200A     -0.623876   201A     -0.620190  
     202A     -0.605894   203A     -0.595836   204A     -0.592759  
     205A     -0.592729   206A     -0.591872   207A     -0.590143  
     208A     -0.590128   209A     -0.582059   210A     -0.581570  
     211A     -0.581542   212A     -0.581367   213A     -0.577026  
     214A     -0.576997   215A     -0.570577   216A     -0.557861  
     217A     -0.557836   218A     -0.553680   219A     -0.550908  
     220A     -0.550901   221A     -0.540207   222A     -0.539293  
     223A     -0.539282   224A     -0.539121   225A     -0.537898  
     226A     -0.537887   227A     -0.537465   228A     -0.537453  
     229A     -0.536713   230A     -0.532991   231A     -0.532849  
     232A     -0.532847   233A     -0.532842   234A     -0.531603  
     235A     -0.531520   236A     -0.527019   237A     -0.521358  
     238A     -0.521348   239A     -0.516057   240A     -0.516055  
     241A     -0.515483   242A     -0.509560   243A     -0.509548  
     244A     -0.507429   245A     -0.507386   246A     -0.506698  
     247A     -0.504433   248A     -0.501528   249A     -0.499615  
     250A     -0.499595   251A     -0.495467   252A     -0.492247  
     253A     -0.491511   254A     -0.485281   255A     -0.475669  
     256A     -0.475664   257A     -0.473235   258A     -0.473203  
     259A     -0.470152   260A     -0.470132   261A     -0.467687  
     262A     -0.458321   263A     -0.458291   264A     -0.457408  
     265A     -0.457401   266A     -0.452199   267A     -0.452181  
     268A     -0.450868   269A     -0.450828   270A     -0.439514  
     271A     -0.437563   272A     -0.437536   273A     -0.433001  
     274A     -0.432991   275A     -0.427718   276A     -0.423994  
     277A     -0.419878   278A     -0.419876   279A     -0.415896  
     280A     -0.412459   281A     -0.411859   282A     -0.411775  
     283A     -0.409655   284A     -0.407539   285A     -0.407532  
     286A     -0.399403   287A     -0.388987   288A     -0.388920  
     289A     -0.387454   290A     -0.385628   291A     -0.385567  
     292A     -0.380544   293A     -0.379545   294A     -0.379531  
     295A     -0.377598   296A     -0.376393   297A     -0.348053  
     298A     -0.348028   299A     -0.328581   300A     -0.328577  
     301A     -0.326019   302A     -0.325971   303A     -0.322586  
     304A     -0.295417   305A     -0.295402   306A     -0.291555  
     307A     -0.275614   308A     -0.275609   309A     -0.275419  
     310A     -0.271897   311A     -0.271797   312A     -0.246559  
     313A     -0.242358   314A     -0.241104   315A     -0.241037  
     316A     -0.227660   317A     -0.200329   318A     -0.192774  
     319A     -0.192706   320A     -0.145434   321A     -0.145343  

    Virtual:                                                              

     322A      0.047050   323A      0.047130   324A      0.090594  
     325A      0.090772   326A      0.090780   327A      0.093194  
     328A      0.093211   329A      0.095251   330A      0.095431  
     331A      0.095493   332A      0.098619   333A      0.101125  
     334A      0.106597   335A      0.106606   336A      0.117903  
     337A      0.117909   338A      0.123402   339A      0.125449  
     340A      0.126960   341A      0.130100   342A      0.130212  
     343A      0.131494   344A      0.131786   345A      0.133410  
     346A      0.133442   347A      0.133460   348A      0.134084  
     349A      0.134164   350A      0.138328   351A      0.138341  
     352A      0.141245   353A      0.144114   354A      0.144142  
     355A      0.144192   356A      0.145470   357A      0.145537  
     358A      0.151229   359A      0.156009   360A      0.156035  
     361A      0.156624   362A      0.159675   363A      0.159758  
     364A      0.159808   365A      0.160925   366A      0.162966  
     367A      0.163125   368A      0.165264   369A      0.166276  
     370A      0.167595   371A      0.167747   372A      0.168055  
     373A      0.168292   374A      0.172846   375A      0.174813  
     376A      0.174829   377A      0.176556   378A      0.176635  
     379A      0.181700   380A      0.181716   381A      0.182408  
     382A      0.184709   383A      0.185778   384A      0.189505  
     385A      0.189680   386A      0.193882   387A      0.193907  
     388A      0.194738   389A      0.195717   390A      0.195855  
     391A      0.199340   392A      0.199411   393A      0.205376  
     394A      0.209615   395A      0.209652   396A      0.209768  
     397A      0.210996   398A      0.212317   399A      0.212340  
     400A      0.213146   401A      0.213322   402A      0.213618  
     403A      0.217701   404A      0.217988   405A      0.218790  
     406A      0.218792   407A      0.219819   408A      0.220289  
     409A      0.220325   410A      0.222635   411A      0.222890  
     412A      0.228570   413A      0.229671   414A      0.229750  
     415A      0.232225   416A      0.232236   417A      0.237268  
     418A      0.237309   419A      0.238574   420A      0.238812  
     421A      0.238925   422A      0.241886   423A      0.245684  
     424A      0.246130   425A      0.247819   426A      0.247929  
     427A      0.250944   428A      0.251492   429A      0.252901  
     430A      0.253714   431A      0.253855   432A      0.253967  
     433A      0.254505   434A      0.254837   435A      0.257175  
     436A      0.257214   437A      0.258213   438A      0.264371  
     439A      0.264408   440A      0.265960   441A      0.266041  
     442A      0.266264   443A      0.267180   444A      0.267271  
     445A      0.267993   446A      0.268892   447A      0.268990  
     448A      0.269741   449A      0.269929   450A      0.271152  
     451A      0.271242   452A      0.273017   453A      0.273059  
     454A      0.279296   455A      0.279688   456A      0.279881  
     457A      0.279979   458A      0.280290   459A      0.281385  
     460A      0.284704   461A      0.286572   462A      0.286800  
     463A      0.286883   464A      0.287868   465A      0.289584  
     466A      0.289611   467A      0.290509   468A      0.292053  
     469A      0.292134   470A      0.298951   471A      0.299134  
     472A      0.300546   473A      0.300708   474A      0.303678  
     475A      0.306280   476A      0.309431   477A      0.309884  
     478A      0.310926   479A      0.310981   480A      0.311718  
     481A      0.311918   482A      0.312990   483A      0.314819  
     484A      0.315089   485A      0.315111   486A      0.317401  
     487A      0.318042   488A      0.318927   489A      0.319530  
     490A      0.319686   491A      0.322047   492A      0.322682  
     493A      0.322714   494A      0.324572   495A      0.324609  
     496A      0.332125   497A      0.332173   498A      0.332915  
     499A      0.334058   500A      0.334123   501A      0.336699  
     502A      0.338037   503A      0.338233   504A      0.340288  
     505A      0.340716   506A      0.341234   507A      0.341329  
     508A      0.343253   509A      0.344523   510A      0.347540  
     511A      0.348123   512A      0.351609   513A      0.352987  
     514A      0.353086   515A      0.353601   516A      0.355693  
     517A      0.359132   518A      0.359346   519A      0.359745  
     520A      0.359815   521A      0.360693   522A      0.360743  
     523A      0.361938   524A      0.362363   525A      0.362863  
     526A      0.365272   527A      0.365366   528A      0.365541  
     529A      0.368819   530A      0.368948   531A      0.369207  
     532A      0.369311   533A      0.369338   534A      0.373849  
     535A      0.373870   536A      0.374247   537A      0.376873  
     538A      0.376931   539A      0.380030   540A      0.380145  
     541A      0.380536   542A      0.381533   543A      0.381598  
     544A      0.383072   545A      0.383118   546A      0.384587  
     547A      0.384806   548A      0.385404   549A      0.387240  
     550A      0.387394   551A      0.390552   552A      0.392495  
     553A      0.392591   554A      0.394423   555A      0.395955  
     556A      0.395997   557A      0.397700   558A      0.397940  
     559A      0.399246   560A      0.399272   561A      0.401755  
     562A      0.401975   563A      0.408739   564A      0.409074  
     565A      0.410069   566A      0.410095   567A      0.411900  
     568A      0.412235   569A      0.413434   570A      0.414703  
     571A      0.415829   572A      0.416181   573A      0.417608  
     574A      0.417826   575A      0.418955   576A      0.419688  
     577A      0.420364   578A      0.421744   579A      0.421822  
     580A      0.424290   581A      0.424305   582A      0.425869  
     583A      0.430251   584A      0.430344   585A      0.432392  
     586A      0.432402   587A      0.434157   588A      0.436777  
     589A      0.436941   590A      0.437302   591A      0.437363  
     592A      0.443036   593A      0.443330   594A      0.443407  
     595A      0.444224   596A      0.444307   597A      0.447704  
     598A      0.448750   599A      0.448884   600A      0.450836  
     601A      0.452075   602A      0.452077   603A      0.452465  
     604A      0.452614   605A      0.453831   606A      0.455086  
     607A      0.455137   608A      0.456022   609A      0.456943  
     610A      0.457096   611A      0.457647   612A      0.458161  
     613A      0.459910   614A      0.460315   615A      0.462547  
     616A      0.463241   617A      0.464171   618A      0.464240  
     619A      0.465794   620A      0.465895   621A      0.466147  
     622A      0.466955   623A      0.466985   624A      0.467205  
     625A      0.468496   626A      0.468681   627A      0.470362  
     628A      0.470486   629A      0.471170   630A      0.473504  
     631A      0.473604   632A      0.475466   633A      0.475761  
     634A      0.477599   635A      0.477744   636A      0.477890  
     637A      0.479218   638A      0.479499   639A      0.481824  
     640A      0.482446   641A      0.482987   642A      0.484717  
     643A      0.485754   644A      0.487789   645A      0.488009  
     646A      0.488530   647A      0.488754   648A      0.490535  
     649A      0.491315   650A      0.491326   651A      0.492224  
     652A      0.492289   653A      0.493674   654A      0.496816  
     655A      0.497072   656A      0.497497   657A      0.498174  
     658A      0.498761   659A      0.499750   660A      0.500966  
     661A      0.504610   662A      0.504666   663A      0.505878  
     664A      0.505904   665A      0.506176   666A      0.507623  
     667A      0.509644   668A      0.509728   669A      0.510772  
     670A      0.511827   671A      0.512398   672A      0.512895  
     673A      0.513385   674A      0.514520   675A      0.515476  
     676A      0.519527   677A      0.521522   678A      0.521772  
     679A      0.523268   680A      0.523765   681A      0.524886  
     682A      0.525308   683A      0.525601   684A      0.525931  
     685A      0.526492   686A      0.530955   687A      0.533497  
     688A      0.533535   689A      0.533605   690A      0.533749  
     691A      0.535062   692A      0.535471   693A      0.535533  
     694A      0.539423   695A      0.539565   696A      0.540602  
     697A      0.541129   698A      0.541198   699A      0.543120  
     700A      0.543458   701A      0.543913   702A      0.548699  
     703A      0.548897   704A      0.549161   705A      0.550135  
     706A      0.550469   707A      0.550543   708A      0.552245  
     709A      0.552587   710A      0.552927   711A      0.553026  
     712A      0.555428   713A      0.555639   714A      0.556218  
     715A      0.557850   716A      0.558148   717A      0.559481  
     718A      0.559537   719A      0.562963   720A      0.564350  
     721A      0.565521   722A      0.566374   723A      0.566606  
     724A      0.570877   725A      0.571455   726A      0.573154  
     727A      0.575478   728A      0.575815   729A      0.576783  
     730A      0.578061   731A      0.578433   732A      0.578858  
     733A      0.581841   734A      0.584056   735A      0.584147  
     736A      0.584363   737A      0.585862   738A      0.586040  
     739A      0.591908   740A      0.592635   741A      0.594070  
     742A      0.594260   743A      0.595305   744A      0.595827  
     745A      0.596537   746A      0.600754   747A      0.603923  
     748A      0.606909   749A      0.607544   750A      0.613850  
     751A      0.614531   752A      0.617940   753A      0.618510  
     754A      0.620992   755A      0.621567   756A      0.622956  
     757A      0.623284   758A      0.624380   759A      0.624748  
     760A      0.627103   761A      0.627535   762A      0.631441  
     763A      0.631542   764A      0.633286   765A      0.638643  
     766A      0.639781   767A      0.641180   768A      0.643547  
     769A      0.645101   770A      0.645702   771A      0.646560  
     772A      0.647071   773A      0.648023   774A      0.648542  
     775A      0.648597   776A      0.649637   777A      0.655294  
     778A      0.655619   779A      0.657278   780A      0.657573  
     781A      0.660219   782A      0.664160   783A      0.664666  
     784A      0.664821   785A      0.666826   786A      0.670052  
     787A      0.672241   788A      0.673565   789A      0.673890  
     790A      0.677297   791A      0.679586   792A      0.679681  
     793A      0.681784   794A      0.685718   795A      0.687048  
     796A      0.688021   797A      0.691778   798A      0.692663  
     799A      0.695271   800A      0.698050   801A      0.699658  
     802A      0.699903   803A      0.703871   804A      0.705431  
     805A      0.705499   806A      0.718344   807A      0.718945  
     808A      0.719330   809A      0.720333   810A      0.720565  
     811A      0.720968   812A      0.722021   813A      0.725421  
     814A      0.729401   815A      0.730705   816A      0.731030  
     817A      0.735331   818A      0.737859   819A      0.738237  
     820A      0.747333   821A      0.748123   822A      0.748861  
     823A      0.748934   824A      0.749935   825A      0.751855  
     826A      0.753065   827A      0.754015   828A      0.754404  
     829A      0.755169   830A      0.763702   831A      0.765498  
     832A      0.766461   833A      0.767706   834A      0.769593  
     835A      0.772619   836A      0.773019   837A      0.774704  
     838A      0.776372   839A      0.780400   840A      0.784928  
     841A      0.789609   842A      0.790156   843A      0.791926  
     844A      0.798622   845A      0.800641   846A      0.802312  
     847A      0.805452   848A      0.810145   849A      0.810431  
     850A      0.811983   851A      0.812099   852A      0.813979  
     853A      0.821589   854A      0.831642   855A      0.837722  
     856A      0.845741   857A      0.847315   858A      0.847570  
     859A      0.849120   860A      0.851314   861A      0.852797  
     862A      0.855257   863A      0.858737   864A      0.859547  
     865A      0.860773   866A      0.863229   867A      0.864337  
     868A      0.867304   869A      0.869049   870A      0.872147  
     871A      0.872639   872A      0.873411   873A      0.873884  
     874A      0.875696   875A      0.876037   876A      0.884694  
     877A      0.885955   878A      0.886572   879A      0.893835  
     880A      0.894151   881A      0.894986   882A      0.896120  
     883A      0.898306   884A      0.899791   885A      0.902026  
     886A      0.903020   887A      0.903817   888A      0.905541  
     889A      0.908510   890A      0.911233   891A      0.915209  
     892A      0.916946   893A      0.917943   894A      0.919484  
     895A      0.919721   896A      0.919899   897A      0.924605  
     898A      0.925241   899A      0.926241   900A      0.926901  
     901A      0.930623   902A      0.931357   903A      0.932075  
     904A      0.932828   905A      0.933614   906A      0.934497  
     907A      0.937008   908A      0.937727   909A      0.939830  
     910A      0.940791   911A      0.942231   912A      0.942624  
     913A      0.945136   914A      0.949534   915A      0.951187  
     916A      0.953290   917A      0.954451   918A      0.955656  
     919A      0.956268   920A      0.956430   921A      0.957612  
     922A      0.962674   923A      0.963386   924A      0.965275  
     925A      0.966785   926A      0.968469   927A      0.970722  
     928A      0.972842   929A      0.973125   930A      0.976671  
     931A      0.978369   932A      0.978450   933A      0.978905  
     934A      0.979165   935A      0.981637   936A      0.985345  
     937A      0.986083   938A      0.990147   939A      0.990585  
     940A      0.991264   941A      0.991810   942A      0.993235  
     943A      0.995897   944A      0.996117   945A      0.997379  
     946A      1.001878   947A      1.004808   948A      1.006739  
     949A      1.007399   950A      1.007707   951A      1.008011  
     952A      1.010051   953A      1.010144   954A      1.011724  
     955A      1.013310   956A      1.013694   957A      1.013760  
     958A      1.014004   959A      1.021980   960A      1.022175  
     961A      1.023922   962A      1.026405   963A      1.026708  
     964A      1.030696   965A      1.034524   966A      1.037476  
     967A      1.038173   968A      1.041120   969A      1.043168  
     970A      1.046489   971A      1.046835   972A      1.051708  
     973A      1.051757   974A      1.056494   975A      1.061532  
     976A      1.061611   977A      1.062586   978A      1.062980  
     979A      1.063183   980A      1.064100   981A      1.064829  
     982A      1.071951   983A      1.072439   984A      1.073565  
     985A      1.074517   986A      1.076096   987A      1.076642  
     988A      1.076903   989A      1.078662   990A      1.086613  
     991A      1.087077   992A      1.089112   993A      1.089531  
     994A      1.091579   995A      1.093392   996A      1.094984  
     997A      1.095506   998A      1.103558   999A      1.103633  
    1000A      1.105360  1001A      1.105797  1002A      1.106365  
    1003A      1.106731  1004A      1.107277  1005A      1.108888  
    1006A      1.109353  1007A      1.109547  1008A      1.112190  
    1009A      1.112656  1010A      1.116572  1011A      1.116640  
    1012A      1.118658  1013A      1.120080  1014A      1.120394  
    1015A      1.120823  1016A      1.123991  1017A      1.127038  
    1018A      1.127799  1019A      1.128810  1020A      1.129159  
    1021A      1.129273  1022A      1.130294  1023A      1.130492  
    1024A      1.132781  1025A      1.133099  1026A      1.133480  
    1027A      1.134150  1028A      1.135500  1029A      1.135690  
    1030A      1.136109  1031A      1.136277  1032A      1.136597  
    1033A      1.137392  1034A      1.138662  1035A      1.138833  
    1036A      1.140273  1037A      1.140287  1038A      1.141590  
    1039A      1.141867  1040A      1.143470  1041A      1.143951  
    1042A      1.144382  1043A      1.144640  1044A      1.146628  
    1045A      1.146792  1046A      1.147312  1047A      1.147992  
    1048A      1.148079  1049A      1.150932  1050A      1.154124  
    1051A      1.154544  1052A      1.157450  1053A      1.157789  
    1054A      1.158495  1055A      1.160616  1056A      1.160679  
    1057A      1.161777  1058A      1.162123  1059A      1.163393  
    1060A      1.171164  1061A      1.171301  1062A      1.172874  
    1063A      1.174569  1064A      1.176083  1065A      1.176622  
    1066A      1.182847  1067A      1.184436  1068A      1.184621  
    1069A      1.189221  1070A      1.190652  1071A      1.191687  
    1072A      1.192012  1073A      1.193590  1074A      1.195797  
    1075A      1.198369  1076A      1.198502  1077A      1.199157  
    1078A      1.201828  1079A      1.202191  1080A      1.203117  
    1081A      1.207544  1082A      1.209858  1083A      1.210273  
    1084A      1.210812  1085A      1.211623  1086A      1.211775  
    1087A      1.213372  1088A      1.215368  1089A      1.216434  
    1090A      1.216541  1091A      1.222653  1092A      1.228084  
    1093A      1.229042  1094A      1.229312  1095A      1.231011  
    1096A      1.231662  1097A      1.238175  1098A      1.242268  
    1099A      1.242569  1100A      1.243948  1101A      1.246810  
    1102A      1.246910  1103A      1.248088  1104A      1.249547  
    1105A      1.253596  1106A      1.254046  1107A      1.259417  
    1108A      1.262105  1109A      1.262344  1110A      1.264005  
    1111A      1.266715  1112A      1.267823  1113A      1.269649  
    1114A      1.270900  1115A      1.271971  1116A      1.272428  
    1117A      1.274578  1118A      1.276757  1119A      1.278290  
    1120A      1.278729  1121A      1.281704  1122A      1.282854  
    1123A      1.285970  1124A      1.292938  1125A      1.295502  
    1126A      1.304641  1127A      1.310076  1128A      1.310641  
    1129A      1.310752  1130A      1.311267  1131A      1.311779  
    1132A      1.317383  1133A      1.319936  1134A      1.320131  
    1135A      1.323611  1136A      1.325443  1137A      1.326011  
    1138A      1.328598  1139A      1.328976  1140A      1.339852  
    1141A      1.339952  1142A      1.345610  1143A      1.347453  
    1144A      1.349869  1145A      1.351206  1146A      1.351309  
    1147A      1.351663  1148A      1.355039  1149A      1.358702  
    1150A      1.359204  1151A      1.360429  1152A      1.360938  
    1153A      1.362088  1154A      1.363105  1155A      1.363368  
    1156A      1.370623  1157A      1.371302  1158A      1.372347  
    1159A      1.374996  1160A      1.375221  1161A      1.377097  
    1162A      1.377526  1163A      1.378931  1164A      1.382588  
    1165A      1.383358  1166A      1.384306  1167A      1.384567  
    1168A      1.387504  1169A      1.387726  1170A      1.392805  
    1171A      1.393051  1172A      1.393582  1173A      1.395341  
    1174A      1.399550  1175A      1.399766  1176A      1.409236  
    1177A      1.411176  1178A      1.411432  1179A      1.415112  
    1180A      1.415246  1181A      1.418390  1182A      1.418551  
    1183A      1.419788  1184A      1.421407  1185A      1.421567  
    1186A      1.425351  1187A      1.430047  1188A      1.431123  
    1189A      1.433751  1190A      1.436416  1191A      1.438260  
    1192A      1.446032  1193A      1.446169  1194A      1.446517  
    1195A      1.450280  1196A      1.450579  1197A      1.453415  
    1198A      1.454022  1199A      1.464789  1200A      1.466467  
    1201A      1.466588  1202A      1.467334  1203A      1.468237  
    1204A      1.468509  1205A      1.468835  1206A      1.469267  
    1207A      1.473846  1208A      1.474630  1209A      1.481100  
    1210A      1.481319  1211A      1.482402  1212A      1.482690  
    1213A      1.486990  1214A      1.487212  1215A      1.489456  
    1216A      1.491509  1217A      1.492187  1218A      1.494473  
    1219A      1.494954  1220A      1.495768  1221A      1.496045  
    1222A      1.498745  1223A      1.501292  1224A      1.501595  
    1225A      1.505642  1226A      1.510758  1227A      1.511592  
    1228A      1.511796  1229A      1.513873  1230A      1.514530  
    1231A      1.514692  1232A      1.527228  1233A      1.528812  
    1234A      1.530226  1235A      1.530925  1236A      1.531904  
    1237A      1.532325  1238A      1.532923  1239A      1.536131  
    1240A      1.543421  1241A      1.543467  1242A      1.544442  
    1243A      1.548299  1244A      1.551593  1245A      1.557889  
    1246A      1.557995  1247A      1.561224  1248A      1.566189  
    1249A      1.566378  1250A      1.567638  1251A      1.577448  
    1252A      1.578006  1253A      1.596741  1254A      1.596881  
    1255A      1.598872  1256A      1.604914  1257A      1.614181  
    1258A      1.614227  1259A      1.644945  1260A      1.645167  
    1261A      1.646082  1262A      1.646514  1263A      1.656354  
    1264A      1.661697  1265A      1.664287  1266A      1.667380  
    1267A      1.667739  1268A      1.668179  1269A      1.668693  
    1270A      1.670832  1271A      1.671335  1272A      1.671831  
    1273A      1.672839  1274A      1.676131  1275A      1.676240  
    1276A      1.677053  1277A      1.677323  1278A      1.680018  
    1279A      1.680681  1280A      1.681189  1281A      1.683264  
    1282A      1.684340  1283A      1.686711  1284A      1.686889  
    1285A      1.687800  1286A      1.690864  1287A      1.692115  
    1288A      1.694918  1289A      1.696617  1290A      1.697064  
    1291A      1.697622  1292A      1.697802  1293A      1.698785  
    1294A      1.699419  1295A      1.699820  1296A      1.701165  
    1297A      1.701523  1298A      1.701719  1299A      1.703351  
    1300A      1.707529  1301A      1.710102  1302A      1.710461  
    1303A      1.714629  1304A      1.714724  1305A      1.715627  
    1306A      1.716076  1307A      1.725371  1308A      1.725754  
    1309A      1.729008  1310A      1.729069  1311A      1.729507  
    1312A      1.730306  1313A      1.730553  1314A      1.733081  
    1315A      1.734392  1316A      1.735542  1317A      1.738794  
    1318A      1.739284  1319A      1.746219  1320A      1.748435  
    1321A      1.752970  1322A      1.753193  1323A      1.756264  
    1324A      1.756632  1325A      1.757429  1326A      1.759228  
    1327A      1.766902  1328A      1.766984  1329A      1.769847  
    1330A      1.773737  1331A      1.773788  1332A      1.774410  
    1333A      1.777639  1334A      1.779626  1335A      1.782623  
    1336A      1.783066  1337A      1.784805  1338A      1.784833  
    1339A      1.789496  1340A      1.796261  1341A      1.806591  
    1342A      1.806656  1343A      1.807606  1344A      1.807834  
    1345A      1.811145  1346A      1.823531  1347A      1.825439  
    1348A      1.826079  1349A      1.839010  1350A      1.840777  
    1351A      1.842885  1352A      1.843577  1353A      1.864812  
    1354A      1.865008  1355A      1.868458  1356A      1.877090  
    1357A      1.881512  1358A      1.884401  1359A      1.884662  
    1360A      1.885288  1361A      1.885447  1362A      1.886156  
    1363A      1.891041  1364A      1.891361  1365A      1.891779  
    1366A      1.897283  1367A      1.897295  1368A      1.898076  
    1369A      1.900565  1370A      1.906493  1371A      1.907568  
    1372A      1.912209  1373A      1.912287  1374A      1.918717  
    1375A      1.919211  1376A      1.923157  1377A      1.923229  
    1378A      1.925219  1379A      1.925497  1380A      1.927827  
    1381A      1.928238  1382A      1.929624  1383A      1.930090  
    1384A      1.931389  1385A      1.937610  1386A      1.938050  
    1387A      1.939138  1388A      1.941056  1389A      1.942661  
    1390A      1.943206  1391A      1.944956  1392A      1.946486  
    1393A      1.949209  1394A      1.951521  1395A      1.960806  
    1396A      1.961022  1397A      1.962853  1398A      1.963250  
    1399A      1.969058  1400A      1.969669  1401A      1.974418  
    1402A      1.975711  1403A      1.981225  1404A      1.982289  
    1405A      1.983018  1406A      1.985084  1407A      1.985119  
    1408A      1.985610  1409A      1.990423  1410A      1.991906  
    1411A      1.994553  1412A      1.994694  1413A      1.995675  
    1414A      1.996901  1415A      1.998661  1416A      1.998799  
    1417A      2.001588  1418A      2.003090  1419A      2.003300  
    1420A      2.003632  1421A      2.004772  1422A      2.010567  
    1423A      2.014331  1424A      2.014688  1425A      2.017402  
    1426A      2.017646  1427A      2.019290  1428A      2.019901  
    1429A      2.024245  1430A      2.024675  1431A      2.026882  
    1432A      2.028443  1433A      2.030042  1434A      2.032038  
    1435A      2.032543  1436A      2.034892  1437A      2.036914  
    1438A      2.040713  1439A      2.042784  1440A      2.046419  
    1441A      2.047278  1442A      2.047388  1443A      2.050171  
    1444A      2.050296  1445A      2.052852  1446A      2.054159  
    1447A      2.054727  1448A      2.056893  1449A      2.062313  
    1450A      2.064311  1451A      2.069679  1452A      2.069998  
    1453A      2.070805  1454A      2.074368  1455A      2.074753  
    1456A      2.076966  1457A      2.077812  1458A      2.079928  
    1459A      2.081013  1460A      2.081449  1461A      2.082417  
    1462A      2.084590  1463A      2.088324  1464A      2.089961  
    1465A      2.091570  1466A      2.093594  1467A      2.094548  
    1468A      2.096087  1469A      2.096968  1470A      2.098868  
    1471A      2.107102  1472A      2.108957  1473A      2.111558  
    1474A      2.112897  1475A      2.114962  1476A      2.116720  
    1477A      2.117800  1478A      2.118712  1479A      2.119772  
    1480A      2.122081  1481A      2.122807  1482A      2.123495  
    1483A      2.126351  1484A      2.128214  1485A      2.129887  
    1486A      2.130452  1487A      2.135891  1488A      2.137914  
    1489A      2.138588  1490A      2.139531  1491A      2.140517  
    1492A      2.141408  1493A      2.141678  1494A      2.142964  
    1495A      2.143670  1496A      2.145949  1497A      2.146763  
    1498A      2.147018  1499A      2.147230  1500A      2.147728  
    1501A      2.148550  1502A      2.150288  1503A      2.150882  
    1504A      2.152933  1505A      2.154069  1506A      2.155138  
    1507A      2.157330  1508A      2.157585  1509A      2.159704  
    1510A      2.160248  1511A      2.161334  1512A      2.163129  
    1513A      2.165483  1514A      2.166829  1515A      2.170088  
    1516A      2.171211  1517A      2.172092  1518A      2.174864  
    1519A      2.175820  1520A      2.176460  1521A      2.177502  
    1522A      2.177882  1523A      2.178802  1524A      2.180507  
    1525A      2.184818  1526A      2.185370  1527A      2.185530  
    1528A      2.188082  1529A      2.188545  1530A      2.189182  
    1531A      2.192182  1532A      2.193893  1533A      2.198206  
    1534A      2.198443  1535A      2.200688  1536A      2.201248  
    1537A      2.202138  1538A      2.202268  1539A      2.202756  
    1540A      2.203594  1541A      2.212290  1542A      2.214618  
    1543A      2.215590  1544A      2.217532  1545A      2.218380  
    1546A      2.218863  1547A      2.219216  1548A      2.219566  
    1549A      2.220511  1550A      2.221494  1551A      2.222256  
    1552A      2.230156  1553A      2.230847  1554A      2.239306  
    1555A      2.239916  1556A      2.240100  1557A      2.241111  
    1558A      2.249132  1559A      2.250926  1560A      2.252013  
    1561A      2.253306  1562A      2.254247  1563A      2.256309  
    1564A      2.258256  1565A      2.258630  1566A      2.259388  
    1567A      2.260610  1568A      2.262299  1569A      2.263015  
    1570A      2.263955  1571A      2.264099  1572A      2.265148  
    1573A      2.269391  1574A      2.273491  1575A      2.274203  
    1576A      2.279109  1577A      2.280028  1578A      2.280184  
    1579A      2.281537  1580A      2.285248  1581A      2.285628  
    1582A      2.287399  1583A      2.287593  1584A      2.289832  
    1585A      2.290538  1586A      2.298479  1587A      2.300012  
    1588A      2.300759  1589A      2.303498  1590A      2.304312  
    1591A      2.304735  1592A      2.313617  1593A      2.314615  
    1594A      2.316480  1595A      2.318124  1596A      2.322296  
    1597A      2.323888  1598A      2.325278  1599A      2.326032  
    1600A      2.336286  1601A      2.341219  1602A      2.342887  
    1603A      2.348230  1604A      2.348702  1605A      2.353440  
    1606A      2.357111  1607A      2.361662  1608A      2.361988  
    1609A      2.367206  1610A      2.379920  1611A      2.382299  
    1612A      2.383754  1613A      2.384741  1614A      2.386742  
    1615A      2.388029  1616A      2.388463  1617A      2.391596  
    1618A      2.393567  1619A      2.394394  1620A      2.395235  
    1621A      2.399036  1622A      2.400955  1623A      2.401275  
    1624A      2.402158  1625A      2.402459  1626A      2.404202  
    1627A      2.404442  1628A      2.404669  1629A      2.411291  
    1630A      2.411532  1631A      2.431121  1632A      2.435309  
    1633A      2.435759  1634A      2.441859  1635A      2.446605  
    1636A      2.451744  1637A      2.454445  1638A      2.456418  
    1639A      2.457703  1640A      2.476854  1641A      2.478343  
    1642A      2.483515  1643A      2.486234  1644A      2.493435  
    1645A      2.500559  1646A      2.502616  1647A      2.512949  
    1648A      2.513031  1649A      2.522629  1650A      2.522981  
    1651A      2.526205  1652A      2.526564  1653A      2.529915  
    1654A      2.530197  1655A      2.548297  1656A      2.548679  
    1657A      2.556771  1658A      2.559346  1659A      2.563724  
    1660A      2.564367  1661A      2.568160  1662A      2.574204  
    1663A      2.598130  1664A      2.599026  1665A      2.599059  
    1666A      2.600521  1667A      2.601253  1668A      2.604376  
    1669A      2.605087  1670A      2.606018  1671A      2.608569  
    1672A      2.610196  1673A      2.617703  1674A      2.617903  
    1675A      2.623117  1676A      2.627924  1677A      2.629552  
    1678A      2.636501  1679A      2.639438  1680A      2.639897  
    1681A      2.643306  1682A      2.644174  1683A      2.644338  
    1684A      2.644699  1685A      2.648683  1686A      2.651427  
    1687A      2.659199  1688A      2.659388  1689A      2.671185  
    1690A      2.671686  1691A      2.671990  1692A      2.672211  
    1693A      2.675307  1694A      2.675997  1695A      2.691503  
    1696A      2.699268  1697A      2.699950  1698A      2.702509  
    1699A      2.704404  1700A      2.706054  1701A      2.708122  
    1702A      2.709136  1703A      2.709418  1704A      2.713013  
    1705A      2.713405  1706A      2.724300  1707A      2.726082  
    1708A      2.727062  1709A      2.727288  1710A      2.727523  
    1711A      2.734406  1712A      2.734521  1713A      2.734628  
    1714A      2.743697  1715A      2.745385  1716A      2.746670  
    1717A      2.749823  1718A      2.750346  1719A      2.750693  
    1720A      2.751468  1721A      2.755056  1722A      2.756151  
    1723A      2.764211  1724A      2.778617  1725A      2.787706  
    1726A      2.788144  1727A      2.788707  1728A      2.789708  
    1729A      2.789798  1730A      2.812621  1731A      2.822140  
    1732A      2.822627  1733A      2.835870  1734A      2.837577  
    1735A      2.840083  1736A      2.840400  1737A      2.859958  
    1738A      2.860277  1739A      2.862432  1740A      2.862476  
    1741A      2.863831  1742A      2.871124  1743A      2.873856  
    1744A      2.874434  1745A      2.874986  1746A      2.876337  
    1747A      2.878945  1748A      2.890040  1749A      2.890275  
    1750A      2.899770  1751A      2.901303  1752A      2.901403  
    1753A      2.903791  1754A      2.905188  1755A      2.921425  
    1756A      2.925144  1757A      2.925572  1758A      2.928631  
    1759A      2.929545  1760A      2.933694  1761A      2.958607  
    1762A      2.959453  1763A      2.974113  1764A      2.974254  
    1765A      2.976042  1766A      2.982975  1767A      2.983568  
    1768A      2.984219  1769A      2.986395  1770A      2.994135  
    1771A      2.994259  1772A      3.005681  1773A      3.021359  
    1774A      3.022445  1775A      3.022879  1776A      3.033636  
    1777A      3.049984  1778A      3.050675  1779A      3.088445  
    1780A      3.089276  1781A      3.092467  1782A      3.095740  
    1783A      3.104756  1784A      3.106589  1785A      3.107166  
    1786A      3.117114  1787A      3.117207  1788A      3.118557  
    1789A      3.131620  1790A      3.165117  1791A      3.170005  
    1792A      3.170311  1793A      3.181252  1794A      3.186574  
    1795A      3.186899  1796A      3.191584  1797A      3.193470  
    1798A      3.199204  1799A      3.200095  1800A      3.206640  
    1801A      3.206906  1802A      3.208653  1803A      3.208971  
    1804A      3.210266  1805A      3.218346  1806A      3.228927  
    1807A      3.229676  1808A      3.232039  1809A      3.232180  
    1810A      3.249974  1811A      3.250677  1812A      3.276302  
    1813A      3.306984  1814A      3.315680  1815A      3.318846  
    1816A      3.321278  1817A      3.321516  1818A      3.323375  
    1819A      3.323540  1820A      3.326845  1821A      3.329856  
    1822A      3.332916  1823A      3.333436  1824A      3.352623  
    1825A      3.355937  1826A      3.357345  1827A      3.362234  
    1828A      3.421976  1829A      3.422767  1830A      3.436211  
    1831A      3.477196  1832A      3.491225  1833A      3.494089  
    1834A      3.503339  1835A      3.511174  1836A      3.515383  
    1837A      3.524392  1838A      3.525128  1839A      3.529128  
    1840A      3.532227  1841A      3.535497  1842A      3.545292  
    1843A      3.547730  1844A      3.557024  1845A      3.569888  
    1846A      3.604331  1847A      3.634958  1848A      3.636717  
    1849A      3.644321  1850A      3.649151  1851A      3.699305  
    1852A      3.702071  1853A      3.724517  1854A      3.726387  
    1855A      3.765460  1856A      3.808289  1857A      3.809677  
    1858A      3.811273  1859A      3.825563  1860A      3.836682  
    1861A      3.843555  1862A      3.900274  1863A      3.903009  
    1864A      3.930310  1865A      3.933574  1866A      3.965235  
    1867A      3.973250  1868A      4.001348  1869A      4.004801  
    1870A      4.007570  1871A      4.008520  1872A      4.020434  
    1873A      4.029111  1874A      4.033503  1875A      4.086095  
    1876A      4.089103  1877A      4.133809  1878A      4.170430  
    1879A      4.170470  1880A      4.170493  1881A      4.198392  
    1882A      4.198967  1883A      4.199023  1884A      4.201410  
    1885A      4.201589  1886A      4.233621  1887A      4.233774  
    1888A      4.252391  1889A      4.296994  1890A      4.370176  
    1891A      4.445308  1892A      4.445705  1893A      4.446811  
    1894A      4.460173  1895A      4.646278  1896A      4.652796  
    1897A      4.652869  1898A      4.748646  1899A      4.784027  
    1900A      4.784436  

    Final Occupation by Irrep:
              A 
    DOCC [   321 ]
    NA   [   321 ]
    NB   [   321 ]

  @DF-RHF Final Energy: -4073.10720348459517

   => Energetics <=

    Nuclear Repulsion Energy =          17418.9667235194756358
    One-Electron Energy =              -40322.6782867327347049
    Two-Electron Energy =               18830.6043597286625300
    Total Energy =                      -4073.1072034845965391

Computation Completed


Properties will be evaluated at   0.000000,   0.000000,   0.000000 [a0]

Properties computed using the SCF density matrix


 Multipole Moments:

 ------------------------------------------------------------------------------------
     Multipole            Electronic (a.u.)      Nuclear  (a.u.)        Total (a.u.)
 ------------------------------------------------------------------------------------

 L = 1.  Multiply by 2.5417464519 to convert [e a0] to [Debye]
 Dipole X            :         -0.0001945           -0.0000548           -0.0002493
 Dipole Y            :          0.0009398           -0.0002464            0.0006934
 Dipole Z            :        -23.8377950           32.1357580            8.2979629
 Magnitude           :                                                    8.2979630

 ------------------------------------------------------------------------------------

*** tstop() called on n2cn1025 at Sat Jan 27 13:27:25 2024
Module time:
	user time   =   23268.98 seconds =     387.82 minutes
	system time =    1313.77 seconds =      21.90 minutes
	total time  =       9941 seconds =     165.68 minutes
Total time:
	user time   =   23268.98 seconds =     387.82 minutes
	system time =    1313.77 seconds =      21.90 minutes
	total time  =       9941 seconds =     165.68 minutes

  //>>>>>>>>>>>>>>>>>>>>>>>>>>>>>>>>>>>//
  //            Monomer A HF           //
  //<<<<<<<<<<<<<<<<<<<<<<<<<<<<<<<<<<<//

   => Libint2 <=

    Primary   basis highest AM E, G, H:  5, 4, 3
    Auxiliary basis highest AM E, G, H:  6, 5, 4
    Onebody   basis highest AM E, G, H:  6, 5, 4
    Solid Harmonics ordering:            gaussian

*** tstart() called on n2cn1025
*** at Sat Jan 27 13:27:25 2024

   => Loading Basis Set <=

    Name: JUN-CC-PVDZ
    Role: ORBITAL
    Keyword: BASIS
    atoms 1                                                   entry B          line   130 file /opt/software/pc2/EB-SW/software/PSI4/1.9-foss-2022a/share/psi4/basis/jun-cc-pvdz.gbs 
    atoms 2-5                                                 entry F          line   266 file /opt/software/pc2/EB-SW/software/PSI4/1.9-foss-2022a/share/psi4/basis/jun-cc-pvdz.gbs 
    atoms 6-23, 30-42, 45-59, 62-78, 81-93, 98-108, 111-119   entry C          line   164 file /opt/software/pc2/EB-SW/software/PSI4/1.9-foss-2022a/share/psi4/basis/jun-cc-pvdz.gbs 
    atoms 24-29, 43-44, 60-61, 79-80, 94-97, 109-110, 120-125 entry H          line    36 file /opt/software/pc2/EB-SW/software/PSI4/1.9-foss-2022a/share/psi4/basis/jun-cc-pvdz.gbs 


         ---------------------------------------------------------
                                   SCF
               by Justin Turney, Rob Parrish, Andy Simmonett
                          and Daniel G. A. Smith
                              RHF Reference
                       16 Threads,  61035 MiB Core
         ---------------------------------------------------------

  ==> Geometry <==

    Molecular point group: c1
    Full point group: C1

    Geometry (in Angstrom), charge = -1, multiplicity = 1:

       Center              X                  Y                   Z               Mass       
    ------------   -----------------  -----------------  -----------------  -----------------
         B           -0.000201921932     0.000288800891    -5.028041324722    11.009305360000
         F           -0.000004162732     0.000014527991    -3.615256324722    18.998403162730
         F            1.147855837268     0.675795727991    -5.499182324722    18.998403162730
         F            0.011913897268    -1.331996472009    -5.498980324722    18.998403162730
         F           -1.159670162732     0.656088027991    -5.498901324722    18.998403162730
      Gh(C)          -3.668445426752     7.803766698073     0.373824716614    12.000000000000
      Gh(C)          -4.847602882078     7.131256359331     0.371458141681    12.000000000000
      Gh(C)          -4.894963461907     5.696344931522     0.370885230583    12.000000000000
      Gh(C)          -3.653744841505     4.980744868950     0.378545672313    12.000000000000
      Gh(C)          -2.409429284226     7.113995564665     0.374019058874    12.000000000000
      Gh(C)          -2.425481506836     5.681136478894     0.367014170004    12.000000000000
      Gh(C)          -1.194748179167     7.786158722300     0.375491239416    12.000000000000
      Gh(C)           0.037954866205     7.099436173748     0.373320535111    12.000000000000
      Gh(C)           0.030328424687     5.669504087695     0.367837150195    12.000000000000
      Gh(C)          -1.200988670637     4.969284875906     0.376806884129    12.000000000000
      Gh(C)           1.277953663083     7.772873971185     0.374696383672    12.000000000000
      Gh(C)           2.485353921992     7.087711413228     0.372421895767    12.000000000000
      Gh(C)           2.486124522185     5.654785338231     0.365484146779    12.000000000000
      Gh(C)           1.254078756912     4.956092641655     0.377112088367    12.000000000000
      Gh(C)           3.751710428674     7.763926678971     0.372548747147    12.000000000000
      Gh(C)           4.923561893453     7.078795304981     0.370492266439    12.000000000000
      Gh(C)           4.955603108594     5.643461991360     0.370331853632    12.000000000000
      Gh(C)           3.706797371473     4.941224736324     0.375423413802    12.000000000000
      Gh(H)          -3.658525300490     8.890841947126     0.375509704864     1.007825032230
      Gh(H)          -1.189217492488     8.874135615351     0.379463115857     1.007825032230
      Gh(H)           1.284290076155     8.860847963479     0.378855207812     1.007825032230
      Gh(H)           3.753537924068     8.851049806963     0.374071271463     1.007825032230
      Gh(H)           5.869954540475     7.613809362646     0.369566899397     1.007825032230
      Gh(H)          -5.788235870234     7.676316740925     0.369898294325     1.007825032230
[...]
    1504A      2.118337  1505A      2.120301  1506A      2.126556  
    1507A      2.127005  1508A      2.127587  1509A      2.127865  
    1510A      2.128750  1511A      2.129189  1512A      2.132012  
    1513A      2.132478  1514A      2.136810  1515A      2.137053  
    1516A      2.138940  1517A      2.142059  1518A      2.143019  
    1519A      2.143415  1520A      2.144055  1521A      2.144389  
    1522A      2.145601  1523A      2.154998  1524A      2.155370  
    1525A      2.157650  1526A      2.158335  1527A      2.159199  
    1528A      2.160233  1529A      2.160384  1530A      2.160574  
    1531A      2.162921  1532A      2.164140  1533A      2.171438  
    1534A      2.171891  1535A      2.181206  1536A      2.181887  
    1537A      2.182482  1538A      2.183307  1539A      2.189826  
    1540A      2.190865  1541A      2.191505  1542A      2.191687  
    1543A      2.192972  1544A      2.195179  1545A      2.197816  
    1546A      2.198353  1547A      2.200767  1548A      2.200890  
    1549A      2.201719  1550A      2.201760  1551A      2.203967  
    1552A      2.204585  1553A      2.205717  1554A      2.211031  
    1555A      2.213936  1556A      2.214395  1557A      2.220187  
    1558A      2.222410  1559A      2.222769  1560A      2.224658  
    1561A      2.224864  1562A      2.224915  1563A      2.228855  
    1564A      2.232024  1565A      2.232422  1566A      2.234256  
    1567A      2.238900  1568A      2.238950  1569A      2.239596  
    1570A      2.241901  1571A      2.247641  1572A      2.248187  
    1573A      2.251962  1574A      2.253054  1575A      2.260581  
    1576A      2.261765  1577A      2.265292  1578A      2.265720  
    1579A      2.268143  1580A      2.269604  1581A      2.275757  
    1582A      2.282894  1583A      2.284323  1584A      2.290992  
    1585A      2.291429  1586A      2.296604  1587A      2.296811  
    1588A      2.303844  1589A      2.304197  1590A      2.309229  
    1591A      2.319060  1592A      2.324673  1593A      2.325195  
    1594A      2.325357  1595A      2.327464  1596A      2.329610  
    1597A      2.330595  1598A      2.331488  1599A      2.333270  
    1600A      2.334919  1601A      2.335368  1602A      2.339963  
    1603A      2.341458  1604A      2.342197  1605A      2.342354  
    1606A      2.344881  1607A      2.345860  1608A      2.346338  
    1609A      2.349131  1610A      2.349475  1611A      2.368186  
    1612A      2.372483  1613A      2.373032  1614A      2.383747  
    1615A      2.388040  1616A      2.391624  1617A      2.393213  
    1618A      2.395396  1619A      2.397063  1620A      2.418375  
    1621A      2.419565  1622A      2.424078  1623A      2.427730  
    1624A      2.432444  1625A      2.441815  1626A      2.443894  
    1627A      2.452924  1628A      2.453148  1629A      2.464429  
    1630A      2.464623  1631A      2.467975  1632A      2.468222  
    1633A      2.471946  1634A      2.472196  1635A      2.491073  
    1636A      2.491480  1637A      2.496103  1638A      2.501923  
    1639A      2.506482  1640A      2.507368  1641A      2.511493  
    1642A      2.516203  1643A      2.539508  1644A      2.539794  
    1645A      2.540107  1646A      2.542251  1647A      2.543035  
    1648A      2.545037  1649A      2.547686  1650A      2.548651  
    1651A      2.549243  1652A      2.551555  1653A      2.556605  
    1654A      2.556757  1655A      2.564226  1656A      2.571371  
    1657A      2.571543  1658A      2.580288  1659A      2.583783  
    1660A      2.584262  1661A      2.585239  1662A      2.586326  
    1663A      2.588578  1664A      2.588937  1665A      2.593225  
    1666A      2.593519  1667A      2.601423  1668A      2.601545  
    1669A      2.612993  1670A      2.613596  1671A      2.613874  
    1672A      2.614032  1673A      2.617050  1674A      2.617728  
    1675A      2.632571  1676A      2.640681  1677A      2.641588  
    1678A      2.643901  1679A      2.645459  1680A      2.647852  
    1681A      2.648837  1682A      2.649394  1683A      2.652852  
    1684A      2.655793  1685A      2.656150  1686A      2.666106  
    1687A      2.666203  1688A      2.667602  1689A      2.670412  
    1690A      2.670616  1691A      2.673670  1692A      2.677753  
    1693A      2.677963  1694A      2.684780  1695A      2.685936  
    1696A      2.687425  1697A      2.691321  1698A      2.691397  
    1699A      2.691692  1700A      2.692814  1701A      2.696161  
    1702A      2.697341  1703A      2.704510  1704A      2.721160  
    1705A      2.730732  1706A      2.730971  1707A      2.731077  
    1708A      2.731423  1709A      2.732007  1710A      2.752426  
    1711A      2.760387  1712A      2.760846  1713A      2.773562  
    1714A      2.775973  1715A      2.780066  1716A      2.780675  
    1717A      2.799233  1718A      2.799945  1719A      2.801693  
    1720A      2.802214  1721A      2.802272  1722A      2.808109  
    1723A      2.810252  1724A      2.814915  1725A      2.815558  
    1726A      2.815958  1727A      2.816378  1728A      2.823582  
    1729A      2.823930  1730A      2.829218  1731A      2.829314  
    1732A      2.839458  1733A      2.840190  1734A      2.842002  
    1735A      2.842100  1736A      2.846025  1737A      2.863755  
    1738A      2.865141  1739A      2.865553  1740A      2.869798  
    1741A      2.871076  1742A      2.874429  1743A      2.875249  
    1744A      2.895994  1745A      2.896877  1746A      2.913465  
    1747A      2.917720  1748A      2.917823  1749A      2.927437  
    1750A      2.930092  1751A      2.935177  1752A      2.935215  
    1753A      2.963194  1754A      2.965089  1755A      2.965529  
    1756A      2.976142  1757A      2.991929  1758A      2.992697  
    1759A      3.029525  1760A      3.030260  1761A      3.035384  
    1762A      3.038581  1763A      3.047003  1764A      3.047645  
    1765A      3.048054  1766A      3.057593  1767A      3.057650  
    1768A      3.063840  1769A      3.072880  1770A      3.108739  
    1771A      3.113009  1772A      3.113356  1773A      3.123024  
    1774A      3.127352  1775A      3.127912  1776A      3.132626  
    1777A      3.134353  1778A      3.141991  1779A      3.143089  
    1780A      3.148685  1781A      3.149202  1782A      3.149767  
    1783A      3.150299  1784A      3.153798  1785A      3.162109  
    1786A      3.167956  1787A      3.173164  1788A      3.175242  
    1789A      3.175379  1790A      3.193108  1791A      3.193881  
    1792A      3.220109  1793A      3.253675  1794A      3.259526  
    1795A      3.261749  1796A      3.261992  1797A      3.262542  
    1798A      3.264763  1799A      3.268719  1800A      3.271751  
    1801A      3.274980  1802A      3.275519  1803A      3.293857  
    1804A      3.296480  1805A      3.297953  1806A      3.303429  
    1807A      3.361488  1808A      3.362337  1809A      3.372640  
    1810A      3.416434  1811A      3.430410  1812A      3.432390  
    1813A      3.437099  1814A      3.448474  1815A      3.452676  
    1816A      3.462063  1817A      3.464683  1818A      3.466789  
    1819A      3.471338  1820A      3.474313  1821A      3.483929  
    1822A      3.485479  1823A      3.495213  1824A      3.509211  
    1825A      3.542063  1826A      3.574514  1827A      3.576177  
    1828A      3.583322  1829A      3.590352  1830A      3.638092  
    1831A      3.640798  1832A      3.664895  1833A      3.666911  
    1834A      3.705093  1835A      3.747929  1836A      3.749969  
    1837A      3.751475  1838A      3.763449  1839A      3.778602  
    1840A      3.780332  1841A      3.841919  1842A      3.843614  
    1843A      3.871514  1844A      3.874681  1845A      3.905953  
    1846A      3.913461  1847A      3.938934  1848A      3.941889  
    1849A      3.948399  1850A      3.949337  1851A      3.959567  
    1852A      3.966335  1853A      3.971311  1854A      4.024724  
    1855A      4.027506  1856A      4.070907  1857A      4.216457  
    1858A      4.218382  1859A      4.231056  1860A      4.238073  
    1861A      4.304515  1862A      4.387893  1863A      4.395371  
    1864A      5.749983  1865A      5.752697  1866A      5.752720  
    1867A      5.757390  1868A      5.757500  1869A      5.760297  
    1870A      5.764106  1871A      5.764122  1872A      5.785157  
    1873A      5.785254  1874A      5.805221  1875A      6.021522  
    1876A      6.022871  1877A      6.023210  1878A      6.196747  
    1879A      6.328995  1880A      6.329327  1881A      6.378793  
    1882A      6.379749  1883A      6.380081  1884A      7.202920  
    1885A      7.205095  1886A      7.249680  1887A      7.254822  
    1888A      7.265708  1889A      7.266188  1890A      7.329761  
    1891A      7.331050  1892A      7.475813  1893A      7.476127  
    1894A      7.581540  1895A      7.708446  1896A     12.628163  
    1897A     42.915382  1898A     42.915518  1899A     42.921374  
    1900A     42.950698  

    Final Occupation by Irrep:
              A 
    DOCC [   300 ]
    NA   [   300 ]
    NB   [   300 ]

  @DF-RHF Final Energy: -3650.33861983286079

   => Energetics <=

    Nuclear Repulsion Energy =          15611.4211649754324753
    One-Electron Energy =              -36072.1046693793759914
    Two-Electron Energy =               16810.3448845710845490
    Total Energy =                      -3650.3386198328589671

Computation Completed


Properties will be evaluated at   0.000000,   0.000000,   0.000000 [a0]

Properties computed using the SCF density matrix


 Multipole Moments:

 ------------------------------------------------------------------------------------
     Multipole            Electronic (a.u.)      Nuclear  (a.u.)        Total (a.u.)
 ------------------------------------------------------------------------------------

 L = 1.  Multiply by 2.5417464519 to convert [e a0] to [Debye]
 Dipole X            :         -0.0007558            0.0002304           -0.0005254
 Dipole Y            :          0.0011233           -0.0013052           -0.0001819
 Dipole Z            :       -421.7022899          421.7048573            0.0025673
 Magnitude           :                                                    0.0026269

 ------------------------------------------------------------------------------------

*** tstop() called on n2cn1025 at Sat Jan 27 15:59:05 2024
Module time:
	user time   =   16904.45 seconds =     281.74 minutes
	system time =     907.69 seconds =      15.13 minutes
	total time  =       5763 seconds =      96.05 minutes
Total time:
	user time   =   44217.60 seconds =     736.96 minutes
	system time =    2478.59 seconds =      41.31 minutes
	total time  =      19041 seconds =     317.35 minutes
  Constructing Basis Sets for SAPT...

   => Loading Basis Set <=

    Name: (JUN-CC-PVDZ AUX)
    Role: RIFIT
    Keyword: DF_BASIS_SAPT
    atoms 1                                                   entry B          line    56 file /opt/software/pc2/EB-SW/software/PSI4/1.9-foss-2022a/share/psi4/basis/jun-cc-pvdz-ri.gbs 
    atoms 2-5                                                 entry F          line   232 file /opt/software/pc2/EB-SW/software/PSI4/1.9-foss-2022a/share/psi4/basis/jun-cc-pvdz-ri.gbs 
    atoms 6-23, 30-42, 45-59, 62-78, 81-93, 98-108, 111-119   entry C          line   100 file /opt/software/pc2/EB-SW/software/PSI4/1.9-foss-2022a/share/psi4/basis/jun-cc-pvdz-ri.gbs 
    atoms 24-29, 43-44, 60-61, 79-80, 94-97, 109-110, 120-125 entry H          line    30 file /opt/software/pc2/EB-SW/software/PSI4/1.9-foss-2022a/share/psi4/basis/jun-cc-pvdz-ri.gbs 

   => Loading Basis Set <=

    Name: (JUN-CC-PVDZ AUX)
    Role: JKFIT
    Keyword: DF_BASIS_ELST
    atoms 1                                                   entry B          line    90 file /opt/software/pc2/EB-SW/software/PSI4/1.9-foss-2022a/share/psi4/basis/jun-cc-pvdz-jkfit.gbs 
    atoms 2-5                                                 entry F          line   314 file /opt/software/pc2/EB-SW/software/PSI4/1.9-foss-2022a/share/psi4/basis/jun-cc-pvdz-jkfit.gbs 
    atoms 6-23, 30-42, 45-59, 62-78, 81-93, 98-108, 111-119   entry C          line   146 file /opt/software/pc2/EB-SW/software/PSI4/1.9-foss-2022a/share/psi4/basis/jun-cc-pvdz-jkfit.gbs 
    atoms 24-29, 43-44, 60-61, 79-80, 94-97, 109-110, 120-125 entry H          line    70 file /opt/software/pc2/EB-SW/software/PSI4/1.9-foss-2022a/share/psi4/basis/jun-cc-pvdz-jkfit.gbs 


  //>>>>>>>>>>>>>>>>>>>>>>>>>>>>>>>>>>>//
  //               SSAPT0              //
  //<<<<<<<<<<<<<<<<<<<<<<<<<<<<<<<<<<<//


*** tstart() called on n2cn1025
*** at Sat Jan 27 15:59:07 2024

        SAPT0  
    Ed Hohenstein
     6 June 2009

      Orbital Information
  --------------------------
    NSO        =      1938
    NMO        =      1900
    NRI        =      6901
    NRI (Elst) =      8531
    NOCC A     =        21
    NOCC B     =       300
    FOCC A     =         5
    FOCC B     =        96
    NVIR A     =      1879
    NVIR B     =      1600

    Elst10,r            =     0.010427191352 [Eh]
    Exch10              =     0.000099429655 [Eh]
    Exch10 (S^2)        =     0.000099433626 [Eh]

    Iter     Energy [mEh]          dE [mEh]         Residual      Time [s]
       1      -0.01122430       0.011224298       0.543116514           439
       2      -0.01286124       0.001636945       0.256446768           913
       3      -0.01327279       0.000411545       0.048015405          1873
       4      -0.01323416      -0.000038629       0.012222508          2752
       5      -0.01322525      -0.000008906       0.001737497          3468
       6      -0.01322716       0.000001909       0.000441109          4101
       7      -0.01322711      -0.000000050       0.000108062          4718
       8      -0.01322703      -0.000000081       0.000027195          5246
       9      -0.01322703      -0.000000002       0.000006072          5894
      10      -0.01322703       0.000000005       0.000001088          6558
      11      -0.01322703      -0.000000000       0.000000207          7212

    CHF Iterations converged


    Iter     Energy [mEh]          dE [mEh]         Residual      Time [s]
       1     -11.14436194      11.144361944      58.053899308           666
       2      -7.11276035      -4.031601597       7.012337182          1210
       3      -7.07206721      -0.040693137       2.323641417          1716
       4      -7.20034680       0.128279586       0.758586396          2336
       5      -7.21905910       0.018712309       0.257000860          2942
       6      -7.21673882      -0.002320280       0.170201518          3564
       7      -7.21320275      -0.003536074       0.066997238          4115
       8      -7.21341368       0.000210929       0.028738605          4713
       9      -7.21400647       0.000592794       0.012640573          5368
      10      -7.21398240      -0.000024073       0.013434320          6081
      11      -7.21383851      -0.000143892       0.007191075          6683
      12      -7.21384417       0.000005664       0.003547951          7377
      13      -7.21387423       0.000030061       0.001337060          8007
      14      -7.21388229       0.000008055       0.000482484          8692
      15      -7.21387927      -0.000003014       0.000300109          9547
      16      -7.21387527      -0.000004004       0.000174521         10376
      17      -7.21387698       0.000001709       0.000092503         11244
      18      -7.21387775       0.000000772       0.000030135         11916
      19      -7.21387747      -0.000000284       0.000015187         12502
      20      -7.21387736      -0.000000109       0.000006818         13128
      21      -7.21387739       0.000000034       0.000003330         13706
      22      -7.21387742       0.000000025       0.000001528         14348
      23      -7.21387741      -0.000000003       0.000000596         14887

    CHF Iterations converged

    Ind20,r (A<-B)      =    -0.000013227035 [Eh]
    Ind20,r (B<-A)      =    -0.007213877414 [Eh]
    Ind20,r             =    -0.007227104449 [Eh]
    Exch-Ind20,r (A<-B) =     0.000006858773 [Eh]
    Exch-Ind20,r (B<-A) =     0.000010459376 [Eh]
    Exch-Ind20,r        =     0.000017318149 [Eh]
    Disp20              =    -0.001950477236 [Eh]
    Disp20 (SS)         =    -0.000975238618 [Eh]
    Disp20 (OS)         =    -0.000975238618 [Eh]
    Exch-Disp20         =     0.000027578159 [Eh]
    Exch-Disp20 (SS)    =     0.000018860033 [Eh]
    Exch-Disp20 (OS)    =     0.000008718126 [Eh]

    SAPT Results 
  --------------------------------------------------------------------------------------------------------
    Electrostatics                 10.42719135 [mEh]       6.54316136 [kcal/mol]      27.37658712 [kJ/mol]
      Elst10,r                     10.42719135 [mEh]       6.54316136 [kcal/mol]      27.37658712 [kJ/mol]

    Exchange                        0.09942966 [mEh]       0.06239305 [kcal/mol]       0.26105252 [kJ/mol]
      Exch10                        0.09942966 [mEh]       0.06239305 [kcal/mol]       0.26105252 [kJ/mol]
      Exch10(S^2)                   0.09943363 [mEh]       0.06239554 [kcal/mol]       0.26106295 [kJ/mol]

    Induction                      -7.16703712 [mEh]      -4.49738369 [kcal/mol]     -18.81705336 [kJ/mol]
      Ind20,r                      -7.22710445 [mEh]      -4.53507651 [kcal/mol]     -18.97476012 [kJ/mol]
      Exch-Ind20,r                  0.01731815 [mEh]       0.01086730 [kcal/mol]       0.04546880 [kJ/mol]
      delta HF,r (2)                0.04274918 [mEh]       0.02682552 [kcal/mol]       0.11223796 [kJ/mol]

    Dispersion                     -1.92289908 [mEh]      -1.20663739 [kcal/mol]      -5.04857083 [kJ/mol]
      Disp20                       -1.95047724 [mEh]      -1.22394294 [kcal/mol]      -5.12097728 [kJ/mol]
      Exch-Disp20                   0.02757816 [mEh]       0.01730556 [kcal/mol]       0.07240645 [kJ/mol]
      Disp20 (SS)                  -0.97523862 [mEh]      -0.61197147 [kcal/mol]      -2.56048864 [kJ/mol]
      Disp20 (OS)                  -0.97523862 [mEh]      -0.61197147 [kcal/mol]      -2.56048864 [kJ/mol]
      Exch-Disp20 (SS)              0.01886003 [mEh]       0.01183485 [kcal/mol]       0.04951701 [kJ/mol]
      Exch-Disp20 (OS)              0.00871813 [mEh]       0.00547071 [kcal/mol]       0.02288944 [kJ/mol]

  Total HF                          3.35958389 [mEh]       2.10817072 [kcal/mol]       8.82058629 [kJ/mol]
  Total SAPT0                       1.43668481 [mEh]       0.90153333 [kcal/mol]       3.77201546 [kJ/mol]

  Special recipe for scaled SAPT0 (see Manual):
    Electrostatics sSAPT0          10.42719135 [mEh]       6.54316136 [kcal/mol]      27.37658712 [kJ/mol]
    Exchange sSAPT0                 0.09942966 [mEh]       0.06239305 [kcal/mol]       0.26105252 [kJ/mol]
    Induction sSAPT0               -7.16703919 [mEh]      -4.49738499 [kcal/mol]     -18.81705880 [kJ/mol]
    Dispersion sSAPT0              -1.92290238 [mEh]      -1.20663946 [kcal/mol]      -5.04857951 [kJ/mol]
  Total sSAPT0                      1.43667944 [mEh]       0.90152996 [kcal/mol]       3.77200134 [kJ/mol]
  --------------------------------------------------------------------------------------------------------

*** tstop() called on n2cn1025 at Mon Jan 29 09:47:04 2024
Module time:
	user time   =   63271.08 seconds =    1054.52 minutes
	system time =    2749.22 seconds =      45.82 minutes
	total time  =     150477 seconds =    2507.95 minutes
Total time:
	user time   =  107490.02 seconds =    1791.50 minutes
	system time =    5227.81 seconds =      87.13 minutes
	total time  =     169520 seconds =    2825.33 minutes

    Psi4 stopped on: Monday, 29 January 2024 09:47AM
    Psi4 wall time for execution: 1 day, 23:05:20.67

*** Psi4 exiting successfully. Buy a developer a beer!
