
    -----------------------------------------------------------------------
          Psi4: An Open-Source Ab Initio Electronic Structure Package
                               Psi4 1.9 release

                         Git: Rev {} zzzzzzz 


    D. G. A. Smith, L. A. Burns, A. C. Simmonett, R. M. Parrish,
    M. C. Schieber, R. Galvelis, P. Kraus, H. Kruse, R. Di Remigio,
    A. Alenaizan, A. M. James, S. Lehtola, J. P. Misiewicz, M. Scheurer,
    R. A. Shaw, J. B. Schriber, Y. Xie, Z. L. Glick, D. A. Sirianni,
    J. S. O'Brien, J. M. Waldrop, A. Kumar, E. G. Hohenstein,
    B. P. Pritchard, B. R. Brooks, H. F. Schaefer III, A. Yu. Sokolov,
    K. Patkowski, A. E. DePrince III, U. Bozkaya, R. A. King,
    F. A. Evangelista, J. M. Turney, T. D. Crawford, C. D. Sherrill,
    J. Chem. Phys. 152(18) 184108 (2020). https://doi.org/10.1063/5.0006002

                            Additional Code Authors
    E. T. Seidl, C. L. Janssen, E. F. Valeev, M. L. Leininger,
    J. F. Gonthier, R. M. Richard, H. R. McAlexander, M. Saitow, X. Wang,
    P. Verma, M. H. Lechner, A. Jiang, S. Behnle, A. G. Heide,
    M. F. Herbst, and D. L. Poole

             Previous Authors, Complete List of Code Contributors,
                       and Citations for Specific Modules
    https://github.com/psi4/psi4/blob/master/codemeta.json
    https://github.com/psi4/psi4/graphs/contributors
    http://psicode.org/psi4manual/master/introduction.html#citing-psifour

    -----------------------------------------------------------------------


    Psi4 started on: Friday, 26 January 2024 11:20PM

    Process ID: 3935944
    Host:       n2cn0683
    PSIDATADIR: /opt/software/pc2/EB-SW/software/PSI4/1.9-foss-2022a/share/psi4
    Memory:     500.0 MiB
    Threads:    16
    
  ==> Input File <==

--------------------------------------------------------------------------
memory 64 GB # how much memory is available ! Depends on the nodes/cores !

molecule dimer {
# monomer A
+1 1    # Charge and multiplicity
C  0.680067 -1.215929 6.808042
C -0.680504 -1.215545 6.806014
N -1.085635  0.102779 6.805016
C  0.000108  0.884180 6.801740
C -2.477365  0.570758 6.755610
N  1.085222  0.102779 6.805016
H  1.385146 -2.033368 6.815870
H -1.385302 -2.033214 6.806204
H -0.000009  1.965269 6.799993
C  2.478117  0.567877 6.821908
H  2.490592  1.658130 6.794563
H  2.967028  0.220701 7.735354
H  3.001428  0.176405 5.946425
H -2.857359  0.490799 5.733539
H -3.082679 -0.042306 7.425694
H -2.518128  1.610706 7.082594
--
# monomer B
0 1     # Charge and multiplicity
C   -3.66844126402057      7.80375217008252      0.00190004133558
C   -4.84759871934653      7.13124183134024     -0.00046653359696
C   -4.89495929917518      5.69633040353158     -0.00103944469517
C   -3.65374067877320      4.98073034095895      0.00662099703436
C   -2.40942512149445      7.11398103667468      0.00209438359570
C   -2.42547734410473      5.68112195090346     -0.00491050527438
C   -1.19474401643570      7.78614419430947      0.00356656413763
C   0.03795902893699      7.09942164575698      0.00139585983271
C   0.03033258741920      5.66948955970466     -0.00408752508301
C   -1.20098450790502      4.96927034791531      0.00488220885047
C   1.27795782581485      7.77285944319479      0.00277170839332
C   2.48535808472416      7.08769688523756      0.00049722048857
C   2.48612868491717      5.65477081024076     -0.00644052849921
C   1.25408291964399      4.95607811366431      0.00518741308898
C   3.75171459140595      7.76391215098033      0.00062407186893
C   4.92356605618520      7.07878077698995     -0.00143240883900
C   4.95560727132542      5.64344746336949     -0.00159282164606
C   3.70680153420475      4.94121020833308      0.00349873852374
H   -3.65852113775815      8.89082741913536      0.00358502958574
H   -1.18921332975660      8.87412108735996      0.00753844057883
H   1.28429423888630      8.86083343548850      0.00693053253426
H   3.75354208679975      8.85103527897216      0.00214659618464
H   5.86995870320703      7.61379483465560     -0.00235777588134
H   -5.78823170750226      7.67630221293400     -0.00202638095293
C   -6.09197395869619      4.99326001364347     -0.00291168518608
C   -6.12866148031747      3.58258016879823     -0.00171050815740
C   -3.66457974004527      3.56418217974434     -0.00463560277484
C   -4.89429820469869      2.86108077590057      0.00453338221034
C   -2.43733499489796      2.84761165708481      0.00719617576166
C   -1.20922785759670      3.54788693497833     -0.00648285103018
C   1.24714157216223      3.53468075142962     -0.00729145743546
C   0.01517603956900      2.83311183930540      0.00439272578912
C   2.46764517244071      2.82128997725533      0.00449278391269
C   3.70254947457969      3.52466015442405     -0.00899517692985
C   6.14498038638375      4.92757236613191     -0.00282626685777
C   6.16658835886151      3.51658447594213     -0.00065971342101
C   4.92460995845939      2.80840792535402      0.00587903281610
H   7.08990550964105      5.46688776622306     -0.00658814770723
H   -7.03104175110130      5.54268795285765     -0.00714490013730
C   -7.33969804112295      2.85841153457957     -0.00333767559888
C   -7.36488195805880      1.47032337158330     -0.00157213747140
C   -4.90350460894690      1.44442681216000     -0.00628840166334
C   -6.13225715261081      0.73993935705394      0.00600164231964
C   -3.67687480051673      0.72669714267312      0.00433931473643
C   -2.44565658606518      1.42964113326212     -0.00597039546461
C   -1.22360068130162      0.71532450163492      0.00545886906656
C   0.00763786931376      1.41738314923765      0.00392452278437
C   1.23121980774686      0.70211669058719     -0.01490206287210
C   2.46082110053113      1.40329203612573      0.00460244601878
C   3.68443025419614      0.68719842821222      0.00377365974158
C   4.91870890153864      1.39173456118907     -0.00862816189375
C   7.36980207796101      2.77948220318441     -0.00242013321349
C   7.38016266612146      1.39121750785509     -0.00087345036788
C   6.13979953912259      0.67411862320065      0.00545489144369
H   -8.27919079934664      3.40711804112415     -0.00763522772059
H   8.31511347147953      3.31811809662368     -0.00663070901292
C   -8.59175593758115      0.72483255304480     -0.00123170985383
C   -8.59902460370342     -0.63263980622873      0.00089141472904
C   -6.13981313911873     -0.67413663715361     -0.00609792660607
C   -7.38018411213749     -1.39126618958160      0.00131813493501
C   -4.91868448025621     -1.39175501803000      0.00624257154343
C   -3.68443829568458     -0.68723731573599     -0.00478966852105
C   -2.46081704024768     -1.40334517882457      0.00575341766833
C   -1.23116201232071     -0.70217386488055     -0.00636696112346
C   -0.00756962538737     -1.41741884941102      0.00108956317991
C   1.22364771588843     -0.71527537726392      0.01109518512883
C   2.44567064933149     -1.42964328900682     -0.00065482763106
C   3.67686670284649     -0.72670743155550     -0.00479541202602
C   6.13224884641929     -0.73997883984993     -0.00632338623858
C   4.90351914550401     -1.44445752054090      0.00751768830159
C   8.59901484869081      0.63260386666793     -0.00101133422380
C   8.59174548810050     -0.72485086719319      0.00072504603735
C   7.36486276438985     -1.47033266560598      0.00049486934466
H   -9.52830597181814      1.27684744919284     -0.00270163681798
H   9.54141097460619      1.17457248844457     -0.00206336648518
C   -7.36983790976868     -2.77954514593389      0.00312634335708
C   -4.92459910905015     -2.80843725734101     -0.00460528907921
C   -6.16662249566744     -3.51665219282533      0.00169655107992
C   -3.70251035970491     -3.52468154912026      0.00571878010666
C   -2.46764698511392     -2.82132596280400     -0.00632585824990
C   -0.01513347410770     -2.83314164539971     -0.00604426974092
C   -1.24712184122656     -3.53473217556300      0.00551968366725
C   1.20924506964357     -3.54791467864352      0.00805871345849
C   2.43733602215464     -2.84764173817541     -0.00608104485234
C   4.89430234377080     -2.86112296828604     -0.00526030478103
C   3.66461525504104     -3.56421984553201      0.00761911515957
C   6.12863901474565     -3.58258405771778      0.00096495711699
C   7.33967266469532     -2.85841330737039      0.00248018319869
H   -9.54144911125902     -1.17456346666430      0.00226083090216
H   9.52826186807155     -1.27691907390448      0.00197485379837
H   -8.31516504384864     -3.31814985321231      0.00729857188773
H   8.27915514249207     -3.40714078989363      0.00681973918158
C   -6.14499418870218     -4.92764727278338      0.00302254913999
C   -3.70678334799751     -4.94126171411716     -0.00679841894792
C   -4.95559005800169     -5.64349397349412      0.00116871569699
C   -2.48612132622665     -5.65478557440947      0.00614125209662
C   -1.25405833548005     -4.95612205000132     -0.00503435388927
C   1.20101257386816     -4.96928038819302     -0.00385322963129
C   -0.03033667441341     -5.66952030313900      0.00398997003238
C   3.65375010132847     -4.98074377541453     -0.00309522988330
C   2.42549269587528     -5.68117463552727      0.00628170066869
C   6.09196561781097     -4.99325796338655      0.00325918379042
C   4.89497644461045     -5.69634842095790      0.00202298796027
H   -7.08989238804069     -5.46699984223871      0.00742531082125
H   7.03105520920009     -5.54265853633254      0.00683896355417
C   -4.92354532219813     -7.07882109967734      0.00061394679214
C   -2.48534208823777     -7.08772807792913     -0.00189594564379
C   -3.75168589177895     -7.76394715763627     -0.00170126671874
C   -0.03794895698805     -7.09946487446944     -0.00168022049625
C   -1.27795610040136     -7.77290438466689     -0.00366491325785
C   2.40944432072629     -7.11402201200282     -0.00081701968533
C   1.19474993715296     -7.78618536556242     -0.00296931056689
C   4.84762105249800     -7.13126211057943      0.00168979497423
C   3.66847160587561     -7.80378799294376     -0.00065863938960
H   -5.86994035041618     -7.61383059804164      0.00215798365757
H   5.78824962538815     -7.67633218931421      0.00281691445618
H   -3.75352693944918     -8.85107156923607     -0.00353718114765
H   -1.28430440589466     -8.86087539249706     -0.00809229711623
H   1.18922157469537     -8.87416062058945     -0.00706194725726
H   3.65854661482387     -8.89086063405326     -0.00231318081200

    units angstrom      # Angstroms are the default
    no_reorient         # Geometry fixed, default
    symmetry c1         # C1 symmetry, default
}

set {
    scf_type DF         # Density fitting, faster than exact integrals
    freeze_core True    # Freeze core electrons
    basis jun-cc-pVDZ   # Jun-cc-pVDZ basis set, recommended for sSAPT0 in https://doi.org/10.1063/1.4867135
}

energy('ssapt0')        # Compute sSAPT0 energy, includes also SAPT0
--------------------------------------------------------------------------

  Memory set to  59.605 GiB by Python driver.

Scratch directory: /tmp/
   => Loading Basis Set <=

    Name: JUN-CC-PVDZ
    Role: ORBITAL
    Keyword: BASIS
    atoms 1-2, 4-5, 10, 17-34, 41-53, 56-70, 73-89, 92-104, 109-119, 122-130 entry C          line   164 file /opt/software/pc2/EB-SW/software/PSI4/1.9-foss-2022a/share/psi4/basis/jun-cc-pvdz.gbs 
    atoms 3, 6                                                               entry N          line   198 file /opt/software/pc2/EB-SW/software/PSI4/1.9-foss-2022a/share/psi4/basis/jun-cc-pvdz.gbs 
    atoms 7-9, 11-16, 35-40, 54-55, 71-72, 90-91, 105-108, 120-121, 131-136  entry H          line    36 file /opt/software/pc2/EB-SW/software/PSI4/1.9-foss-2022a/share/psi4/basis/jun-cc-pvdz.gbs 

   => Loading Basis Set <=

    Name: JUN-CC-PVDZ
    Role: ORBITAL
    Keyword: BASIS
    atoms 1-2, 4-5, 10, 17-34, 41-53, 56-70, 73-89, 92-104, 109-119, 122-130 entry C          line   164 file /opt/software/pc2/EB-SW/software/PSI4/1.9-foss-2022a/share/psi4/basis/jun-cc-pvdz.gbs 
    atoms 3, 6                                                               entry N          line   198 file /opt/software/pc2/EB-SW/software/PSI4/1.9-foss-2022a/share/psi4/basis/jun-cc-pvdz.gbs 
    atoms 7-9, 11-16, 35-40, 54-55, 71-72, 90-91, 105-108, 120-121, 131-136  entry H          line    36 file /opt/software/pc2/EB-SW/software/PSI4/1.9-foss-2022a/share/psi4/basis/jun-cc-pvdz.gbs 


  //>>>>>>>>>>>>>>>>>>>>>>>>>>>>>>>>>>>//
  //              Dimer HF             //
  //<<<<<<<<<<<<<<<<<<<<<<<<<<<<<<<<<<<//

   => Libint2 <=

    Primary   basis highest AM E, G, H:  5, 4, 3
    Auxiliary basis highest AM E, G, H:  6, 5, 4
    Onebody   basis highest AM E, G, H:  6, 5, 4
    Solid Harmonics ordering:            gaussian

*** tstart() called on n2cn0683
*** at Fri Jan 26 23:20:41 2024

   => Loading Basis Set <=

    Name: JUN-CC-PVDZ
    Role: ORBITAL
    Keyword: BASIS
    atoms 1-2, 4-5, 10, 17-34, 41-53, 56-70, 73-89, 92-104, 109-119, 122-130 entry C          line   164 file /opt/software/pc2/EB-SW/software/PSI4/1.9-foss-2022a/share/psi4/basis/jun-cc-pvdz.gbs 
    atoms 3, 6                                                               entry N          line   198 file /opt/software/pc2/EB-SW/software/PSI4/1.9-foss-2022a/share/psi4/basis/jun-cc-pvdz.gbs 
    atoms 7-9, 11-16, 35-40, 54-55, 71-72, 90-91, 105-108, 120-121, 131-136  entry H          line    36 file /opt/software/pc2/EB-SW/software/PSI4/1.9-foss-2022a/share/psi4/basis/jun-cc-pvdz.gbs 


         ---------------------------------------------------------
                                   SCF
               by Justin Turney, Rob Parrish, Andy Simmonett
                          and Daniel G. A. Smith
                              RHF Reference
                       16 Threads,  61035 MiB Core
         ---------------------------------------------------------

  ==> Geometry <==

    Molecular point group: c1
    Full point group: C1

    Geometry (in Angstrom), charge = 1, multiplicity = 1:

       Center              X                  Y                   Z               Mass       
    ------------   -----------------  -----------------  -----------------  -----------------
         C            0.680062820275    -1.215917226251     6.289591414975    12.000000000000
         C           -0.680508179725    -1.215533226251     6.287563414975    12.000000000000
         N           -1.085639179725     0.102790773749     6.286565414975    14.003074004430
         C            0.000103820275     0.884191773749     6.283289414975    12.000000000000
         C           -2.477369179725     0.570769773749     6.237159414975    12.000000000000
         N            1.085217820275     0.102790773749     6.286565414975    14.003074004430
         H            1.385141820275    -2.033356226251     6.297419414975     1.007825032230
         H           -1.385306179725    -2.033202226251     6.287753414975     1.007825032230
         H           -0.000013179725     1.965280773749     6.281542414975     1.007825032230
         C            2.478112820275     0.567888773749     6.303457414975    12.000000000000
         H            2.490587820275     1.658141773750     6.276112414975     1.007825032230
         H            2.967023820275     0.220712773749     7.216903414975     1.007825032230
         H            3.001423820275     0.176416773749     5.427974414975     1.007825032230
         H           -2.857363179725     0.490810773749     5.215088414975     1.007825032230
         H           -3.082683179725    -0.042294226251     6.907243414975     1.007825032230
         H           -2.518132179725     1.610717773749     6.564143414975     1.007825032230
         C           -3.668445443746     7.803763943832    -0.516550543690    12.000000000000
         C           -4.847602899072     7.131253605090    -0.518917118622    12.000000000000
         C           -4.894963478901     5.696342177281    -0.519490029721    12.000000000000
         C           -3.653744858499     4.980742114708    -0.511829587991    12.000000000000
         C           -2.409429301220     7.113992810424    -0.516356201430    12.000000000000
         C           -2.425481523830     5.681133724653    -0.523361090300    12.000000000000
         C           -1.194748196161     7.786155968059    -0.514884020888    12.000000000000
         C            0.037954849212     7.099433419506    -0.517054725193    12.000000000000
         C            0.030328407694     5.669501333454    -0.522538110108    12.000000000000
         C           -1.200988687630     4.969282121665    -0.513568376175    12.000000000000
         C            1.277953646089     7.772871216944    -0.515678876632    12.000000000000
         C            2.485353904999     7.087708658987    -0.517953364537    12.000000000000
         C            2.486124505192     5.654782583990    -0.524891113525    12.000000000000
         C            1.254078739919     4.956089887414    -0.513263171936    12.000000000000
         C            3.751710411681     7.763923924730    -0.517826513156    12.000000000000
         C            4.923561876460     7.078792550739    -0.519882993864    12.000000000000
         C            4.955603091600     5.643459237119    -0.520043406671    12.000000000000
         C            3.706797354479     4.941221982083    -0.514951846502    12.000000000000
         H           -3.658525317484     8.890839192885    -0.514865555440     1.007825032230
         H           -1.189217509482     8.874132861109    -0.510912144447     1.007825032230
         H            1.284290059161     8.860845209238    -0.511520052491     1.007825032230
         H            3.753537907074     8.851047052722    -0.516303988841     1.007825032230
         H            5.869954523482     7.613806608405    -0.520808360907     1.007825032230
         H           -5.788235887228     7.676313986684    -0.520476965978     1.007825032230
         C           -6.091978138422     4.993271787393    -0.521362270211    12.000000000000
         C           -6.128665660043     3.582591942548    -0.520161093183    12.000000000000
         C           -3.664583919771     3.564193953494    -0.523086187800    12.000000000000
         C           -4.894302384424     2.861092549650    -0.513917202815    12.000000000000
         C           -2.437339174623     2.847623430834    -0.511254409264    12.000000000000
         C           -1.209232037322     3.547898708728    -0.524933436056    12.000000000000
         C            1.247137392437     3.534692525179    -0.525742042461    12.000000000000
         C            0.015171859844     2.833123613055    -0.514057859236    12.000000000000
         C            2.467640992715     2.821301751005    -0.513957801113    12.000000000000
         C            3.702545294854     3.524671928174    -0.527445761955    12.000000000000
         C            6.144976206658     4.927584139881    -0.521276851883    12.000000000000
         C            6.166584179136     3.516596249692    -0.519110298446    12.000000000000
         C            4.924605778734     2.808419699104    -0.512571552209    12.000000000000
         H            7.089901329916     5.466899539973    -0.525038732733     1.007825032230
         H           -7.031045930827     5.542699726607    -0.525595485163     1.007825032230
         C           -7.339702220848     2.858423308329    -0.521788260624    12.000000000000
         C           -7.364886137784     1.470335145333    -0.520022722497    12.000000000000
         C           -4.903508788672     1.444438585909    -0.524738986689    12.000000000000
         C           -6.132261332336     0.739951130803    -0.512448942706    12.000000000000
         C           -3.676878980242     0.726708916423    -0.514111270289    12.000000000000
         C           -2.445660765791     1.429652907012    -0.524420980490    12.000000000000
         C           -1.223604861027     0.715336275384    -0.512991715959    12.000000000000
         C            0.007633689588     1.417394922987    -0.514526062241    12.000000000000
         C            1.231215628021     0.702128464337    -0.533352647897    12.000000000000
         C            2.460816920806     1.403303809875    -0.513848139007    12.000000000000
         C            3.684426074471     0.687210201962    -0.514676925284    12.000000000000
         C            4.918704721813     1.391746334939    -0.527078746919    12.000000000000
         C            7.369797898236     2.779493976934    -0.520870718239    12.000000000000
         C            7.380158486396     1.391229281605    -0.519324035393    12.000000000000
         C            6.139795359397     0.674130396950    -0.512995693582    12.000000000000
         H           -8.279194979072     3.407129814874    -0.526085812746     1.007825032230
         H            8.315109291754     3.318129870373    -0.525081294038     1.007825032230
         C           -8.591760117307     0.724844326794    -0.519682294879    12.000000000000
         C           -8.599028783429    -0.632628032479    -0.517559170296    12.000000000000
         C           -6.139817318844    -0.674124863404    -0.524548511631    12.000000000000
         C           -7.380188291863    -1.391254415832    -0.517132450090    12.000000000000
         C           -4.918688659982    -1.391743244281    -0.512208013482    12.000000000000
         C           -3.684442475410    -0.687225541986    -0.523240253546    12.000000000000
         C           -2.460821219973    -1.403333405075    -0.512697167357    12.000000000000
         C           -1.231166192046    -0.702162091131    -0.524817546149    12.000000000000
         C           -0.007573805113    -1.417407075662    -0.517361021845    12.000000000000
         C            1.223643536163    -0.715263603514    -0.507355399897    12.000000000000
         C            2.445666469606    -1.429631515257    -0.519105412656    12.000000000000
         C            3.676862523121    -0.726695657806    -0.523245997051    12.000000000000
         C            6.132244666694    -0.739967066100    -0.524773971264    12.000000000000
         C            4.903514965779    -1.444445746791    -0.510932896724    12.000000000000
         C            8.599010668965     0.632615640417    -0.519461919249    12.000000000000
         C            8.591741308375    -0.724839093444    -0.517725538988    12.000000000000
         C            7.364858584664    -1.470320891856    -0.517955715681    12.000000000000
         H           -9.528310151544     1.276859222942    -0.521152221843     1.007825032230
         H            9.541406794881     1.174584262194    -0.520513951511     1.007825032230
         C           -7.369842089494    -2.779533372184    -0.515324241668    12.000000000000
         C           -4.924603288776    -2.808425483592    -0.523055874105    12.000000000000
         C           -6.166626675393    -3.516640419076    -0.516754033945    12.000000000000
         C           -3.702514539430    -3.524669775371    -0.512731804919    12.000000000000
         C           -2.467651164839    -2.821314189055    -0.524776443275    12.000000000000
         C           -0.015137653833    -2.833129871650    -0.524494854766    12.000000000000
         C           -1.247126020952    -3.534720401814    -0.512930901358    12.000000000000
         C            1.209240889918    -3.547902904894    -0.510391871567    12.000000000000
         C            2.437331842429    -2.847629964426    -0.524531629878    12.000000000000
         C            4.894298164045    -2.861111194537    -0.523710889806    12.000000000000
         C            3.664611075316    -3.564208071783    -0.510831469866    12.000000000000
         C            6.128634835020    -3.582572283968    -0.517485627908    12.000000000000
         C            7.339668484970    -2.858401533621    -0.515970401827    12.000000000000
         H           -9.541453290984    -1.174551692915    -0.516189754123     1.007825032230
         H            9.528257688346    -1.276907300155    -0.516475731227     1.007825032230
         H           -8.315169223574    -3.318138079463    -0.511152013138     1.007825032230
         H            8.279150962767    -3.407129016144    -0.511630845844     1.007825032230
         C           -6.144998368428    -4.927635499034    -0.515428035885    12.000000000000
         C           -3.706787527723    -4.941249940368    -0.525249003973    12.000000000000
         C           -4.955594237727    -5.643482199745    -0.517281869328    12.000000000000
         C           -2.486125505952    -5.654773800660    -0.512309332929    12.000000000000
         C           -1.254062515205    -4.956110276252    -0.523484938915    12.000000000000
         C            1.201008394143    -4.969268614444    -0.522303814657    12.000000000000
         C           -0.030340854139    -5.669508529390    -0.514460614993    12.000000000000
         C            3.653745921603    -4.980732001665    -0.521545814909    12.000000000000
         C            2.425488516150    -5.681162861778    -0.512168884357    12.000000000000
         C            6.091961438086    -4.993246189637    -0.515191401235    12.000000000000
         C            4.894972264885    -5.696336647208    -0.516427597065    12.000000000000
         H           -7.089896567766    -5.466988068489    -0.511025274204     1.007825032230
         H            7.031051029475    -5.542646762583    -0.511611621471     1.007825032230
         C           -4.923549501924    -7.078809325928    -0.517836638233    12.000000000000
         C           -2.485346267963    -7.087716304180    -0.520346530669    12.000000000000
         C           -3.751690071504    -7.763935383887    -0.520151851744    12.000000000000
         C           -0.037953136713    -7.099453100720    -0.520130805522    12.000000000000
         C           -1.277960280127    -7.772892610917    -0.522115498283    12.000000000000
         C            2.409440141001    -7.114010238253    -0.519267604711    12.000000000000
         C            1.194745757428    -7.786173591813    -0.521419895592    12.000000000000
         C            4.847616872773    -7.131250336830    -0.516760790051    12.000000000000
         C            3.668467426150    -7.803776219194    -0.519109224415    12.000000000000
         H           -5.869944530142    -7.613818824292    -0.516292601368     1.007825032230
         H            5.788245445663    -7.676320415565    -0.515633670569     1.007825032230
         H           -3.753531119175    -8.851059795487    -0.521987766173     1.007825032230
         H           -1.284308585620    -8.860863618748    -0.526542882142     1.007825032230
         H            1.189217394970    -8.874148846840    -0.525512532283     1.007825032230
         H            3.658542435098    -8.890848860304    -0.520763765837     1.007825032230

  Running in c1 symmetry.

  Rotational constants: A =      0.00060  B =      0.00060  C =      0.00035 [cm^-1]
  Rotational constants: A =     17.97144  B =     17.86432  C =     10.50436 [MHz]
  Nuclear repulsion = 17750.576825412455946

  Charge       = 1
  Multiplicity = 1
  Electrons    = 652
  Nalpha       = 326
  Nbeta        = 326

  ==> Algorithm <==

  SCF Algorithm Type is DF.
  DIIS enabled.
  MOM disabled.
  Fractional occupation disabled.
  Guess Type is SAD.
  Energy threshold   = 1.00e-08
  Density threshold  = 1.00e-08
  Integral threshold = 1.00e-12

  ==> Primary Basis <==

  Basis Set: JUN-CC-PVDZ
    Blend: JUN-CC-PVDZ
    Number of shells: 923
    Number of basis functions: 2019
    Number of Cartesian functions: 2122
    Spherical Harmonics?: true
    Max angular momentum: 2

   => Loading Basis Set <=

    Name: (JUN-CC-PVDZ AUX)
    Role: JKFIT
    Keyword: DF_BASIS_SCF
    atoms 1-2, 4-5, 10, 17-34, 41-53, 56-70, 73-89, 92-104, 109-119, 122-130 entry C          line   146 file /opt/software/pc2/EB-SW/software/PSI4/1.9-foss-2022a/share/psi4/basis/jun-cc-pvdz-jkfit.gbs 
    atoms 3, 6                                                               entry N          line   202 file /opt/software/pc2/EB-SW/software/PSI4/1.9-foss-2022a/share/psi4/basis/jun-cc-pvdz-jkfit.gbs 
    atoms 7-9, 11-16, 35-40, 54-55, 71-72, 90-91, 105-108, 120-121, 131-136  entry H          line    70 file /opt/software/pc2/EB-SW/software/PSI4/1.9-foss-2022a/share/psi4/basis/jun-cc-pvdz-jkfit.gbs 

  ==> Integral Setup <==

  ==> DiskDFJK: Density-Fitted J/K Matrices <==

    J tasked:                  Yes
    K tasked:                  Yes
    wK tasked:                  No
    OpenMP threads:             16
    Integrals threads:          16
    Memory [MiB]:            45776
    Algorithm:                Disk
    Integral Cache:           SAVE
    Schwarz Cutoff:          1E-12
    Fitting Condition:       1E-10

   => Auxiliary Basis Set <=

  Basis Set: (JUN-CC-PVDZ AUX)
    Blend: JUN-CC-PVDZ-JKFIT
    Number of shells: 3078
    Number of basis functions: 8896
    Number of Cartesian functions: 10198
    Spherical Harmonics?: true
    Max angular momentum: 3

  Minimum eigenvalue in the overlap matrix is 9.0165299619E-11.
  Reciprocal condition number of the overlap matrix is 3.9533488472E-12.
    Using canonical orthogonalization.
  Overall, 38 of 2019 possible MOs eliminated.


  ==> Pre-Iterations <==

  SCF Guess: Superposition of Atomic Densities via on-the-fly atomic UHF (no occupation information).

   -------------------------
    Irrep   Nso     Nmo    
   -------------------------
     A       2019    1981 
   -------------------------
    Total    2019    1981
   -------------------------

  ==> Iterations <==

                           Total Energy        Delta E     RMS |[F,P]|

   @DF-RHF iter SAD: -3967.13376828479886   -3.96713e+03   0.00000e+00 
   @DF-RHF iter   1: -3952.10062056964989    1.50331e+01   7.16229e-04 DIIS/ADIIS
   @DF-RHF iter   2: -3953.49421231581618   -1.39359e+00   2.33973e-04 DIIS/ADIIS
   @DF-RHF iter   3: -3953.61894892452710   -1.24737e-01   9.97438e-05 DIIS
   @DF-RHF iter   4: -3953.64134416416391   -2.23952e-02   4.08157e-05 DIIS
   @DF-RHF iter   5: -3953.64553793269488   -4.19377e-03   1.02203e-05 DIIS
   @DF-RHF iter   6: -3953.64596634108693   -4.28408e-04   4.58223e-06 DIIS
   @DF-RHF iter   7: -3953.64614774635220   -1.81405e-04   2.20521e-06 DIIS
   @DF-RHF iter   8: -3953.64620862838092   -6.08820e-05   1.11600e-06 DIIS
   @DF-RHF iter   9: -3953.64622609590151   -1.74675e-05   3.57837e-07 DIIS
   @DF-RHF iter  10: -3953.64622729458915   -1.19869e-06   1.44683e-07 DIIS
   @DF-RHF iter  11: -3953.64622744482040   -1.50231e-07   6.03269e-08 DIIS
   @DF-RHF iter  12: -3953.64622747746807   -3.26477e-08   2.97375e-08 DIIS
   @DF-RHF iter  13: -3953.64622748438569   -6.91762e-09   1.01206e-08 DIIS
   @DF-RHF iter  14: -3953.64622748551665   -1.13096e-09   4.81821e-09 DIIS
  Energy and wave function converged.


  ==> Post-Iterations <==

    Orbital Energies [Eh]
    ---------------------

    Doubly Occupied:                                                      

       1A    -15.820192     2A    -15.819661     3A    -11.515129  
       4A    -11.445462     5A    -11.443908     6A    -11.435580  
       7A    -11.435314     8A    -11.320269     9A    -11.319832  
      10A    -11.319759    11A    -11.319168    12A    -11.319126  
      13A    -11.318866    14A    -11.318816    15A    -11.318684  
      16A    -11.318512    17A    -11.318220    18A    -11.318180  
      19A    -11.317975    20A    -11.317831    21A    -11.317714  
      22A    -11.317667    23A    -11.317540    24A    -11.317390  
      25A    -11.317186    26A    -11.317023    27A    -11.316876  
      28A    -11.316801    29A    -11.316742    30A    -11.316479  
      31A    -11.316314    32A    -11.315552    33A    -11.315511  
      34A    -11.315447    35A    -11.315366    36A    -11.315323  
      37A    -11.315255    38A    -11.315224    39A    -11.315191  
      40A    -11.314921    41A    -11.314896    42A    -11.314818  
      43A    -11.314661    44A    -11.314072    45A    -11.314022  
      46A    -11.314007    47A    -11.313723    48A    -11.313689  
      49A    -11.313570    50A    -11.313534    51A    -11.313501  
      52A    -11.313454    53A    -11.313383    54A    -11.313100  
      55A    -11.313066    56A    -11.313034    57A    -11.313020  
      58A    -11.313014    59A    -11.312976    60A    -11.312554  
      61A    -11.312535    62A    -11.312529    63A    -11.312520  
      64A    -11.312506    65A    -11.312488    66A    -11.312455  
      67A    -11.312423    68A    -11.312376    69A    -11.312225  
      70A    -11.312193    71A    -11.311961    72A    -11.311954  
      73A    -11.311946    74A    -11.311927    75A    -11.311885  
      76A    -11.311838    77A    -11.311828    78A    -11.311399  
      79A    -11.311386    80A    -11.305288    81A    -11.305245  
      82A    -11.305210    83A    -11.305205    84A    -11.305156  
      85A    -11.305146    86A    -11.305117    87A    -11.305100  
      88A    -11.304812    89A    -11.304792    90A    -11.304665  
      91A    -11.304585    92A    -11.304227    93A    -11.304199  
      94A    -11.304173    95A    -11.304131    96A    -11.303615  
      97A    -11.303607    98A    -11.302759    99A    -11.302732  
     100A    -11.302703   101A    -11.302662   102A    -11.302146  
     103A    -11.302139   104A     -1.563711   105A     -1.419348  
     106A     -1.309208   107A     -1.293134   108A     -1.292992  
     109A     -1.273765   110A     -1.273748   111A     -1.269570  
     112A     -1.253636   113A     -1.248572   114A     -1.242074  
     115A     -1.241952   116A     -1.226146   117A     -1.226136  
     118A     -1.224222   119A     -1.209251   120A     -1.209245  
     121A     -1.206413   122A     -1.196861   123A     -1.196854  
     124A     -1.181545   125A     -1.174959   126A     -1.168268  
     127A     -1.166058   128A     -1.165969   129A     -1.165196  
     130A     -1.163571   131A     -1.141285   132A     -1.141244  
     133A     -1.128898   134A     -1.128887   135A     -1.120853  
     136A     -1.120823   137A     -1.118452   138A     -1.104615  
     139A     -1.099394   140A     -1.099382   141A     -1.093043  
     142A     -1.090665   143A     -1.090636   144A     -1.078871  
     145A     -1.075598   146A     -1.075574   147A     -1.059970  
     148A     -1.059368   149A     -1.056304   150A     -1.053595  
     151A     -1.053583   152A     -1.042678   153A     -1.023866  
     154A     -1.023859   155A     -1.008126   156A     -1.008020  
     157A     -1.008004   158A     -0.982575   159A     -0.959556  
     160A     -0.959477   161A     -0.958582   162A     -0.957067  
     163A     -0.957014   164A     -0.946360   165A     -0.946267  
     166A     -0.943830   167A     -0.943735   168A     -0.942619  
     169A     -0.924097   170A     -0.920013   171A     -0.903762  
     172A     -0.902755   173A     -0.901184   174A     -0.901088  
     175A     -0.898935   176A     -0.896060   177A     -0.886991  
     178A     -0.886967   179A     -0.879629   180A     -0.879621  
     181A     -0.837702   182A     -0.837600   183A     -0.835995  
     184A     -0.835455   185A     -0.835427   186A     -0.835261  
     187A     -0.834864   188A     -0.834838   189A     -0.819751  
     190A     -0.814423   191A     -0.803498   192A     -0.801992  
     193A     -0.798817   194A     -0.785165   195A     -0.779709  
     196A     -0.779614   197A     -0.777690   198A     -0.777182  
     199A     -0.777119   200A     -0.775804   201A     -0.771869  
     202A     -0.771727   203A     -0.767491   204A     -0.766835  
     205A     -0.766794   206A     -0.751553   207A     -0.751538  
     208A     -0.739217   209A     -0.738013   210A     -0.737990  
     211A     -0.734511   212A     -0.734502   213A     -0.731212  
     214A     -0.715601   215A     -0.711719   216A     -0.705408  
     217A     -0.702988   218A     -0.702984   219A     -0.702851  
     220A     -0.702792   221A     -0.702718   222A     -0.701496  
     223A     -0.693819   224A     -0.693773   225A     -0.692277  
     226A     -0.691203   227A     -0.688653   228A     -0.688628  
     229A     -0.681545   230A     -0.673314   231A     -0.666874  
     232A     -0.666844   233A     -0.661062   234A     -0.661036  
     235A     -0.653451   236A     -0.653276   237A     -0.651616  
     238A     -0.651573   239A     -0.651345   240A     -0.650980  
     241A     -0.647364   242A     -0.647179   243A     -0.647154  
     244A     -0.646816   245A     -0.644017   246A     -0.643994  
     247A     -0.640826   248A     -0.629046   249A     -0.629022  
     250A     -0.628840   251A     -0.628799   252A     -0.625443  
     253A     -0.623889   254A     -0.621231   255A     -0.621216  
     256A     -0.618734   257A     -0.618669   258A     -0.611852  
     259A     -0.611357   260A     -0.611272   261A     -0.609759  
     262A     -0.606820   263A     -0.603096   264A     -0.598149  
     265A     -0.597236   266A     -0.589106   267A     -0.588959  
     268A     -0.585608   269A     -0.585551   270A     -0.581821  
     271A     -0.581030   272A     -0.579980   273A     -0.579965  
     274A     -0.569522   275A     -0.569403   276A     -0.567611  
     277A     -0.567601   278A     -0.561271   279A     -0.561263  
     280A     -0.550380   281A     -0.548944   282A     -0.548882  
     283A     -0.547503   284A     -0.547486   285A     -0.543308  
     286A     -0.533045   287A     -0.529362   288A     -0.529356  
     289A     -0.526002   290A     -0.522568   291A     -0.519080  
     292A     -0.519046   293A     -0.511779   294A     -0.509307  
     295A     -0.500434   296A     -0.500325   297A     -0.494687  
     298A     -0.494512   299A     -0.494359   300A     -0.486363  
     301A     -0.485696   302A     -0.460247   303A     -0.460208  
     304A     -0.439933   305A     -0.439898   306A     -0.437475  
     307A     -0.437332   308A     -0.437314   309A     -0.407002  
     310A     -0.406984   311A     -0.403361   312A     -0.392884  
     313A     -0.390649   314A     -0.390622   315A     -0.384367  
     316A     -0.384285   317A     -0.360902   318A     -0.355564  
     319A     -0.355550   320A     -0.353128   321A     -0.338536  
     322A     -0.307344   323A     -0.306951   324A     -0.306937  
     325A     -0.256686   326A     -0.256678  

    Virtual:                                                              

     327A     -0.063933   328A     -0.063767   329A     -0.055643  
     330A     -0.051595   331A     -0.043006   332A     -0.037211  
     333A     -0.019241   334A     -0.018698   335A     -0.018294  
     336A     -0.018180   337A     -0.015125   338A     -0.012965  
     339A     -0.011134   340A     -0.002657   341A      0.000560  
     342A      0.001029   343A      0.003573   344A      0.004860  
     345A      0.005001   346A      0.008772   347A      0.009295  
     348A      0.010014   349A      0.010149   350A      0.013783  
     351A      0.014185   352A      0.014663   353A      0.016873  
     354A      0.016973   355A      0.019694   356A      0.019756  
     357A      0.021397   358A      0.026405   359A      0.026674  
     360A      0.026740   361A      0.028749   362A      0.029625  
     363A      0.030215   364A      0.031050   365A      0.031053  
     366A      0.031897   367A      0.034816   368A      0.036031  
     369A      0.039952   370A      0.040970   371A      0.041478  
     372A      0.042383   373A      0.042773   374A      0.046064  
     375A      0.048207   376A      0.053670   377A      0.053753  
     378A      0.053885   379A      0.054787   380A      0.055222  
     381A      0.056606   382A      0.058215   383A      0.058366  
     384A      0.060472   385A      0.061111   386A      0.061219  
     387A      0.063147   388A      0.063246   389A      0.063299  
     390A      0.063746   391A      0.064598   392A      0.069413  
     393A      0.071448   394A      0.072233   395A      0.072952  
     396A      0.074158   397A      0.074808   398A      0.075857  
     399A      0.078193   400A      0.079597   401A      0.082221  
     402A      0.083163   403A      0.084885   404A      0.086389  
     405A      0.087037   406A      0.088567   407A      0.088808  
     408A      0.089847   409A      0.090710   410A      0.093286  
     411A      0.093911   412A      0.094016   413A      0.097302  
     414A      0.099322   415A      0.100386   416A      0.100984  
     417A      0.103625   418A      0.103919   419A      0.104548  
     420A      0.104726   421A      0.106264   422A      0.109375  
     423A      0.110547   424A      0.111344   425A      0.112118  
     426A      0.112769   427A      0.114166   428A      0.114543  
     429A      0.114685   430A      0.118120   431A      0.119588  
     432A      0.119742   433A      0.120726   434A      0.121542  
     435A      0.122706   436A      0.125647   437A      0.126434  
     438A      0.127439   439A      0.127724   440A      0.130378  
     441A      0.132114   442A      0.132708   443A      0.133005  
     444A      0.135079   445A      0.140632   446A      0.140699  
     447A      0.141011   448A      0.142011   449A      0.142258  
     450A      0.143861   451A      0.145223   452A      0.146557  
     453A      0.149015   454A      0.149172   455A      0.152098  
     456A      0.152223   457A      0.153323   458A      0.153937  
     459A      0.155263   460A      0.156428   461A      0.156970  
     462A      0.157712   463A      0.158548   464A      0.158659  
     465A      0.158855   466A      0.159297   467A      0.160005  
     468A      0.160832   469A      0.161478   470A      0.162097  
     471A      0.163489   472A      0.163931   473A      0.165254  
     474A      0.166580   475A      0.167664   476A      0.167823  
     477A      0.168963   478A      0.169260   479A      0.170798  
     480A      0.172366   481A      0.173135   482A      0.173371  
     483A      0.176150   484A      0.176428   485A      0.176594  
     486A      0.177739   487A      0.178867   488A      0.181029  
     489A      0.181130   490A      0.181203   491A      0.183144  
     492A      0.184544   493A      0.186439   494A      0.187135  
     495A      0.188199   496A      0.188431   497A      0.189326  
     498A      0.190896   499A      0.191519   500A      0.193293  
     501A      0.193534   502A      0.193715   503A      0.194046  
     504A      0.196857   505A      0.198359   506A      0.198590  
     507A      0.199696   508A      0.201826   509A      0.202007  
     510A      0.204455   511A      0.206640   512A      0.207450  
     513A      0.209554   514A      0.210434   515A      0.210941  
     516A      0.211150   517A      0.212863   518A      0.214090  
     519A      0.214706   520A      0.215130   521A      0.216278  
     522A      0.216766   523A      0.217863   524A      0.218822  
     525A      0.219130   526A      0.219772   527A      0.220461  
     528A      0.221536   529A      0.221831   530A      0.226147  
     531A      0.226803   532A      0.227457   533A      0.229171  
     534A      0.229587   535A      0.229881   536A      0.230501  
     537A      0.233171   538A      0.234613   539A      0.235018  
     540A      0.236152   541A      0.236454   542A      0.237526  
     543A      0.237711   544A      0.238040   545A      0.242002  
     546A      0.242651   547A      0.242896   548A      0.244220  
     549A      0.244438   550A      0.245575   551A      0.245730  
     552A      0.249314   553A      0.250290   554A      0.252922  
     555A      0.253669   556A      0.254183   557A      0.255571  
     558A      0.256409   559A      0.257492   560A      0.257832  
     561A      0.258491   562A      0.259927   563A      0.260626  
     564A      0.262671   565A      0.262884   566A      0.264067  
     567A      0.264689   568A      0.266067   569A      0.266775  
     570A      0.267249   571A      0.268149   572A      0.269088  
     573A      0.269764   574A      0.270355   575A      0.270613  
     576A      0.271015   577A      0.273050   578A      0.273436  
     579A      0.274947   580A      0.275952   581A      0.278488  
     582A      0.278999   583A      0.280446   584A      0.281377  
     585A      0.281468   586A      0.281677   587A      0.282847  
     588A      0.283367   589A      0.284372   590A      0.286055  
     591A      0.286762   592A      0.287833   593A      0.288486  
     594A      0.290547   595A      0.291354   596A      0.291495  
     597A      0.292386   598A      0.293090   599A      0.294681  
     600A      0.294993   601A      0.295482   602A      0.296506  
     603A      0.297177   604A      0.297619   605A      0.299005  
     606A      0.299492   607A      0.300430   608A      0.302848  
     609A      0.303828   610A      0.304445   611A      0.304552  
     612A      0.306237   613A      0.307801   614A      0.310861  
     615A      0.312378   616A      0.312415   617A      0.314106  
     618A      0.315446   619A      0.316856   620A      0.317772  
     621A      0.318534   622A      0.318986   623A      0.319391  
     624A      0.319486   625A      0.320539   626A      0.323386  
     627A      0.325521   628A      0.326158   629A      0.328896  
     630A      0.328948   631A      0.329049   632A      0.330452  
     633A      0.331786   634A      0.332230   635A      0.332363  
     636A      0.334734   637A      0.335288   638A      0.335583  
     639A      0.337191   640A      0.339101   641A      0.341391  
     642A      0.342717   643A      0.343307   644A      0.344177  
     645A      0.344653   646A      0.345001   647A      0.345241  
     648A      0.345742   649A      0.345896   650A      0.346137  
     651A      0.348032   652A      0.349122   653A      0.350072  
     654A      0.350774   655A      0.351021   656A      0.351493  
     657A      0.352254   658A      0.352710   659A      0.353726  
     660A      0.354137   661A      0.354933   662A      0.355489  
     663A      0.358029   664A      0.358449   665A      0.358497  
     666A      0.359732   667A      0.360292   668A      0.360891  
     669A      0.361874   670A      0.362599   671A      0.364143  
     672A      0.364687   673A      0.364931   674A      0.366648  
     675A      0.366653   676A      0.368135   677A      0.368743  
     678A      0.371218   679A      0.372930   680A      0.373541  
     681A      0.375019   682A      0.376086   683A      0.376547  
     684A      0.378582   685A      0.378704   686A      0.379936  
     687A      0.380573   688A      0.380813   689A      0.381131  
     690A      0.381884   691A      0.382066   692A      0.383349  
     693A      0.385468   694A      0.385610   695A      0.386881  
     696A      0.387726   697A      0.388461   698A      0.389160  
     699A      0.389632   700A      0.392950   701A      0.399322  
     702A      0.400254   703A      0.401091   704A      0.401169  
     705A      0.401477   706A      0.401890   707A      0.402579  
     708A      0.403364   709A      0.404188   710A      0.404632  
     711A      0.404708   712A      0.406441   713A      0.406622  
     714A      0.409445   715A      0.410525   716A      0.411074  
     717A      0.411693   718A      0.413007   719A      0.413638  
     720A      0.415134   721A      0.416051   722A      0.416618  
     723A      0.417217   724A      0.417431   725A      0.419143  
     726A      0.419621   727A      0.421354   728A      0.423457  
     729A      0.423867   730A      0.424006   731A      0.424335  
     732A      0.425221   733A      0.426100   734A      0.427286  
     735A      0.428581   736A      0.428663   737A      0.429660  
     738A      0.431926   739A      0.433971   740A      0.435540  
     741A      0.436579   742A      0.437368   743A      0.438942  
     744A      0.439587   745A      0.440605   746A      0.442376  
     747A      0.442530   748A      0.443424   749A      0.445693  
     750A      0.446004   751A      0.450789   752A      0.450824  
     753A      0.452337   754A      0.452950   755A      0.453516  
     756A      0.454710   757A      0.455421   758A      0.455692  
     759A      0.456225   760A      0.457288   761A      0.459715  
     762A      0.463526   763A      0.464053   764A      0.465000  
     765A      0.465782   766A      0.465916   767A      0.467152  
     768A      0.467867   769A      0.468046   770A      0.468511  
     771A      0.471170   772A      0.473336   773A      0.473834  
     774A      0.475349   775A      0.479053   776A      0.481891  
     777A      0.482023   778A      0.482426   779A      0.487010  
     780A      0.488076   781A      0.488528   782A      0.489188  
     783A      0.490275   784A      0.493068   785A      0.494039  
     786A      0.494578   787A      0.502427   788A      0.506003  
     789A      0.507299   790A      0.507561   791A      0.509480  
     792A      0.510974   793A      0.511574   794A      0.514917  
     795A      0.515980   796A      0.516304   797A      0.518468  
     798A      0.520016   799A      0.520740   800A      0.522019  
     801A      0.523432   802A      0.524044   803A      0.524590  
     804A      0.525847   805A      0.526357   806A      0.526997  
     807A      0.527411   808A      0.529367   809A      0.531759  
     810A      0.534156   811A      0.536870   812A      0.537830  
     813A      0.538178   814A      0.539028   815A      0.542191  
     816A      0.543052   817A      0.545410   818A      0.545677  
     819A      0.546254   820A      0.550548   821A      0.551918  
     822A      0.552607   823A      0.553417   824A      0.554602  
     825A      0.561799   826A      0.565189   827A      0.567296  
     828A      0.567674   829A      0.568619   830A      0.568941  
     831A      0.574450   832A      0.577395   833A      0.579107  
     834A      0.579541   835A      0.581438   836A      0.584102  
     837A      0.587907   838A      0.588919   839A      0.594477  
     840A      0.598064   841A      0.603027   842A      0.603194  
     843A      0.606061   844A      0.607071   845A      0.607166  
     846A      0.608067   847A      0.608307   848A      0.613497  
     849A      0.615665   850A      0.615838   851A      0.620607  
     852A      0.628043   853A      0.631793   854A      0.632887  
     855A      0.635214   856A      0.635652   857A      0.636033  
     858A      0.637766   859A      0.639666   860A      0.639686  
     861A      0.641621   862A      0.642411   863A      0.647485  
     864A      0.647748   865A      0.648965   866A      0.649116  
     867A      0.654227   868A      0.654937   869A      0.657936  
     870A      0.660036   871A      0.667880   872A      0.668611  
     873A      0.672552   874A      0.674927   875A      0.678417  
     876A      0.680860   877A      0.681124   878A      0.683681  
     879A      0.687850   880A      0.688663   881A      0.689986  
     882A      0.691101   883A      0.692775   884A      0.693386  
     885A      0.696209   886A      0.698360   887A      0.698592  
     888A      0.701776   889A      0.708918   890A      0.715075  
     891A      0.718856   892A      0.719997   893A      0.728733  
     894A      0.732125   895A      0.734273   896A      0.737023  
     897A      0.737245   898A      0.740238   899A      0.741704  
     900A      0.742715   901A      0.743945   902A      0.747943  
     903A      0.750489   904A      0.751633   905A      0.752494  
     906A      0.753588   907A      0.756421   908A      0.757000  
     909A      0.759380   910A      0.760627   911A      0.762994  
     912A      0.764779   913A      0.765694   914A      0.766984  
     915A      0.768063   916A      0.769723   917A      0.770599  
     918A      0.775931   919A      0.777412   920A      0.778116  
     921A      0.780732   922A      0.783383   923A      0.784766  
     924A      0.785703   925A      0.786297   926A      0.788103  
     927A      0.789053   928A      0.790819   929A      0.794953  
     930A      0.795788   931A      0.796361   932A      0.797077  
     933A      0.802245   934A      0.803335   935A      0.805113  
     936A      0.805758   937A      0.806212   938A      0.809719  
     939A      0.810027   940A      0.811973   941A      0.814131  
     942A      0.816972   943A      0.817678   944A      0.817823  
     945A      0.819096   946A      0.820445   947A      0.822319  
     948A      0.822856   949A      0.824175   950A      0.825266  
     951A      0.825887   952A      0.826543   953A      0.827132  
     954A      0.831115   955A      0.832950   956A      0.835002  
     957A      0.836103   958A      0.838164   959A      0.838192  
     960A      0.838348   961A      0.840492   962A      0.841196  
     963A      0.841670   964A      0.845124   965A      0.847333  
     966A      0.847625   967A      0.848940   968A      0.849707  
     969A      0.853235   970A      0.856068   971A      0.856180  
     972A      0.861470   973A      0.864225   974A      0.865427  
     975A      0.866163   976A      0.868290   977A      0.869088  
     978A      0.870609   979A      0.870834   980A      0.870894  
     981A      0.871226   982A      0.872651   983A      0.874993  
     984A      0.876356   985A      0.878054   986A      0.879397  
     987A      0.881655   988A      0.882381   989A      0.882765  
     990A      0.886780   991A      0.887519   992A      0.887692  
     993A      0.892853   994A      0.894422   995A      0.896105  
     996A      0.897085   997A      0.898379   998A      0.899461  
     999A      0.899772  1000A      0.901502  1001A      0.902034  
    1002A      0.902311  1003A      0.905216  1004A      0.905580  
    1005A      0.905700  1006A      0.906224  1007A      0.907597  
    1008A      0.914091  1009A      0.914763  1010A      0.916474  
    1011A      0.917205  1012A      0.918245  1013A      0.919954  
    1014A      0.922731  1015A      0.929762  1016A      0.931203  
    1017A      0.931561  1018A      0.935169  1019A      0.942040  
    1020A      0.942304  1021A      0.942426  1022A      0.942869  
    1023A      0.948794  1024A      0.949346  1025A      0.951081  
    1026A      0.952722  1027A      0.953934  1028A      0.954262  
    1029A      0.954601  1030A      0.957634  1031A      0.960687  
    1032A      0.963398  1033A      0.964455  1034A      0.964703  
    1035A      0.967499  1036A      0.968967  1037A      0.969284  
    1038A      0.969379  1039A      0.971428  1040A      0.975414  
    1041A      0.978523  1042A      0.979098  1043A      0.981039  
    1044A      0.982173  1045A      0.983788  1046A      0.984881  
    1047A      0.986479  1048A      0.988863  1049A      0.992037  
    1050A      0.993463  1051A      0.993840  1052A      0.994746  
    1053A      0.995207  1054A      0.995854  1055A      0.996880  
    1056A      0.998308  1057A      0.998539  1058A      1.000654  
    1059A      1.000981  1060A      1.001337  1061A      1.001909  
    1062A      1.002837  1063A      1.009189  1064A      1.009770  
    1065A      1.009939  1066A      1.012562  1067A      1.013727  
    1068A      1.014540  1069A      1.015734  1070A      1.015917  
    1071A      1.016383  1072A      1.016953  1073A      1.018051  
    1074A      1.018292  1075A      1.018737  1076A      1.019570  
    1077A      1.019702  1078A      1.020772  1079A      1.021346  
    1080A      1.022115  1081A      1.022472  1082A      1.023777  
    1083A      1.024642  1084A      1.024876  1085A      1.025704  
    1086A      1.026204  1087A      1.026766  1088A      1.026855  
    1089A      1.028115  1090A      1.029149  1091A      1.029658  
    1092A      1.030552  1093A      1.031184  1094A      1.031495  
    1095A      1.032248  1096A      1.033534  1097A      1.034731  
    1098A      1.037183  1099A      1.037619  1100A      1.038925  
    1101A      1.039968  1102A      1.040345  1103A      1.040765  
    1104A      1.044366  1105A      1.045161  1106A      1.045524  
    1107A      1.046263  1108A      1.048069  1109A      1.048887  
    1110A      1.049480  1111A      1.051051  1112A      1.051478  
    1113A      1.051978  1114A      1.056413  1115A      1.058501  
    1116A      1.059755  1117A      1.060152  1118A      1.061161  
    1119A      1.067800  1120A      1.068367  1121A      1.068911  
    1122A      1.069793  1123A      1.075962  1124A      1.076404  
    1125A      1.078075  1126A      1.079213  1127A      1.081640  
    1128A      1.081798  1129A      1.082060  1130A      1.082479  
    1131A      1.085448  1132A      1.085777  1133A      1.087284  
    1134A      1.091188  1135A      1.091648  1136A      1.093180  
    1137A      1.094066  1138A      1.095349  1139A      1.097547  
    1140A      1.098853  1141A      1.099376  1142A      1.101994  
    1143A      1.105102  1144A      1.105123  1145A      1.107347  
    1146A      1.110776  1147A      1.111138  1148A      1.115584  
    1149A      1.117302  1150A      1.118194  1151A      1.119771  
    1152A      1.123707  1153A      1.124403  1154A      1.128698  
    1155A      1.131896  1156A      1.134015  1157A      1.134804  
    1158A      1.136405  1159A      1.139812  1160A      1.140464  
    1161A      1.141165  1162A      1.142028  1163A      1.149902  
    1164A      1.150214  1165A      1.150396  1166A      1.151100  
    1167A      1.153132  1168A      1.153668  1169A      1.153999  
    1170A      1.158251  1171A      1.159041  1172A      1.161043  
    1173A      1.163314  1174A      1.164655  1175A      1.166960  
    1176A      1.167154  1177A      1.168848  1178A      1.171358  
    1179A      1.172863  1180A      1.173942  1181A      1.175910  
    1182A      1.178041  1183A      1.181816  1184A      1.182264  
    1185A      1.195289  1186A      1.195511  1187A      1.196686  
    1188A      1.200432  1189A      1.201220  1190A      1.203735  
    1191A      1.209445  1192A      1.210172  1193A      1.210475  
    1194A      1.212370  1195A      1.218272  1196A      1.219453  
    1197A      1.219687  1198A      1.220795  1199A      1.227076  
    1200A      1.233855  1201A      1.233954  1202A      1.238484  
    1203A      1.239103  1204A      1.239153  1205A      1.242981  
    1206A      1.243066  1207A      1.243571  1208A      1.245287  
    1209A      1.251562  1210A      1.252246  1211A      1.254142  
    1212A      1.254370  1213A      1.256258  1214A      1.261027  
    1215A      1.261306  1216A      1.262298  1217A      1.262834  
    1218A      1.268174  1219A      1.268342  1220A      1.268462  
    1221A      1.268990  1222A      1.270535  1223A      1.275091  
    1224A      1.275469  1225A      1.279571  1226A      1.279957  
    1227A      1.280264  1228A      1.284136  1229A      1.284684  
    1230A      1.288094  1231A      1.288266  1232A      1.290564  
    1233A      1.292704  1234A      1.296698  1235A      1.298233  
    1236A      1.303799  1237A      1.303888  1238A      1.305736  
    1239A      1.306021  1240A      1.307249  1241A      1.311742  
    1242A      1.311781  1243A      1.312608  1244A      1.315239  
    1245A      1.316651  1246A      1.317904  1247A      1.319526  
    1248A      1.321390  1249A      1.322842  1250A      1.324447  
    1251A      1.334897  1252A      1.335292  1253A      1.337847  
    1254A      1.338494  1255A      1.342309  1256A      1.343667  
    1257A      1.343836  1258A      1.347027  1259A      1.347958  
    1260A      1.355098  1261A      1.355323  1262A      1.355908  
    1263A      1.358034  1264A      1.358322  1265A      1.358632  
    1266A      1.360579  1267A      1.362906  1268A      1.364464  
    1269A      1.366205  1270A      1.369492  1271A      1.371348  
    1272A      1.372924  1273A      1.374963  1274A      1.375316  
    1275A      1.376047  1276A      1.377634  1277A      1.377767  
    1278A      1.380997  1279A      1.383875  1280A      1.384551  
    1281A      1.385344  1282A      1.386492  1283A      1.388144  
    1284A      1.388835  1285A      1.392665  1286A      1.394971  
    1287A      1.395317  1288A      1.397619  1289A      1.398300  
    1290A      1.399635  1291A      1.400467  1292A      1.405723  
    1293A      1.411310  1294A      1.414049  1295A      1.416749  
    1296A      1.417937  1297A      1.418618  1298A      1.419663  
    1299A      1.420554  1300A      1.426473  1301A      1.432058  
    1302A      1.432240  1303A      1.433199  1304A      1.438796  
    1305A      1.442625  1306A      1.444045  1307A      1.444549  
    1308A      1.449300  1309A      1.451800  1310A      1.453376  
    1311A      1.453652  1312A      1.464801  1313A      1.465322  
    1314A      1.484984  1315A      1.486327  1316A      1.488207  
    1317A      1.488626  1318A      1.491142  1319A      1.496642  
    1320A      1.500561  1321A      1.500631  1322A      1.519389  
    1323A      1.530604  1324A      1.535160  1325A      1.540180  
    1326A      1.541822  1327A      1.545295  1328A      1.548881  
    1329A      1.550854  1330A      1.551886  1331A      1.552757  
    1332A      1.554275  1333A      1.555035  1334A      1.557902  
    1335A      1.558382  1336A      1.558860  1337A      1.561435  
    1338A      1.561818  1339A      1.562185  1340A      1.562976  
    1341A      1.563786  1342A      1.566773  1343A      1.568049  
    1344A      1.568702  1345A      1.571132  1346A      1.573369  
    1347A      1.574173  1348A      1.574725  1349A      1.577294  
    1350A      1.577821  1351A      1.582189  1352A      1.582529  
    1353A      1.582983  1354A      1.584247  1355A      1.584768  
    1356A      1.585612  1357A      1.585856  1358A      1.585974  
    1359A      1.586998  1360A      1.588703  1361A      1.589026  
    1362A      1.590566  1363A      1.592639  1364A      1.599026  
    1365A      1.599769  1366A      1.599862  1367A      1.603868  
    1368A      1.604118  1369A      1.604490  1370A      1.611725  
    1371A      1.612260  1372A      1.615030  1373A      1.615245  
    1374A      1.615650  1375A      1.616433  1376A      1.616486  
    1377A      1.618126  1378A      1.624268  1379A      1.624481  
    1380A      1.625213  1381A      1.625895  1382A      1.626092  
    1383A      1.635404  1384A      1.636545  1385A      1.637290  
    1386A      1.640396  1387A      1.643239  1388A      1.643498  
    1389A      1.644101  1390A      1.645288  1391A      1.647277  
    1392A      1.656944  1393A      1.657156  1394A      1.657523  
    1395A      1.661986  1396A      1.663719  1397A      1.663786  
    1398A      1.666673  1399A      1.668348  1400A      1.669431  
    1401A      1.669495  1402A      1.671954  1403A      1.672960  
    1404A      1.682748  1405A      1.684982  1406A      1.685487  
    1407A      1.688984  1408A      1.693580  1409A      1.695357  
    1410A      1.695458  1411A      1.697725  1412A      1.698415  
    1413A      1.701718  1414A      1.704414  1415A      1.711082  
    1416A      1.712923  1417A      1.715956  1418A      1.727512  
    1419A      1.734630  1420A      1.735398  1421A      1.735963  
    1422A      1.748252  1423A      1.749366  1424A      1.749582  
    1425A      1.756658  1426A      1.763455  1427A      1.764885  
    1428A      1.769436  1429A      1.770648  1430A      1.771745  
    1431A      1.774328  1432A      1.775325  1433A      1.775788  
    1434A      1.777533  1435A      1.777973  1436A      1.778894  
    1437A      1.780508  1438A      1.781071  1439A      1.784091  
    1440A      1.784265  1441A      1.784384  1442A      1.785328  
    1443A      1.790994  1444A      1.792463  1445A      1.795363  
    1446A      1.804642  1447A      1.804857  1448A      1.807839  
    1449A      1.808111  1450A      1.810314  1451A      1.810527  
    1452A      1.813257  1453A      1.813485  1454A      1.817578  
    1455A      1.818437  1456A      1.821095  1457A      1.821411  
    1458A      1.823442  1459A      1.824911  1460A      1.829498  
    1461A      1.829938  1462A      1.830321  1463A      1.831303  
    1464A      1.831407  1465A      1.832177  1466A      1.832348  
    1467A      1.833073  1468A      1.833844  1469A      1.834446  
    1470A      1.836668  1471A      1.837175  1472A      1.850846  
    1473A      1.851204  1474A      1.853532  1475A      1.853835  
    1476A      1.858690  1477A      1.860430  1478A      1.862768  
    1479A      1.863171  1480A      1.864377  1481A      1.868285  
    1482A      1.869337  1483A      1.869677  1484A      1.871843  
    1485A      1.872453  1486A      1.873153  1487A      1.877382  
    1488A      1.879465  1489A      1.884290  1490A      1.885142  
    1491A      1.886205  1492A      1.886915  1493A      1.887212  
    1494A      1.887402  1495A      1.889375  1496A      1.889912  
    1497A      1.891580  1498A      1.892576  1499A      1.893846  
    1500A      1.898909  1501A      1.900712  1502A      1.902410  
    1503A      1.906010  1504A      1.906775  1505A      1.908476  
    1506A      1.908720  1507A      1.908878  1508A      1.910247  
    1509A      1.912873  1510A      1.915048  1511A      1.916018  
    1512A      1.917768  1513A      1.918888  1514A      1.920107  
    1515A      1.921055  1516A      1.927979  1517A      1.929290  
    1518A      1.932547  1519A      1.937303  1520A      1.939602  
    1521A      1.939910  1522A      1.941322  1523A      1.941675  
    1524A      1.942797  1525A      1.954577  1526A      1.954887  
    1527A      1.957876  1528A      1.959185  1529A      1.960452  
    1530A      1.962246  1531A      1.963739  1532A      1.964048  
    1533A      1.965097  1534A      1.965432  1535A      1.966993  
    1536A      1.967281  1537A      1.967693  1538A      1.968688  
    1539A      1.971942  1540A      1.975193  1541A      1.978132  
    1542A      1.980148  1543A      1.981074  1544A      1.982902  
    1545A      1.983333  1546A      1.987139  1547A      1.989553  
    1548A      1.990009  1549A      1.994589  1550A      1.997136  
    1551A      2.000012  1552A      2.000909  1553A      2.003510  
    1554A      2.003692  1555A      2.006005  1556A      2.006718  
    1557A      2.007574  1558A      2.008044  1559A      2.013971  
    1560A      2.016104  1561A      2.016940  1562A      2.018085  
    1563A      2.022036  1564A      2.023598  1565A      2.025639  
    1566A      2.027644  1567A      2.027969  1568A      2.028479  
    1569A      2.029505  1570A      2.030459  1571A      2.030807  
    1572A      2.031576  1573A      2.034049  1574A      2.035789  
    1575A      2.036605  1576A      2.037379  1577A      2.038522  
    1578A      2.039278  1579A      2.039857  1580A      2.041425  
    1581A      2.042022  1582A      2.044634  1583A      2.044799  
    1584A      2.045616  1585A      2.046233  1586A      2.049069  
    1587A      2.049104  1588A      2.050474  1589A      2.053783  
    1590A      2.056473  1591A      2.058174  1592A      2.059326  
    1593A      2.059787  1594A      2.060097  1595A      2.060732  
    1596A      2.062613  1597A      2.064691  1598A      2.065697  
    1599A      2.067355  1600A      2.073397  1601A      2.074170  
    1602A      2.074494  1603A      2.075159  1604A      2.075226  
    1605A      2.075861  1606A      2.076309  1607A      2.078162  
    1608A      2.081622  1609A      2.082769  1610A      2.083756  
    1611A      2.084248  1612A      2.089070  1613A      2.089654  
    1614A      2.089890  1615A      2.091750  1616A      2.092863  
    1617A      2.093065  1618A      2.101946  1619A      2.102229  
    1620A      2.102986  1621A      2.104288  1622A      2.105371  
    1623A      2.106286  1624A      2.106878  1625A      2.107143  
    1626A      2.107724  1627A      2.111414  1628A      2.111764  
    1629A      2.119117  1630A      2.119513  1631A      2.127399  
    1632A      2.128894  1633A      2.128944  1634A      2.130220  
    1635A      2.135762  1636A      2.136148  1637A      2.137547  
    1638A      2.137647  1639A      2.139899  1640A      2.141041  
    1641A      2.143491  1642A      2.144617  1643A      2.146384  
    1644A      2.146890  1645A      2.148542  1646A      2.149024  
    1647A      2.150756  1648A      2.151350  1649A      2.153486  
    1650A      2.153986  1651A      2.156717  1652A      2.158081  
    1653A      2.161542  1654A      2.161663  1655A      2.167083  
    1656A      2.170830  1657A      2.171148  1658A      2.171571  
    1659A      2.171647  1660A      2.173298  1661A      2.174512  
    1662A      2.176523  1663A      2.180362  1664A      2.181919  
    1665A      2.182524  1666A      2.184229  1667A      2.185618  
    1668A      2.185764  1669A      2.189658  1670A      2.193880  
    1671A      2.195332  1672A      2.196670  1673A      2.197462  
    1674A      2.210012  1675A      2.211584  1676A      2.212327  
    1677A      2.213621  1678A      2.214980  1679A      2.216150  
    1680A      2.219475  1681A      2.222285  1682A      2.230996  
    1683A      2.232197  1684A      2.238323  1685A      2.238894  
    1686A      2.239872  1687A      2.243411  1688A      2.245138  
    1689A      2.251943  1690A      2.252388  1691A      2.256799  
    1692A      2.260828  1693A      2.263281  1694A      2.271068  
    1695A      2.272865  1696A      2.272909  1697A      2.274734  
    1698A      2.276778  1699A      2.278618  1700A      2.279014  
    1701A      2.279814  1702A      2.281091  1703A      2.282300  
    1704A      2.286164  1705A      2.289137  1706A      2.289722  
    1707A      2.290020  1708A      2.292173  1709A      2.292825  
    1710A      2.293499  1711A      2.295616  1712A      2.296040  
    1713A      2.311594  1714A      2.313611  1715A      2.318071  
    1716A      2.318570  1717A      2.331970  1718A      2.335065  
    1719A      2.335861  1720A      2.337647  1721A      2.338670  
    1722A      2.339649  1723A      2.343718  1724A      2.347261  
    1725A      2.366177  1726A      2.367213  1727A      2.370807  
    1728A      2.375380  1729A      2.378846  1730A      2.389317  
    1731A      2.391085  1732A      2.399076  1733A      2.400214  
    1734A      2.412204  1735A      2.412312  1736A      2.415684  
    1737A      2.415864  1738A      2.420012  1739A      2.420314  
    1740A      2.439714  1741A      2.440166  1742A      2.441607  
    1743A      2.450209  1744A      2.452411  1745A      2.455184  
    1746A      2.456212  1747A      2.459912  1748A      2.465011  
    1749A      2.473635  1750A      2.486350  1751A      2.486666  
    1752A      2.488202  1753A      2.490193  1754A      2.490884  
    1755A      2.492062  1756A      2.495584  1757A      2.496633  
    1758A      2.498199  1759A      2.499244  1760A      2.502909  
    1761A      2.503122  1762A      2.511547  1763A      2.513518  
    1764A      2.518938  1765A      2.521088  1766A      2.529481  
    1767A      2.533231  1768A      2.533413  1769A      2.533879  
    1770A      2.534483  1771A      2.538212  1772A      2.538453  
    1773A      2.541121  1774A      2.543499  1775A      2.549620  
    1776A      2.549723  1777A      2.560893  1778A      2.561217  
    1779A      2.561418  1780A      2.561932  1781A      2.565119  
    1782A      2.565849  1783A      2.580292  1784A      2.586797  
    1785A      2.588110  1786A      2.589275  1787A      2.591353  
    1788A      2.592860  1789A      2.595515  1790A      2.596322  
    1791A      2.596744  1792A      2.601819  1793A      2.604433  
    1794A      2.604737  1795A      2.612350  1796A      2.613175  
    1797A      2.616299  1798A      2.617328  1799A      2.619426  
    1800A      2.619710  1801A      2.620304  1802A      2.625850  
    1803A      2.626665  1804A      2.632253  1805A      2.633023  
    1806A      2.634559  1807A      2.638643  1808A      2.638807  
    1809A      2.639189  1810A      2.640061  1811A      2.643472  
    1812A      2.644852  1813A      2.649193  1814A      2.651524  
    1815A      2.669315  1816A      2.674264  1817A      2.678578  
    1818A      2.679085  1819A      2.679538  1820A      2.680418  
    1821A      2.680917  1822A      2.686736  1823A      2.692119  
    1824A      2.700326  1825A      2.701181  1826A      2.706408  
    1827A      2.707390  1828A      2.718361  1829A      2.720635  
    1830A      2.721971  1831A      2.726737  1832A      2.727455  
    1833A      2.745502  1834A      2.746429  1835A      2.747879  
    1836A      2.748820  1837A      2.748954  1838A      2.750563  
    1839A      2.755868  1840A      2.757530  1841A      2.759501  
    1842A      2.761580  1843A      2.762317  1844A      2.763440  
    1845A      2.764152  1846A      2.774242  1847A      2.774560  
    1848A      2.787273  1849A      2.787791  1850A      2.789120  
    1851A      2.789301  1852A      2.793043  1853A      2.799497  
    1854A      2.807589  1855A      2.811958  1856A      2.812344  
    1857A      2.818097  1858A      2.819158  1859A      2.822143  
    1860A      2.841366  1861A      2.842281  1862A      2.859312  
    1863A      2.866776  1864A      2.867023  1865A      2.876600  
    1866A      2.878843  1867A      2.883597  1868A      2.883785  
    1869A      2.911401  1870A      2.913539  1871A      2.914205  
    1872A      2.924704  1873A      2.935381  1874A      2.940479  
    1875A      2.941357  1876A      2.976681  1877A      2.977387  
    1878A      2.984144  1879A      2.987296  1880A      2.989591  
    1881A      2.994672  1882A      2.995348  1883A      2.997039  
    1884A      3.004652  1885A      3.004869  1886A      3.013688  
    1887A      3.020447  1888A      3.057026  1889A      3.057591  
    1890A      3.061793  1891A      3.062067  1892A      3.070361  
    1893A      3.074430  1894A      3.074521  1895A      3.075951  
    1896A      3.080323  1897A      3.082113  1898A      3.090645  
    1899A      3.091885  1900A      3.096070  1901A      3.096739  
    1902A      3.098048  1903A      3.098938  1904A      3.102573  
    1905A      3.111445  1906A      3.113970  1907A      3.122145  
    1908A      3.123900  1909A      3.124318  1910A      3.142005  
    1911A      3.142664  1912A      3.169363  1913A      3.200876  
    1914A      3.207980  1915A      3.208478  1916A      3.209017  
    1917A      3.209905  1918A      3.212308  1919A      3.216248  
    1920A      3.219345  1921A      3.222819  1922A      3.223422  
    1923A      3.241025  1924A      3.243084  1925A      3.243794  
    1926A      3.250912  1927A      3.307909  1928A      3.309098  
    1929A      3.316551  1930A      3.362152  1931A      3.376086  
    1932A      3.378020  1933A      3.380983  1934A      3.391569  
    1935A      3.395112  1936A      3.406826  1937A      3.410893  
    1938A      3.411596  1939A      3.417371  1940A      3.420436  
    1941A      3.427706  1942A      3.431121  1943A      3.439724  
    1944A      3.451611  1945A      3.455470  1946A      3.485007  
    1947A      3.520928  1948A      3.522627  1949A      3.529837  
    1950A      3.537563  1951A      3.541540  1952A      3.585153  
    1953A      3.587017  1954A      3.611657  1955A      3.614106  
    1956A      3.651754  1957A      3.693670  1958A      3.696987  
    1959A      3.697758  1960A      3.708922  1961A      3.725188  
    1962A      3.726587  1963A      3.789827  1964A      3.790780  
    1965A      3.819134  1966A      3.822122  1967A      3.851822  
    1968A      3.859863  1969A      3.883476  1970A      3.885399  
    1971A      3.895547  1972A      3.896728  1973A      3.905145  
    1974A      3.909817  1975A      3.917011  1976A      3.970848  
    1977A      3.973374  1978A      4.016364  1979A      4.173417  
    1980A      4.245695  1981A      4.337656  

    Final Occupation by Irrep:
              A 
    DOCC [   326 ]
    NA   [   326 ]
    NB   [   326 ]

  @DF-RHF Final Energy: -3953.64622748551665

   => Energetics <=

    Nuclear Repulsion Energy =          17750.5768254124559462
    One-Electron Energy =              -40712.8686679727907176
    Two-Electron Energy =               19008.6456150748199434
    Total Energy =                      -3953.6462274855148280

Computation Completed


Properties will be evaluated at   0.000000,   0.000000,   0.000000 [a0]

Properties computed using the SCF density matrix


 Multipole Moments:

 ------------------------------------------------------------------------------------
     Multipole            Electronic (a.u.)      Nuclear  (a.u.)        Total (a.u.)
 ------------------------------------------------------------------------------------

 L = 1.  Multiply by 2.5417464519 to convert [e a0] to [Debye]
 Dipole X            :          0.0017644            0.0004804            0.0022449
 Dipole Y            :         -1.5426028            1.8866171            0.3440143
 Dipole Z            :        -30.4133032           41.2412070           10.8279038
 Magnitude           :                                                   10.8333675

 ------------------------------------------------------------------------------------

*** tstop() called on n2cn0683 at Sat Jan 27 00:22:17 2024
Module time:
	user time   =   29625.63 seconds =     493.76 minutes
	system time =    2096.44 seconds =      34.94 minutes
	total time  =       3696 seconds =      61.60 minutes
Total time:
	user time   =   29625.63 seconds =     493.76 minutes
	system time =    2096.44 seconds =      34.94 minutes
	total time  =       3696 seconds =      61.60 minutes

  //>>>>>>>>>>>>>>>>>>>>>>>>>>>>>>>>>>>//
  //            Monomer A HF           //
  //<<<<<<<<<<<<<<<<<<<<<<<<<<<<<<<<<<<//

   => Libint2 <=

    Primary   basis highest AM E, G, H:  5, 4, 3
    Auxiliary basis highest AM E, G, H:  6, 5, 4
    Onebody   basis highest AM E, G, H:  6, 5, 4
    Solid Harmonics ordering:            gaussian

*** tstart() called on n2cn0683
*** at Sat Jan 27 00:22:17 2024

   => Loading Basis Set <=

    Name: JUN-CC-PVDZ
    Role: ORBITAL
    Keyword: BASIS
    atoms 1-2, 4-5, 10, 17-34, 41-53, 56-70, 73-89, 92-104, 109-119, 122-130 entry C          line   164 file /opt/software/pc2/EB-SW/software/PSI4/1.9-foss-2022a/share/psi4/basis/jun-cc-pvdz.gbs 
    atoms 3, 6                                                               entry N          line   198 file /opt/software/pc2/EB-SW/software/PSI4/1.9-foss-2022a/share/psi4/basis/jun-cc-pvdz.gbs 
    atoms 7-9, 11-16, 35-40, 54-55, 71-72, 90-91, 105-108, 120-121, 131-136  entry H          line    36 file /opt/software/pc2/EB-SW/software/PSI4/1.9-foss-2022a/share/psi4/basis/jun-cc-pvdz.gbs 


         ---------------------------------------------------------
                                   SCF
               by Justin Turney, Rob Parrish, Andy Simmonett
                          and Daniel G. A. Smith
                              RHF Reference
                       16 Threads,  61035 MiB Core
         ---------------------------------------------------------

  ==> Geometry <==

    Molecular point group: c1
    Full point group: C1

    Geometry (in Angstrom), charge = 1, multiplicity = 1:

       Center              X                  Y                   Z               Mass       
    ------------   -----------------  -----------------  -----------------  -----------------
         C            0.680062820275    -1.215917226251     6.289591414975    12.000000000000
         C           -0.680508179725    -1.215533226251     6.287563414975    12.000000000000
         N           -1.085639179725     0.102790773749     6.286565414975    14.003074004430
[...]
    1579A      2.162366  1580A      2.162958  1581A      2.171057  
    1582A      2.171722  1583A      2.174551  1584A      2.179780  
    1585A      2.180789  1586A      2.181417  1587A      2.182353  
    1588A      2.188219  1589A      2.188957  1590A      2.190115  
    1591A      2.191515  1592A      2.192471  1593A      2.194857  
    1594A      2.196835  1595A      2.197311  1596A      2.199101  
    1597A      2.200595  1598A      2.200833  1599A      2.201257  
    1600A      2.201920  1601A      2.203305  1602A      2.204159  
    1603A      2.205488  1604A      2.209685  1605A      2.211712  
    1606A      2.213824  1607A      2.214803  1608A      2.220154  
    1609A      2.222104  1610A      2.222718  1611A      2.223966  
    1612A      2.224659  1613A      2.224915  1614A      2.226858  
    1615A      2.228890  1616A      2.232059  1617A      2.232334  
    1618A      2.233556  1619A      2.238760  1620A      2.238991  
    1621A      2.239666  1622A      2.241418  1623A      2.247538  
    1624A      2.247850  1625A      2.248403  1626A      2.249220  
    1627A      2.260461  1628A      2.261624  1629A      2.263478  
    1630A      2.264243  1631A      2.265023  1632A      2.266566  
    1633A      2.269546  1634A      2.275442  1635A      2.278014  
    1636A      2.282817  1637A      2.284311  1638A      2.286893  
    1639A      2.290347  1640A      2.291020  1641A      2.296367  
    1642A      2.296789  1643A      2.303781  1644A      2.304174  
    1645A      2.305742  1646A      2.309116  1647A      2.315432  
    1648A      2.322038  1649A      2.324783  1650A      2.324996  
    1651A      2.325216  1652A      2.327233  1653A      2.329505  
    1654A      2.330566  1655A      2.331119  1656A      2.332989  
    1657A      2.334365  1658A      2.335143  1659A      2.339078  
    1660A      2.340534  1661A      2.341695  1662A      2.342202  
    1663A      2.342372  1664A      2.344908  1665A      2.345809  
    1666A      2.346314  1667A      2.349055  1668A      2.349413  
    1669A      2.351267  1670A      2.368142  1671A      2.372500  
    1672A      2.372979  1673A      2.383626  1674A      2.388000  
    1675A      2.390277  1676A      2.391309  1677A      2.391958  
    1678A      2.393504  1679A      2.397130  1680A      2.418335  
    1681A      2.419542  1682A      2.423650  1683A      2.427514  
    1684A      2.431989  1685A      2.441795  1686A      2.443232  
    1687A      2.451108  1688A      2.452304  1689A      2.453064  
    1690A      2.454469  1691A      2.464254  1692A      2.464347  
    1693A      2.465363  1694A      2.467753  1695A      2.468023  
    1696A      2.471906  1697A      2.472165  1698A      2.478255  
    1699A      2.485681  1700A      2.491101  1701A      2.491533  
    1702A      2.494688  1703A      2.501749  1704A      2.506521  
    1705A      2.507459  1706A      2.511436  1707A      2.512994  
    1708A      2.516533  1709A      2.539115  1710A      2.539268  
    1711A      2.540277  1712A      2.542177  1713A      2.542915  
    1714A      2.545121  1715A      2.547637  1716A      2.548639  
    1717A      2.549259  1718A      2.551253  1719A      2.556527  
    1720A      2.556687  1721A      2.564210  1722A      2.571112  
    1723A      2.571666  1724A      2.579848  1725A      2.581167  
    1726A      2.583812  1727A      2.584386  1728A      2.585140  
    1729A      2.586244  1730A      2.588654  1731A      2.588807  
    1732A      2.593198  1733A      2.593547  1734A      2.601345  
    1735A      2.601488  1736A      2.612888  1737A      2.613049  
    1738A      2.613274  1739A      2.613834  1740A      2.617043  
    1741A      2.617779  1742A      2.632732  1743A      2.640052  
    1744A      2.640582  1745A      2.641618  1746A      2.643592  
    1747A      2.645418  1748A      2.647209  1749A      2.648689  
    1750A      2.649186  1751A      2.651457  1752A      2.652848  
    1753A      2.655734  1754A      2.656207  1755A      2.657812  
    1756A      2.665968  1757A      2.666099  1758A      2.667544  
    1759A      2.669297  1760A      2.670445  1761A      2.670658  
    1762A      2.673600  1763A      2.676935  1764A      2.677684  
    1765A      2.684287  1766A      2.684995  1767A      2.686144  
    1768A      2.687068  1769A      2.691266  1770A      2.691315  
    1771A      2.691668  1772A      2.692423  1773A      2.696084  
    1774A      2.697323  1775A      2.704200  1776A      2.720751  
    1777A      2.730705  1778A      2.730861  1779A      2.731121  
    1780A      2.731522  1781A      2.732038  1782A      2.742190  
    1783A      2.752701  1784A      2.754992  1785A      2.760379  
    1786A      2.761073  1787A      2.772673  1788A      2.775175  
    1789A      2.775989  1790A      2.779779  1791A      2.780714  
    1792A      2.799186  1793A      2.799857  1794A      2.801772  
    1795A      2.802185  1796A      2.802213  1797A      2.809717  
    1798A      2.812293  1799A      2.815199  1800A      2.815363  
    1801A      2.816103  1802A      2.816424  1803A      2.819960  
    1804A      2.828087  1805A      2.828380  1806A      2.837845  
    1807A      2.840119  1808A      2.841706  1809A      2.841921  
    1810A      2.843875  1811A      2.845712  1812A      2.860844  
    1813A      2.865026  1814A      2.865476  1815A      2.869989  
    1816A      2.871453  1817A      2.874689  1818A      2.879556  
    1819A      2.895891  1820A      2.896781  1821A      2.897152  
    1822A      2.913865  1823A      2.917579  1824A      2.917805  
    1825A      2.919716  1826A      2.927411  1827A      2.927686  
    1828A      2.929763  1829A      2.935064  1830A      2.935206  
    1831A      2.952499  1832A      2.963265  1833A      2.964854  
    1834A      2.965459  1835A      2.976115  1836A      2.978670  
    1837A      2.992335  1838A      2.993064  1839A      3.002811  
    1840A      3.023551  1841A      3.029510  1842A      3.030096  
    1843A      3.035493  1844A      3.038822  1845A      3.044139  
    1846A      3.046885  1847A      3.047615  1848A      3.048197  
    1849A      3.057590  1850A      3.057745  1851A      3.063600  
    1852A      3.072870  1853A      3.108565  1854A      3.112908  
    1855A      3.113234  1856A      3.122534  1857A      3.127247  
    1858A      3.127839  1859A      3.132588  1860A      3.134402  
    1861A      3.142109  1862A      3.143072  1863A      3.147883  
    1864A      3.148868  1865A      3.149524  1866A      3.150190  
    1867A      3.151862  1868A      3.153567  1869A      3.162203  
    1870A      3.167754  1871A      3.173166  1872A      3.174931  
    1873A      3.175397  1874A      3.193170  1875A      3.193815  
    1876A      3.220135  1877A      3.252815  1878A      3.259456  
    1879A      3.261051  1880A      3.261554  1881A      3.262042  
    1882A      3.264463  1883A      3.268225  1884A      3.271225  
    1885A      3.274719  1886A      3.275502  1887A      3.289914  
    1888A      3.292974  1889A      3.295871  1890A      3.296674  
    1891A      3.302996  1892A      3.307793  1893A      3.321469  
    1894A      3.361313  1895A      3.362467  1896A      3.370176  
    1897A      3.398243  1898A      3.415791  1899A      3.430006  
    1900A      3.432181  1901A      3.436933  1902A      3.446341  
    1903A      3.449921  1904A      3.461407  1905A      3.464658  
    1906A      3.465511  1907A      3.471058  1908A      3.474170  
    1909A      3.481423  1910A      3.485622  1911A      3.493793  
    1912A      3.509120  1913A      3.526690  1914A      3.539191  
    1915A      3.574172  1916A      3.575305  1917A      3.576190  
    1918A      3.583213  1919A      3.589996  1920A      3.638661  
    1921A      3.640696  1922A      3.646222  1923A      3.664783  
    1924A      3.666980  1925A      3.705077  1926A      3.747819  
    1927A      3.749235  1928A      3.750554  1929A      3.759188  
    1930A      3.763200  1931A      3.778658  1932A      3.779494  
    1933A      3.818184  1934A      3.841963  1935A      3.843331  
    1936A      3.869298  1937A      3.871460  1938A      3.874598  
    1939A      3.904604  1940A      3.913075  1941A      3.937795  
    1942A      3.939955  1943A      3.948217  1944A      3.949263  
    1945A      3.958513  1946A      3.959943  1947A      3.964625  
    1948A      3.971029  1949A      4.024641  1950A      4.027425  
    1951A      4.071084  1952A      4.210289  1953A      4.211030  
    1954A      4.229142  1955A      4.301646  1956A      4.354691  
    1957A      4.373096  1958A      4.393821  1959A      4.486157  
    1960A      4.737101  1961A      4.778060  1962A      4.831867  
    1963A      4.850048  1964A      4.939423  1965A      5.051064  
    1966A      5.058937  1967A      5.067699  1968A      5.112851  
    1969A      5.127478  1970A      5.391952  1971A      5.423768  
    1972A      5.736259  1973A      5.752316  1974A      6.068517  
    1975A     18.202642  1976A     18.454920  1977A     18.473001  
    1978A     18.560536  1979A     18.835394  1980A     25.343641  
    1981A     25.377367  

    Final Occupation by Irrep:
              A 
    DOCC [   300 ]
    NA   [   300 ]
    NB   [   300 ]

  @DF-RHF Final Energy: -3650.33775143094408

   => Energetics <=

    Nuclear Repulsion Energy =          15611.4211649754324753
    One-Electron Energy =              -36072.0809436523923068
    Two-Electron Energy =               16810.3220272460166598
    Total Energy =                      -3650.3377514309431717

Computation Completed


Properties will be evaluated at   0.000000,   0.000000,   0.000000 [a0]

Properties computed using the SCF density matrix


 Multipole Moments:

 ------------------------------------------------------------------------------------
     Multipole            Electronic (a.u.)      Nuclear  (a.u.)        Total (a.u.)
 ------------------------------------------------------------------------------------

 L = 1.  Multiply by 2.5417464519 to convert [e a0] to [Debye]
 Dipole X            :         -0.0009049            0.0002112           -0.0006938
 Dipole Y            :          0.0041688           -0.0044281           -0.0002592
 Dipole Z            :        587.8297945         -587.8343773           -0.0045828
 Magnitude           :                                                    0.0046422

 ------------------------------------------------------------------------------------

*** tstop() called on n2cn0683 at Sat Jan 27 01:43:37 2024
Module time:
	user time   =   19727.19 seconds =     328.79 minutes
	system time =    1575.44 seconds =      26.26 minutes
	total time  =       3064 seconds =      51.07 minutes
Total time:
	user time   =   56134.17 seconds =     935.57 minutes
	system time =    4110.88 seconds =      68.51 minutes
	total time  =       8576 seconds =     142.93 minutes
  Constructing Basis Sets for SAPT...

   => Loading Basis Set <=

    Name: (JUN-CC-PVDZ AUX)
    Role: RIFIT
    Keyword: DF_BASIS_SAPT
    atoms 1-2, 4-5, 10, 17-34, 41-53, 56-70, 73-89, 92-104, 109-119, 122-130 entry C          line   100 file /opt/software/pc2/EB-SW/software/PSI4/1.9-foss-2022a/share/psi4/basis/jun-cc-pvdz-ri.gbs 
    atoms 3, 6                                                               entry N          line   144 file /opt/software/pc2/EB-SW/software/PSI4/1.9-foss-2022a/share/psi4/basis/jun-cc-pvdz-ri.gbs 
    atoms 7-9, 11-16, 35-40, 54-55, 71-72, 90-91, 105-108, 120-121, 131-136  entry H          line    30 file /opt/software/pc2/EB-SW/software/PSI4/1.9-foss-2022a/share/psi4/basis/jun-cc-pvdz-ri.gbs 

   => Loading Basis Set <=

    Name: (JUN-CC-PVDZ AUX)
    Role: JKFIT
    Keyword: DF_BASIS_ELST
    atoms 1-2, 4-5, 10, 17-34, 41-53, 56-70, 73-89, 92-104, 109-119, 122-130 entry C          line   146 file /opt/software/pc2/EB-SW/software/PSI4/1.9-foss-2022a/share/psi4/basis/jun-cc-pvdz-jkfit.gbs 
    atoms 3, 6                                                               entry N          line   202 file /opt/software/pc2/EB-SW/software/PSI4/1.9-foss-2022a/share/psi4/basis/jun-cc-pvdz-jkfit.gbs 
    atoms 7-9, 11-16, 35-40, 54-55, 71-72, 90-91, 105-108, 120-121, 131-136  entry H          line    70 file /opt/software/pc2/EB-SW/software/PSI4/1.9-foss-2022a/share/psi4/basis/jun-cc-pvdz-jkfit.gbs 


  //>>>>>>>>>>>>>>>>>>>>>>>>>>>>>>>>>>>//
  //               SSAPT0              //
  //<<<<<<<<<<<<<<<<<<<<<<<<<<<<<<<<<<<//


*** tstart() called on n2cn0683
*** at Sat Jan 27 01:43:38 2024

        SAPT0  
    Ed Hohenstein
     6 June 2009

      Orbital Information
  --------------------------
    NSO        =      2019
    NMO        =      1981
    NRI        =      7157
    NRI (Elst) =      8896
    NOCC A     =        26
    NOCC B     =       300
    FOCC A     =         7
    FOCC B     =        96
    NVIR A     =      1955
    NVIR B     =      1681

    Elst10,r            =    -0.008298715482 [Eh]
    Exch10              =    -0.000000425747 [Eh]
    Exch10 (S^2)        =    -0.000000425747 [Eh]

    Iter     Energy [mEh]          dE [mEh]         Residual      Time [s]
       1      -0.01191981       0.011919812       0.941718745           209
       2      -0.01086313      -0.001056681       0.195010450           436
       3      -0.01173251       0.000869380       0.034843472           642
       4      -0.01172622      -0.000006289       0.013892126           866
       5      -0.01171009      -0.000016135       0.002850626          1074
       6      -0.01171061       0.000000525       0.001416037          1283
       7      -0.01171125       0.000000638       0.000604795          1471
       8      -0.01171123      -0.000000018       0.000232620          1681
       9      -0.01171115      -0.000000076       0.000075581          1880
      10      -0.01171114      -0.000000011       0.000016897          2074
      11      -0.01171115       0.000000007       0.000005822          2266
      12      -0.01171115       0.000000001       0.000001903          2416
      13      -0.01171115      -0.000000001       0.000000757          2641

    CHF Iterations converged


    Iter     Energy [mEh]          dE [mEh]         Residual      Time [s]
       1      -4.32882651       4.328826514      36.022972893           234
       2      -2.80021207      -1.528614447       4.151308915           448
       3      -2.79045201      -0.009760056       1.433649016           674
       4      -2.84145104       0.050999031       0.439265710           889
       5      -2.84788488       0.006433841       0.151143421          1134
       6      -2.84734899      -0.000535890       0.099536752          1415
       7      -2.84585288      -0.001496111       0.046682031          1654
       8      -2.84600728       0.000154394       0.028199395          1875
       9      -2.84640572       0.000398446       0.017277021          2098
      10      -2.84628047      -0.000125256       0.012880300          2330
      11      -2.84621833      -0.000062132       0.005458702          2573
      12      -2.84622436       0.000006024       0.002617454          2821
      13      -2.84623876       0.000014398       0.001151094          3078
      14      -2.84624237       0.000003613       0.000623328          3375
      15      -2.84623970      -0.000002664       0.000422380          3638
      16      -2.84623720      -0.000002506       0.000179406          3915
      17      -2.84623869       0.000001492       0.000066547          4169
      18      -2.84623889       0.000000199       0.000028333          4489
      19      -2.84623874      -0.000000147       0.000018236          4765
      20      -2.84623866      -0.000000078       0.000008286          5030
      21      -2.84623870       0.000000035       0.000003930          5304
      22      -2.84623871       0.000000015       0.000001649          5556
      23      -2.84623871      -0.000000003       0.000000582          5819

    CHF Iterations converged

    Ind20,r (A<-B)      =    -0.000011711151 [Eh]
    Ind20,r (B<-A)      =    -0.002846238710 [Eh]
    Ind20,r             =    -0.002857949861 [Eh]
    Exch-Ind20,r (A<-B) =     0.000000094779 [Eh]
    Exch-Ind20,r (B<-A) =     0.000000512978 [Eh]
    Exch-Ind20,r        =     0.000000607757 [Eh]
    Disp20              =    -0.001690429841 [Eh]
    Disp20 (SS)         =    -0.000845214921 [Eh]
    Disp20 (OS)         =    -0.000845214921 [Eh]
    Exch-Disp20         =     0.000000205371 [Eh]
    Exch-Disp20 (SS)    =     0.000000157720 [Eh]
    Exch-Disp20 (OS)    =     0.000000047652 [Eh]

    SAPT Results 
  --------------------------------------------------------------------------------------------------------
    Electrostatics                 -8.29871548 [mEh]      -5.20752259 [kcal/mol]     -21.78827450 [kJ/mol]
      Elst10,r                     -8.29871548 [mEh]      -5.20752259 [kcal/mol]     -21.78827450 [kJ/mol]

    Exchange                       -0.00042575 [mEh]      -0.00026716 [kcal/mol]      -0.00111780 [kJ/mol]
      Exch10                       -0.00042575 [mEh]      -0.00026716 [kcal/mol]      -0.00111780 [kJ/mol]
      Exch10(S^2)                  -0.00042575 [mEh]      -0.00026716 [kcal/mol]      -0.00111780 [kJ/mol]

    Induction                      -2.89627656 [mEh]      -1.81744098 [kcal/mol]      -7.60417307 [kJ/mol]
      Ind20,r                      -2.85794986 [mEh]      -1.79339061 [kcal/mol]      -7.50354633 [kJ/mol]
      Exch-Ind20,r                  0.00060776 [mEh]       0.00038137 [kcal/mol]       0.00159567 [kJ/mol]
      delta HF,r (2)               -0.03893446 [mEh]      -0.02443174 [kcal/mol]      -0.10222240 [kJ/mol]

    Dispersion                     -1.69022447 [mEh]      -1.06063187 [kcal/mol]      -4.43768373 [kJ/mol]
      Disp20                       -1.69042984 [mEh]      -1.06076074 [kcal/mol]      -4.43822294 [kJ/mol]
      Exch-Disp20                   0.00020537 [mEh]       0.00012887 [kcal/mol]       0.00053920 [kJ/mol]
      Disp20 (SS)                  -0.84521492 [mEh]      -0.53038037 [kcal/mol]      -2.21911147 [kJ/mol]
      Disp20 (OS)                  -0.84521492 [mEh]      -0.53038037 [kcal/mol]      -2.21911147 [kJ/mol]
      Exch-Disp20 (SS)              0.00015772 [mEh]       0.00009897 [kcal/mol]       0.00041409 [kJ/mol]
      Exch-Disp20 (OS)              0.00004765 [mEh]       0.00002990 [kcal/mol]       0.00012511 [kJ/mol]

  Total HF                        -11.19541779 [mEh]      -7.02523073 [kcal/mol]     -29.39356536 [kJ/mol]
  Total SAPT0                     -12.88564226 [mEh]      -8.08586259 [kcal/mol]     -33.83124910 [kJ/mol]

  Special recipe for scaled SAPT0 (see Manual):
    Electrostatics sSAPT0          -8.29871548 [mEh]      -5.20752259 [kcal/mol]     -21.78827450 [kJ/mol]
    Exchange sSAPT0                -0.00042575 [mEh]      -0.00026716 [kcal/mol]      -0.00111780 [kJ/mol]
    Induction sSAPT0               -2.89627656 [mEh]      -1.81744098 [kcal/mol]      -7.60417307 [kJ/mol]
    Dispersion sSAPT0              -1.69022447 [mEh]      -1.06063187 [kcal/mol]      -4.43768373 [kJ/mol]
  Total sSAPT0                    -12.88564226 [mEh]      -8.08586259 [kcal/mol]     -33.83124910 [kJ/mol]
  --------------------------------------------------------------------------------------------------------

*** tstop() called on n2cn0683 at Sat Jan 27 08:50:08 2024
Module time:
	user time   =   77396.13 seconds =    1289.94 minutes
	system time =    3819.67 seconds =      63.66 minutes
	total time  =      25590 seconds =     426.50 minutes
Total time:
	user time   =  133531.85 seconds =    2225.53 minutes
	system time =    7930.56 seconds =     132.18 minutes
	total time  =      34167 seconds =     569.45 minutes

    Psi4 stopped on: Saturday, 27 January 2024 08:50AM
    Psi4 wall time for execution: 9:29:28.32

*** Psi4 exiting successfully. Buy a developer a beer!
