
    -----------------------------------------------------------------------
          Psi4: An Open-Source Ab Initio Electronic Structure Package
                               Psi4 1.9 release

                         Git: Rev {} zzzzzzz 


    D. G. A. Smith, L. A. Burns, A. C. Simmonett, R. M. Parrish,
    M. C. Schieber, R. Galvelis, P. Kraus, H. Kruse, R. Di Remigio,
    A. Alenaizan, A. M. James, S. Lehtola, J. P. Misiewicz, M. Scheurer,
    R. A. Shaw, J. B. Schriber, Y. Xie, Z. L. Glick, D. A. Sirianni,
    J. S. O'Brien, J. M. Waldrop, A. Kumar, E. G. Hohenstein,
    B. P. Pritchard, B. R. Brooks, H. F. Schaefer III, A. Yu. Sokolov,
    K. Patkowski, A. E. DePrince III, U. Bozkaya, R. A. King,
    F. A. Evangelista, J. M. Turney, T. D. Crawford, C. D. Sherrill,
    J. Chem. Phys. 152(18) 184108 (2020). https://doi.org/10.1063/5.0006002

                            Additional Code Authors
    E. T. Seidl, C. L. Janssen, E. F. Valeev, M. L. Leininger,
    J. F. Gonthier, R. M. Richard, H. R. McAlexander, M. Saitow, X. Wang,
    P. Verma, M. H. Lechner, A. Jiang, S. Behnle, A. G. Heide,
    M. F. Herbst, and D. L. Poole

             Previous Authors, Complete List of Code Contributors,
                       and Citations for Specific Modules
    https://github.com/psi4/psi4/blob/master/codemeta.json
    https://github.com/psi4/psi4/graphs/contributors
    http://psicode.org/psi4manual/master/introduction.html#citing-psifour

    -----------------------------------------------------------------------


    Psi4 started on: Wednesday, 07 February 2024 12:23AM

    Process ID: 1087285
    Host:       n2cn0484
    PSIDATADIR: /opt/software/pc2/EB-SW/software/PSI4/1.9-foss-2022a/share/psi4
    Memory:     500.0 MiB
    Threads:    16
    
  ==> Input File <==

--------------------------------------------------------------------------
memory 32 GB # how much memory is available ! Depends on the nodes/cores !

molecule dimer {
# monomer A
-1 1    # Charge and multiplicity
B -1.977592e-04  2.742729e-04 3.700034
F  1.123153e-16  1.430594e-17 5.112819
F  1.147860e+00  6.757812e-01 3.228893
F  1.191806e-02 -1.332011e+00 3.229095
F -1.159666e+00  6.560735e-01 3.229174
--
# monomer B
0 1     # Charge and multiplicity
C   1.22531237526482      0.70753866091955      0.00613762728373
C   1.22532433589282     -0.70753852257020     -0.00619318228664
C   -0.00000567409046      1.41496628609039     -0.00672680580738
C   2.45644923379077      1.41832825917820      0.00902448468363
C   0.00001130712078     -1.41497612663474      0.00347275151708
C   -1.22530046906674      0.70754574598412      0.00838914760619
C   2.45643823516184     -1.41832293188077     -0.00843833914343
C   -0.00000085313587      2.83680140328112     -0.00913035594137
C   3.68182717731192      0.70931832800114     -0.00808954934571
C   2.45512052870677      2.83422403348893     -0.00819210630633
C   3.68182158506039     -0.70933346742900      0.00798293467272
C   -1.22531311884624     -0.70752714354401     -0.00512042085974
C   1.22670006104402      3.54346985599427      0.00816696660346
C   0.00000526469929     -2.83678176723568      0.00832091913869
C   -2.45643555300670      1.41831729028492      0.00842454345199
C   2.45512389762097     -2.83422965658853      0.00783102630520
C   -1.22671388474763      3.54346943575023      0.00827029982280
C   4.91451777504333      1.42717324448953     -0.00160886631602
C   3.69315067131765      3.54279566454522     -0.00155906667985
C   -2.45643712022637     -1.41831290883911     -0.00846337726810
C   1.22670532178455     -3.54347386990643     -0.00780316414624
C   -2.45512491866593      2.83421703463423     -0.00818572995999
C   4.91452486062398     -1.42718653794377      0.00136387641845
C   1.22142509354026      4.97013443726031      0.00150231067809
C   4.89300870916237      2.82518837202648     -0.00039219795739
C   -1.22669652864725     -3.54347062507680     -0.00753595973677
C   -3.68181849668397      0.70932533873199     -0.00807686886569
C   3.69314758099218     -3.54280096939050      0.00148176697923
C   -1.22143177215231      4.97012866986289      0.00168580605083
C   6.13477145276790      0.68054831910577     -0.00083909176631
C   3.65678936045204      4.97295361556775     -0.00065042889723
C   -2.45512642789169     -2.83421472106065      0.00758666850712
C   -3.68181869921921     -0.70932533146830      0.00810055625144
C   4.89301309775526     -2.82519973363176      0.00021895393805
C   -0.00000059327114      5.65044773803267      0.00045449734393
C   6.13477559217374     -0.68055448207492      0.00042622874941
C   2.47813196269732      5.65357712333155      0.00063835075260
C   1.22142288457925     -4.97012668293268     -0.00129718634452
C   -3.69316190412301      3.54279732619245     -0.00139355922051
C   -1.22142804110313     -4.97011793159564     -0.00140994817719
C   -4.91452132810043      1.42717581899491     -0.00153192130862
C   3.65678749952045     -4.97295485423912      0.00080007163680
C   -2.47813805026426      5.65357479452875      0.00092287576113
C   -3.69314125872231     -3.54278984697859      0.00136564082345
C   -4.91451200321153     -1.42718062802730      0.00139857359209
C   -0.00000552908399     -5.65043791501335      0.00005899322272
C   -4.89302000425900      2.82518897091939     -0.00040227981744
C   2.47812647313991     -5.65357317188818     -0.00029052915548
C   -3.65679823041642      4.97295655404175     -0.00047374852278
C   -4.89299899901461     -2.82519139505969      0.00006491824035
C   -2.47812801824129     -5.65356579800621     -0.00056571680280
C   -6.13477002348955      0.68054913825639     -0.00086464346868
C   -3.65678835334731     -4.97294365097028      0.00058578382008
C   -6.13476456307132     -0.68055354348201      0.00040575295444
H   5.83528897565761      3.36927626695423      0.00396712770529
H   7.07385965258860      1.22821762089947     -0.00037744837300
H   4.60066374401555      5.51238117445323     -0.00014522814529
H   5.83528386714679     -3.36930568472863     -0.00423551337640
H   -0.00001167146422      6.73853104613662     -0.00389474766392
H   7.07386165167227     -1.22822657074368     -0.00008250934481
H   2.47331421164041      6.74068466339473      0.00017162982210
H   4.60066897122302     -5.51237575717576      0.00039007446835
H   -2.47331820069565      6.74068209160650      0.00047297644710
H   -0.00000978838621     -6.73852780445195      0.00458867820736
H   -5.83530143450167      3.36927132229595      0.00410314985360
H   2.47330840367253     -6.74068500242887      0.00027980126949
H   -4.60067436136587      5.51237839860371      0.00002010017831
H   -5.83527902699321     -3.36928859177951     -0.00451481925734
H   -2.47329986759855     -6.74067870613986     -0.00016951527498
H   -7.07385728692578      1.22822084484047     -0.00046143985387
H   -4.60067330624313     -5.51236229778631      0.00021776644566
H   -7.07385645456741     -1.22822025997701     -0.00017736581114

    units angstrom      # Angstroms are the default
    no_reorient         # Geometry fixed, default
    symmetry c1         # C1 symmetry, default
}

set {
    scf_type DF         # Density fitting, faster than exact integrals
    freeze_core True    # Freeze core electrons
    basis jun-cc-pVDZ   # Jun-cc-pVDZ basis set, recommended for sSAPT0 in https://doi.org/10.1063/1.4867135
}

energy('ssapt0')        # Compute sSAPT0 energy, includes also SAPT0
--------------------------------------------------------------------------

  Memory set to  29.802 GiB by Python driver.

Scratch directory: /tmp/
   => Loading Basis Set <=

    Name: JUN-CC-PVDZ
    Role: ORBITAL
    Keyword: BASIS
    atoms 1     entry B          line   130 file /opt/software/pc2/EB-SW/software/PSI4/1.9-foss-2022a/share/psi4/basis/jun-cc-pvdz.gbs 
    atoms 2-5   entry F          line   266 file /opt/software/pc2/EB-SW/software/PSI4/1.9-foss-2022a/share/psi4/basis/jun-cc-pvdz.gbs 
    atoms 6-59  entry C          line   164 file /opt/software/pc2/EB-SW/software/PSI4/1.9-foss-2022a/share/psi4/basis/jun-cc-pvdz.gbs 
    atoms 60-77 entry H          line    36 file /opt/software/pc2/EB-SW/software/PSI4/1.9-foss-2022a/share/psi4/basis/jun-cc-pvdz.gbs 

   => Loading Basis Set <=

    Name: JUN-CC-PVDZ
    Role: ORBITAL
    Keyword: BASIS
    atoms 1     entry B          line   130 file /opt/software/pc2/EB-SW/software/PSI4/1.9-foss-2022a/share/psi4/basis/jun-cc-pvdz.gbs 
    atoms 2-5   entry F          line   266 file /opt/software/pc2/EB-SW/software/PSI4/1.9-foss-2022a/share/psi4/basis/jun-cc-pvdz.gbs 
    atoms 6-59  entry C          line   164 file /opt/software/pc2/EB-SW/software/PSI4/1.9-foss-2022a/share/psi4/basis/jun-cc-pvdz.gbs 
    atoms 60-77 entry H          line    36 file /opt/software/pc2/EB-SW/software/PSI4/1.9-foss-2022a/share/psi4/basis/jun-cc-pvdz.gbs 


  //>>>>>>>>>>>>>>>>>>>>>>>>>>>>>>>>>>>//
  //              Dimer HF             //
  //<<<<<<<<<<<<<<<<<<<<<<<<<<<<<<<<<<<//

   => Libint2 <=

    Primary   basis highest AM E, G, H:  5, 4, 3
    Auxiliary basis highest AM E, G, H:  6, 5, 4
    Onebody   basis highest AM E, G, H:  6, 5, 4
    Solid Harmonics ordering:            gaussian

*** tstart() called on n2cn0484
*** at Wed Feb  7 00:23:49 2024

   => Loading Basis Set <=

    Name: JUN-CC-PVDZ
    Role: ORBITAL
    Keyword: BASIS
    atoms 1     entry B          line   130 file /opt/software/pc2/EB-SW/software/PSI4/1.9-foss-2022a/share/psi4/basis/jun-cc-pvdz.gbs 
    atoms 2-5   entry F          line   266 file /opt/software/pc2/EB-SW/software/PSI4/1.9-foss-2022a/share/psi4/basis/jun-cc-pvdz.gbs 
    atoms 6-59  entry C          line   164 file /opt/software/pc2/EB-SW/software/PSI4/1.9-foss-2022a/share/psi4/basis/jun-cc-pvdz.gbs 
    atoms 60-77 entry H          line    36 file /opt/software/pc2/EB-SW/software/PSI4/1.9-foss-2022a/share/psi4/basis/jun-cc-pvdz.gbs 


         ---------------------------------------------------------
                                   SCF
               by Justin Turney, Rob Parrish, Andy Simmonett
                          and Daniel G. A. Smith
                              RHF Reference
                       16 Threads,  30517 MiB Core
         ---------------------------------------------------------

  ==> Geometry <==

    Molecular point group: c1
    Full point group: C1

    Geometry (in Angstrom), charge = -1, multiplicity = 1:

       Center              X                  Y                   Z               Mass       
    ------------   -----------------  -----------------  -----------------  -----------------
         B           -0.000198161052     0.000273808717     3.272613440053    11.009305360000
         F           -0.000000401852    -0.000000464183     4.685398440053    18.998403162730
         F            1.147859598148     0.675780735817     2.801472440053    18.998403162730
         F            0.011917658148    -1.332011464183     2.801674440053    18.998403162730
         F           -1.159666401852     0.656073035817     2.801753440053    18.998403162730
         C            1.225311973413     0.707538196736    -0.421282932663    12.000000000000
         C            1.225323934041    -0.707538986754    -0.433613742234    12.000000000000
         C           -0.000006075942     1.414965821907    -0.434147365755    12.000000000000
         C            2.456448831939     1.418327794995    -0.418396075263    12.000000000000
         C            0.000010905269    -1.414976590818    -0.423947808430    12.000000000000
         C           -1.225300870919     0.707545281801    -0.419031412341    12.000000000000
         C            2.456437833310    -1.418323396064    -0.435858899091    12.000000000000
         C           -0.000001254988     2.836800939098    -0.436550915888    12.000000000000
         C            3.681826775460     0.709317863818    -0.435510109293    12.000000000000
         C            2.455120126855     2.834223569306    -0.435612666253    12.000000000000
         C            3.681821183209    -0.709333931612    -0.419437625274    12.000000000000
         C           -1.225313520698    -0.707527607727    -0.432540980807    12.000000000000
         C            1.226699659192     3.543469391811    -0.419253593344    12.000000000000
         C            0.000004862847    -2.836782231419    -0.419099640808    12.000000000000
         C           -2.456435954859     1.418316826102    -0.418996016495    12.000000000000
         C            2.455123495769    -2.834230120772    -0.419589533642    12.000000000000
         C           -1.226714286599     3.543468971567    -0.419150260124    12.000000000000
         C            4.914517373191     1.427172780306    -0.429029426263    12.000000000000
         C            3.693150269466     3.542795200362    -0.428979626627    12.000000000000
         C           -2.456437522078    -1.418313373022    -0.435883937215    12.000000000000
         C            1.226704919933    -3.543474334090    -0.435223724093    12.000000000000
         C           -2.455125320518     2.834216570451    -0.435606289907    12.000000000000
         C            4.914524458772    -1.427187002127    -0.426056683529    12.000000000000
         C            1.221424691688     4.970133973077    -0.425918249269    12.000000000000
         C            4.893008307311     2.825187907843    -0.427812757905    12.000000000000
         C           -1.226696930499    -3.543471089260    -0.434956519684    12.000000000000
         C           -3.681818898536     0.709324874549    -0.435497428813    12.000000000000
         C            3.693147179140    -3.542801433574    -0.425938792968    12.000000000000
         C           -1.221432174004     4.970128205680    -0.425734753896    12.000000000000
         C            6.134771050916     0.680547854922    -0.428259651713    12.000000000000
         C            3.656788958600     4.972953151384    -0.428070988844    12.000000000000
         C           -2.455126829744    -2.834215185244    -0.419833891440    12.000000000000
         C           -3.681819101071    -0.709325795652    -0.419320003696    12.000000000000
         C            4.893012695903    -2.825200197815    -0.427201606009    12.000000000000
         C           -0.000000995123     5.650447273849    -0.426966062603    12.000000000000
         C            6.134775190322    -0.680554946258    -0.426994331198    12.000000000000
         C            2.478131560845     5.653576659148    -0.426782209195    12.000000000000
         C            1.221422482727    -4.970127147116    -0.428717746292    12.000000000000
         C           -3.693162305975     3.542796862009    -0.428814119168    12.000000000000
         C           -1.221428442955    -4.970118395779    -0.428830508124    12.000000000000
         C           -4.914521729952     1.427175354812    -0.428952481256    12.000000000000
         C            3.656787097669    -4.972955318422    -0.426620488310    12.000000000000
         C           -2.478138452116     5.653574330345    -0.426497684186    12.000000000000
         C           -3.693141660574    -3.542790311162    -0.426054919124    12.000000000000
         C           -4.914512405063    -1.427181092211    -0.426021986355    12.000000000000
         C           -0.000005930936    -5.650438379197    -0.427361566724    12.000000000000
         C           -4.893020406111     2.825188506736    -0.427822839765    12.000000000000
         C            2.478126071288    -5.653573636072    -0.427711089103    12.000000000000
         C           -3.656798632268     4.972956089858    -0.427894308470    12.000000000000
         C           -4.892999400866    -2.825191859243    -0.427355641707    12.000000000000
         C           -2.478128420093    -5.653566262190    -0.427986276750    12.000000000000
         C           -6.134770425341     0.680548674073    -0.428285203416    12.000000000000
         C           -3.656788755199    -4.972944115154    -0.426834776127    12.000000000000
         C           -6.134764964923    -0.680554007665    -0.427014806993    12.000000000000
         H            5.835288573806     3.369275802771    -0.423453432242     1.007825032230
         H            7.073859250737     1.228217156716    -0.427798008320     1.007825032230
         H            4.600663342164     5.512380710270    -0.427565788092     1.007825032230
         H            5.835283465295    -3.369306148912    -0.431656073324     1.007825032230
         H           -0.000012073316     6.738530581953    -0.431315307611     1.007825032230
         H            7.073861249820    -1.228227034927    -0.427503069292     1.007825032230
         H            2.473313809789     6.740684199211    -0.427248930125     1.007825032230
         H            4.600668569371    -5.512376221359    -0.427030485479     1.007825032230
         H           -2.473318602548     6.740681627423    -0.426947583500     1.007825032230
         H           -0.000010190238    -6.738528268635    -0.422831881740     1.007825032230
         H           -5.835301836354     3.369270858113    -0.423317410094     1.007825032230
         H            2.473308001821    -6.740685466612    -0.427140758678     1.007825032230
         H           -4.600674763218     5.512377934420    -0.427400459769     1.007825032230
         H           -5.835279428845    -3.369289055963    -0.431935379204     1.007825032230
         H           -2.473300269450    -6.740679170323    -0.427590075222     1.007825032230
         H           -7.073857688778     1.228220380657    -0.427881999801     1.007825032230
         H           -4.600673708095    -5.512362761970    -0.427202793501     1.007825032230
         H           -7.073856856419    -1.228220724160    -0.427597925758     1.007825032230

  Running in c1 symmetry.

  Rotational constants: A =      0.00193  B =      0.00193  C =      0.00110 [cm^-1]
  Rotational constants: A =     57.72124  B =     57.71353  C =     33.02251 [MHz]
  Nuclear repulsion = 7920.645801941272111

  Charge       = -1
  Multiplicity = 1
  Electrons    = 384
  Nalpha       = 192
  Nbeta        = 192

  ==> Algorithm <==

  SCF Algorithm Type is DF.
  DIIS enabled.
  MOM disabled.
  Fractional occupation disabled.
  Guess Type is SAD.
  Energy threshold   = 1.00e-08
  Density threshold  = 1.00e-08
  Integral threshold = 1.00e-12

  ==> Primary Basis <==

  Basis Set: JUN-CC-PVDZ
    Blend: JUN-CC-PVDZ
    Number of shells: 526
    Number of basis functions: 1152
    Number of Cartesian functions: 1211
    Spherical Harmonics?: true
    Max angular momentum: 2

   => Loading Basis Set <=

    Name: (JUN-CC-PVDZ AUX)
    Role: JKFIT
    Keyword: DF_BASIS_SCF
    atoms 1     entry B          line    90 file /opt/software/pc2/EB-SW/software/PSI4/1.9-foss-2022a/share/psi4/basis/jun-cc-pvdz-jkfit.gbs 
    atoms 2-5   entry F          line   314 file /opt/software/pc2/EB-SW/software/PSI4/1.9-foss-2022a/share/psi4/basis/jun-cc-pvdz-jkfit.gbs 
    atoms 6-59  entry C          line   146 file /opt/software/pc2/EB-SW/software/PSI4/1.9-foss-2022a/share/psi4/basis/jun-cc-pvdz-jkfit.gbs 
    atoms 60-77 entry H          line    70 file /opt/software/pc2/EB-SW/software/PSI4/1.9-foss-2022a/share/psi4/basis/jun-cc-pvdz-jkfit.gbs 

  ==> Integral Setup <==

  ==> DiskDFJK: Density-Fitted J/K Matrices <==

    J tasked:                  Yes
    K tasked:                  Yes
    wK tasked:                  No
    OpenMP threads:             16
    Integrals threads:          16
    Memory [MiB]:            22888
    Algorithm:                Core
    Integral Cache:           SAVE
    Schwarz Cutoff:          1E-12
    Fitting Condition:       1E-10

   => Auxiliary Basis Set <=

  Basis Set: (JUN-CC-PVDZ AUX)
    Blend: JUN-CC-PVDZ-JKFIT
    Number of shells: 1755
    Number of basis functions: 5075
    Number of Cartesian functions: 5819
    Spherical Harmonics?: true
    Max angular momentum: 3

  Minimum eigenvalue in the overlap matrix is 7.1121533476E-10.
  Reciprocal condition number of the overlap matrix is 3.0310104410E-11.
    Using canonical orthogonalization.
  Overall, 14 of 1152 possible MOs eliminated.


  ==> Pre-Iterations <==

  SCF Guess: Superposition of Atomic Densities via on-the-fly atomic UHF (no occupation information).

   -------------------------
    Irrep   Nso     Nmo    
   -------------------------
     A       1152    1138 
   -------------------------
    Total    1152    1138
   -------------------------

  ==> Iterations <==

                           Total Energy        Delta E     RMS |[F,P]|

   @DF-RHF iter SAD: -2483.38267072905410   -2.48338e+03   0.00000e+00 
   @DF-RHF iter   1: -2477.59838596221789    5.78428e+00   1.10916e-03 ADIIS/DIIS
   @DF-RHF iter   2: -2478.49847199667647   -9.00086e-01   4.94700e-04 ADIIS/DIIS
   @DF-RHF iter   3: -2478.64430387675839   -1.45832e-01   1.46010e-04 ADIIS/DIIS
   @DF-RHF iter   4: -2478.65952073314702   -1.52169e-02   6.84493e-05 DIIS
   @DF-RHF iter   5: -2478.66338177909392   -3.86105e-03   1.77655e-05 DIIS
   @DF-RHF iter   6: -2478.66371357661183   -3.31798e-04   5.46627e-06 DIIS
   @DF-RHF iter   7: -2478.66379792749240   -8.43509e-05   2.71074e-06 DIIS
   @DF-RHF iter   8: -2478.66382176286606   -2.38354e-05   1.22142e-06 DIIS
   @DF-RHF iter   9: -2478.66382873378006   -6.97091e-06   2.75023e-07 DIIS
   @DF-RHF iter  10: -2478.66382899263181   -2.58852e-07   9.87038e-08 DIIS
   @DF-RHF iter  11: -2478.66382901312045   -2.04886e-08   4.10018e-08 DIIS
   @DF-RHF iter  12: -2478.66382901850784   -5.38739e-09   1.81006e-08 DIIS
   @DF-RHF iter  13: -2478.66382901966153   -1.15369e-09   1.10872e-08 DIIS
   @DF-RHF iter  14: -2478.66382902036867   -7.07132e-10   7.31692e-09 DIIS
  Energy and wave function converged.


  ==> Post-Iterations <==

    Orbital Energies [Eh]
    ---------------------

    Doubly Occupied:                                                      

       1A    -26.082392     2A    -26.082298     3A    -26.082207  
       4A    -26.076689     5A    -11.179369     6A    -11.179356  
       7A    -11.179353     8A    -11.179286     9A    -11.179273  
      10A    -11.179269    11A    -11.179212    12A    -11.179209  
      13A    -11.179207    14A    -11.179127    15A    -11.179126  
      16A    -11.179123    17A    -11.177265    18A    -11.177261  
      19A    -11.177260    20A    -11.177256    21A    -11.177254  
      22A    -11.177250    23A    -11.175871    24A    -11.175867  
      25A    -11.175866    26A    -11.175864    27A    -11.175862  
      28A    -11.175859    29A    -11.175095    30A    -11.175044  
      31A    -11.175039    32A    -11.174858    33A    -11.174855  
      34A    -11.174693    35A    -11.174439    36A    -11.174209  
      37A    -11.174207    38A    -11.173875    39A    -11.173873  
      40A    -11.173659    41A    -11.173335    42A    -11.173191  
      43A    -11.173186    44A    -11.172963    45A    -11.172962  
      46A    -11.172916    47A    -11.172673    48A    -11.172668  
      49A    -11.172665    50A    -11.172626    51A    -11.172622  
      52A    -11.172621    53A    -11.170209    54A    -11.169769  
      55A    -11.169753    56A    -11.168468    57A    -11.168461  
      58A    -11.167981    59A     -7.552688    60A     -1.425183  
      61A     -1.366918    62A     -1.366749    63A     -1.362241  
      64A     -1.157969    65A     -1.137024    66A     -1.137024  
      67A     -1.108607    68A     -1.108599    69A     -1.096438  
      70A     -1.078436    71A     -1.068480    72A     -1.052228  
      73A     -1.052221    74A     -1.034241    75A     -1.034236  
      76A     -1.000419    77A     -1.000410    78A     -0.996125  
      79A     -0.987461    80A     -0.987456    81A     -0.959391  
      82A     -0.940902    83A     -0.939075    84A     -0.937897  
      85A     -0.937856    86A     -0.934576    87A     -0.905531  
      88A     -0.905488    89A     -0.882452    90A     -0.882404  
      91A     -0.815431    92A     -0.815401    93A     -0.804623  
      94A     -0.802308    95A     -0.802252    96A     -0.799922  
      97A     -0.799874    98A     -0.782756    99A     -0.760748  
     100A     -0.738719   101A     -0.734286   102A     -0.730893  
     103A     -0.730884   104A     -0.716420   105A     -0.716409  
     106A     -0.664662   107A     -0.663559   108A     -0.653698  
     109A     -0.653674   110A     -0.651680   111A     -0.651671  
     112A     -0.635872   113A     -0.619879   114A     -0.619867  
     115A     -0.616388   116A     -0.613626   117A     -0.613609  
     118A     -0.583053   119A     -0.572537   120A     -0.572533  
     121A     -0.572177   122A     -0.569138   123A     -0.560711  
     124A     -0.560708   125A     -0.548971   126A     -0.547005  
     127A     -0.546992   128A     -0.543146   129A     -0.543058  
     130A     -0.542564   131A     -0.531166   132A     -0.520914  
     133A     -0.520882   134A     -0.520433   135A     -0.518377  
     136A     -0.513203   137A     -0.509006   138A     -0.508596  
     139A     -0.508583   140A     -0.493278   141A     -0.493272  
     142A     -0.489643   143A     -0.489628   144A     -0.485321  
     145A     -0.485312   146A     -0.477345   147A     -0.476470  
     148A     -0.476458   149A     -0.461820   150A     -0.461773  
     151A     -0.460510   152A     -0.460507   153A     -0.457311  
     154A     -0.457306   155A     -0.450200   156A     -0.444853  
     157A     -0.443303   158A     -0.443294   159A     -0.422736  
     160A     -0.422589   161A     -0.422501   162A     -0.419106  
     163A     -0.417061   164A     -0.414686   165A     -0.407727  
     166A     -0.404251   167A     -0.401772   168A     -0.401764  
     169A     -0.400311   170A     -0.399472   171A     -0.399413  
     172A     -0.384389   173A     -0.384362   174A     -0.368173  
     175A     -0.368092   176A     -0.360866   177A     -0.360857  
     178A     -0.322027   179A     -0.322003   180A     -0.319424  
     181A     -0.297901   182A     -0.297899   183A     -0.268907  
     184A     -0.251413   185A     -0.249288   186A     -0.249210  
     187A     -0.232491   188A     -0.221540   189A     -0.200966  
     190A     -0.200917   191A     -0.144474   192A     -0.144402  

    Virtual:                                                              

     193A      0.093685   194A      0.093743   195A      0.107603  
     196A      0.107614   197A      0.109199   198A      0.110047  
     199A      0.110048   200A      0.116727   201A      0.120953  
     202A      0.131965   203A      0.131967   204A      0.146035  
     205A      0.146078   206A      0.146934   207A      0.146939  
     208A      0.149588   209A      0.155713   210A      0.155719  
     211A      0.156092   212A      0.156124   213A      0.156219  
     214A      0.161356   215A      0.161365   216A      0.163406  
     217A      0.165784   218A      0.166524   219A      0.168919  
     220A      0.170234   221A      0.177270   222A      0.177275  
     223A      0.178616   224A      0.180840   225A      0.190037  
     226A      0.190045   227A      0.190608   228A      0.190628  
     229A      0.191295   230A      0.191307   231A      0.196079  
     232A      0.196881   233A      0.197999   234A      0.199120  
     235A      0.201802   236A      0.201811   237A      0.206646  
     238A      0.213751   239A      0.213756   240A      0.216056  
     241A      0.216082   242A      0.219770   243A      0.219776  
     244A      0.223476   245A      0.223482   246A      0.227327  
     247A      0.235169   248A      0.237724   249A      0.237781  
     250A      0.244071   251A      0.250632   252A      0.251834  
     253A      0.251843   254A      0.253777   255A      0.253794  
     256A      0.256586   257A      0.262643   258A      0.262746  
     259A      0.263456   260A      0.263491   261A      0.265230  
     262A      0.267860   263A      0.267863   264A      0.271420  
     265A      0.271434   266A      0.271486   267A      0.274910  
     268A      0.274947   269A      0.276612   270A      0.277081  
     271A      0.277404   272A      0.277427   273A      0.278323  
     274A      0.280844   275A      0.281172   276A      0.290118  
     277A      0.291650   278A      0.291656   279A      0.294065  
     280A      0.294082   281A      0.295216   282A      0.296953  
     283A      0.296960   284A      0.303868   285A      0.305158  
     286A      0.305198   287A      0.305369   288A      0.309273  
     289A      0.309282   290A      0.312231   291A      0.312416  
     292A      0.320239   293A      0.320273   294A      0.323629  
     295A      0.323643   296A      0.327659   297A      0.327671  
     298A      0.331294   299A      0.331506   300A      0.331516  
     301A      0.340837   302A      0.340853   303A      0.342493  
     304A      0.342503   305A      0.343994   306A      0.344020  
     307A      0.350147   308A      0.357013   309A      0.357040  
     310A      0.360687   311A      0.360719   312A      0.364485  
     313A      0.365121   314A      0.365127   315A      0.366056  
     316A      0.366157   317A      0.366178   318A      0.366195  
     319A      0.371521   320A      0.371554   321A      0.373804  
     322A      0.378863   323A      0.379295   324A      0.379309  
     325A      0.379794   326A      0.381075   327A      0.381103  
     328A      0.384881   329A      0.386204   330A      0.386210  
     331A      0.388831   332A      0.390675   333A      0.392481  
     334A      0.392930   335A      0.392955   336A      0.396232  
     337A      0.399389   338A      0.403220   339A      0.403343  
     340A      0.406956   341A      0.408188   342A      0.410616  
     343A      0.410637   344A      0.412597   345A      0.414101  
     346A      0.414126   347A      0.421101   348A      0.421793  
     349A      0.423445   350A      0.423451   351A      0.424351  
     352A      0.427357   353A      0.427416   354A      0.438124  
     355A      0.438182   356A      0.439872   357A      0.444747  
     358A      0.444794   359A      0.447673   360A      0.454099  
     361A      0.455730   362A      0.455804   363A      0.459028  
     364A      0.459040   365A      0.463143   366A      0.463228  
     367A      0.463473   368A      0.463607   369A      0.463649  
     370A      0.466124   371A      0.466347   372A      0.470686  
     373A      0.471256   374A      0.471290   375A      0.473258  
     376A      0.473337   377A      0.476430   378A      0.476490  
     379A      0.480146   380A      0.480209   381A      0.480630  
     382A      0.481753   383A      0.487698   384A      0.487720  
     385A      0.491721   386A      0.492374   387A      0.495900  
     388A      0.495941   389A      0.497134   390A      0.497154  
     391A      0.499440   392A      0.502645   393A      0.502656  
     394A      0.503654   395A      0.503730   396A      0.504446  
     397A      0.511193   398A      0.512029   399A      0.514423  
     400A      0.514461   401A      0.514750   402A      0.516766  
     403A      0.516808   404A      0.517935   405A      0.522067  
     406A      0.522073   407A      0.526323   408A      0.526475  
     409A      0.526527   410A      0.530388   411A      0.530575  
     412A      0.532095   413A      0.532297   414A      0.538905  
     415A      0.539046   416A      0.541039   417A      0.543443  
     418A      0.543577   419A      0.546090   420A      0.548168  
     421A      0.549922   422A      0.549960   423A      0.553042  
     424A      0.553684   425A      0.553810   426A      0.558485  
     427A      0.563949   428A      0.564102   429A      0.567471  
     430A      0.567505   431A      0.568383   432A      0.571157  
     433A      0.571264   434A      0.573602   435A      0.573638  
     436A      0.574826   437A      0.580390   438A      0.581912  
     439A      0.581951   440A      0.583051   441A      0.586574  
     442A      0.586709   443A      0.590364   444A      0.590408  
     445A      0.599940   446A      0.600344   447A      0.601212  
     448A      0.606429   449A      0.608011   450A      0.608022  
     451A      0.616271   452A      0.621163   453A      0.621342  
     454A      0.621737   455A      0.622880   456A      0.622921  
     457A      0.625034   458A      0.626958   459A      0.627122  
     460A      0.627142   461A      0.628837   462A      0.635611  
     463A      0.637821   464A      0.640017   465A      0.640420  
     466A      0.640570   467A      0.645927   468A      0.645962  
     469A      0.649106   470A      0.660565   471A      0.662049  
     472A      0.662087   473A      0.667456   474A      0.667753  
     475A      0.669743   476A      0.675373   477A      0.679992  
     478A      0.680011   479A      0.687410   480A      0.699274  
     481A      0.699374   482A      0.706483   483A      0.706525  
     484A      0.709520   485A      0.709605   486A      0.725299  
     487A      0.725416   488A      0.728761   489A      0.735218  
     490A      0.735249   491A      0.738844   492A      0.742978  
     493A      0.746233   494A      0.746348   495A      0.748763  
     496A      0.752525   497A      0.752686   498A      0.753691  
     499A      0.757055   500A      0.757124   501A      0.765096  
     502A      0.796405   503A      0.796435   504A      0.815032  
     505A      0.816913   506A      0.820303   507A      0.824431  
     508A      0.824516   509A      0.826213   510A      0.826250  
     511A      0.835286   512A      0.835300   513A      0.845709  
     514A      0.852349   515A      0.868960   516A      0.870492  
     517A      0.872387   518A      0.872513   519A      0.886076  
     520A      0.887697   521A      0.887936   522A      0.890637  
     523A      0.894671   524A      0.897479   525A      0.897541  
     526A      0.905174   527A      0.905255   528A      0.905591  
     529A      0.905705   530A      0.908709   531A      0.908754  
     532A      0.921203   533A      0.922108   534A      0.933238  
     535A      0.933274   536A      0.942230   537A      0.943048  
     538A      0.943135   539A      0.952647   540A      0.952715  
     541A      0.959153   542A      0.959249   543A      0.965228  
     544A      0.965260   545A      0.973484   546A      0.973534  
     547A      0.977228   548A      0.978511   549A      0.978534  
     550A      0.985607   551A      0.988133   552A      0.988688  
     553A      0.989849   554A      0.990009   555A      0.997020  
     556A      0.997132   557A      0.998738   558A      0.998928  
     559A      0.998958   560A      1.001493   561A      1.004517  
     562A      1.007509   563A      1.014398   564A      1.014470  
     565A      1.020731   566A      1.021024   567A      1.021982  
     568A      1.022001   569A      1.025355   570A      1.029785  
     571A      1.032772   572A      1.032825   573A      1.036603  
     574A      1.036638   575A      1.044467   576A      1.044830  
     577A      1.048063   578A      1.048303   579A      1.053274  
     580A      1.053439   581A      1.058380   582A      1.058515  
     583A      1.065491   584A      1.069263   585A      1.069306  
     586A      1.074234   587A      1.076822   588A      1.076844  
     589A      1.088523   590A      1.092384   591A      1.092438  
     592A      1.092773   593A      1.094457   594A      1.094502  
     595A      1.104879   596A      1.109465   597A      1.109497  
     598A      1.114825   599A      1.118318   600A      1.118377  
     601A      1.120661   602A      1.120710   603A      1.123752  
     604A      1.123800   605A      1.123845   606A      1.128038  
     607A      1.128687   608A      1.128768   609A      1.130170  
     610A      1.133426   611A      1.133512   612A      1.134271  
     613A      1.141523   614A      1.143560   615A      1.143953  
     616A      1.151939   617A      1.151972   618A      1.162053  
     619A      1.162084   620A      1.162263   621A      1.162660  
     622A      1.166625   623A      1.166636   624A      1.172825  
     625A      1.175454   626A      1.175515   627A      1.179630  
     628A      1.179667   629A      1.181083   630A      1.185530  
     631A      1.185564   632A      1.189183   633A      1.189276  
     634A      1.194600   635A      1.194634   636A      1.195421  
     637A      1.205133   638A      1.205344   639A      1.207312  
     640A      1.212324   641A      1.214207   642A      1.216626  
     643A      1.216859   644A      1.223998   645A      1.224611  
     646A      1.224701   647A      1.230019   648A      1.230788  
     649A      1.230925   650A      1.234823   651A      1.238993  
     652A      1.239063   653A      1.242095   654A      1.243037  
     655A      1.255436   656A      1.255555   657A      1.256859  
     658A      1.267666   659A      1.274404   660A      1.274464  
     661A      1.280157   662A      1.280229   663A      1.282158  
     664A      1.282229   665A      1.287004   666A      1.287049  
     667A      1.289679   668A      1.296592   669A      1.301427  
     670A      1.301826   671A      1.301857   672A      1.309508  
     673A      1.309560   674A      1.314349   675A      1.315855  
     676A      1.315901   677A      1.316738   678A      1.338149  
     679A      1.338267   680A      1.339896   681A      1.339985  
     682A      1.344326   683A      1.344394   684A      1.345638  
     685A      1.345677   686A      1.353522   687A      1.353648  
     688A      1.354706   689A      1.357128   690A      1.374545  
     691A      1.376347   692A      1.377423   693A      1.378307  
     694A      1.385096   695A      1.387403   696A      1.392753  
     697A      1.392772   698A      1.397600   699A      1.397690  
     700A      1.402153   701A      1.402181   702A      1.408797  
     703A      1.408829   704A      1.410899   705A      1.410994  
     706A      1.417633   707A      1.418927   708A      1.429389  
     709A      1.433266   710A      1.433348   711A      1.438059  
     712A      1.438088   713A      1.439561   714A      1.439589  
     715A      1.443144   716A      1.455899   717A      1.456495  
     718A      1.456656   719A      1.462315   720A      1.463095  
     721A      1.463173   722A      1.473800   723A      1.483190  
     724A      1.483229   725A      1.492035   726A      1.492074  
     727A      1.493482   728A      1.493507   729A      1.499358  
     730A      1.502956   731A      1.505187   732A      1.512150  
     733A      1.513683   734A      1.513749   735A      1.517166  
     736A      1.517244   737A      1.517772   738A      1.525381  
     739A      1.525628   740A      1.527663   741A      1.529400  
     742A      1.529407   743A      1.530334   744A      1.533313  
     745A      1.554423   746A      1.554526   747A      1.563030  
     748A      1.563130   749A      1.596715   750A      1.596745  
     751A      1.603483   752A      1.603513   753A      1.610249  
     754A      1.634221   755A      1.639923   756A      1.662964  
     757A      1.663010   758A      1.667943   759A      1.679373  
     760A      1.684888   761A      1.685479   762A      1.695171  
     763A      1.695249   764A      1.698950   765A      1.707116  
     766A      1.707236   767A      1.709505   768A      1.709750  
     769A      1.710880   770A      1.714487   771A      1.720216  
     772A      1.720407   773A      1.725088   774A      1.725124  
     775A      1.726100   776A      1.732759   777A      1.732950  
     778A      1.738157   779A      1.741551   780A      1.741585  
     781A      1.747216   782A      1.752957   783A      1.755342  
     784A      1.755388   785A      1.759369   786A      1.763056  
     787A      1.763124   788A      1.763543   789A      1.769988  
     790A      1.770022   791A      1.775522   792A      1.777997  
     793A      1.778041   794A      1.780854   795A      1.789701  
     796A      1.789794   797A      1.792708   798A      1.796103  
     799A      1.796131   800A      1.822676   801A      1.833790  
     802A      1.836478   803A      1.837590   804A      1.837602  
     805A      1.842131   806A      1.856838   807A      1.856852  
     808A      1.872140   809A      1.872155   810A      1.895063  
     811A      1.895107   812A      1.895143   813A      1.907722  
     814A      1.907801   815A      1.911102   816A      1.911165  
     817A      1.919468   818A      1.924486   819A      1.927353  
     820A      1.931212   821A      1.938358   822A      1.938410  
     823A      1.945295   824A      1.946396   825A      1.946508  
     826A      1.951246   827A      1.957085   828A      1.962084  
     829A      1.962111   830A      1.978003   831A      1.978117  
     832A      1.978345   833A      1.979769   834A      1.979880  
     835A      1.991183   836A      1.991305   837A      1.997047  
     838A      1.997173   839A      1.998644   840A      1.998703  
     841A      2.000443   842A      2.002641   843A      2.002690  
     844A      2.015419   845A      2.015509   846A      2.015874  
     847A      2.021511   848A      2.022906   849A      2.022942  
     850A      2.030707   851A      2.030864   852A      2.034807  
     853A      2.034864   854A      2.038373   855A      2.044390  
     856A      2.044470   857A      2.050636   858A      2.074350  
     859A      2.074492   860A      2.075166   861A      2.076951  
     862A      2.078339   863A      2.084522   864A      2.084717  
     865A      2.085166   866A      2.092721   867A      2.092847  
     868A      2.100501   869A      2.100578   870A      2.104828  
     871A      2.106168   872A      2.106354   873A      2.107029  
     874A      2.111647   875A      2.114416   876A      2.114799  
     877A      2.115672   878A      2.130233   879A      2.132677  
     880A      2.132822   881A      2.138968   882A      2.139041  
     883A      2.145293   884A      2.145746   885A      2.153045  
     886A      2.153857   887A      2.154258   888A      2.154351  
     889A      2.158542   890A      2.162939   891A      2.163287  
     892A      2.167452   893A      2.167569   894A      2.168872  
     895A      2.172332   896A      2.175287   897A      2.182403  
     898A      2.183181   899A      2.183250   900A      2.185103  
     901A      2.185182   902A      2.186243   903A      2.189394  
     904A      2.189483   905A      2.192066   906A      2.197158  
     907A      2.198595   908A      2.198664   909A      2.201353  
     910A      2.204713   911A      2.204804   912A      2.206585  
     913A      2.206691   914A      2.214236   915A      2.214983  
     916A      2.215095   917A      2.215169   918A      2.218786  
     919A      2.218956   920A      2.222445   921A      2.222504  
     922A      2.232518   923A      2.243706   924A      2.243770  
     925A      2.251835   926A      2.262587   927A      2.262662  
     928A      2.263102   929A      2.263489   930A      2.263909  
     931A      2.270764   932A      2.271283   933A      2.271465  
     934A      2.274961   935A      2.285824   936A      2.286159  
     937A      2.294285   938A      2.300257   939A      2.301727  
     940A      2.301848   941A      2.309498   942A      2.312914  
     943A      2.313190   944A      2.317408   945A      2.319776  
     946A      2.319949   947A      2.322619   948A      2.322654  
     949A      2.325064   950A      2.332948   951A      2.333013  
     952A      2.343266   953A      2.343512   954A      2.349850  
     955A      2.349857   956A      2.351081   957A      2.351133  
     958A      2.356450   959A      2.379806   960A      2.385462  
     961A      2.397386   962A      2.397969   963A      2.398956  
     964A      2.414551   965A      2.417574   966A      2.417649  
     967A      2.423404   968A      2.426704   969A      2.435180  
     970A      2.435492   971A      2.435868   972A      2.436230  
     973A      2.437435   974A      2.451099   975A      2.451198  
     976A      2.462225   977A      2.478094   978A      2.494558  
     979A      2.504521   980A      2.505107   981A      2.505136  
     982A      2.514653   983A      2.523958   984A      2.523983  
     985A      2.551757   986A      2.557120   987A      2.557265  
     988A      2.569244   989A      2.569283   990A      2.584627  
     991A      2.602118   992A      2.611764   993A      2.615833  
     994A      2.625455   995A      2.625492   996A      2.626315  
     997A      2.630839   998A      2.630909   999A      2.639312  
    1000A      2.639925  1001A      2.639934  1002A      2.652677  
    1003A      2.653172  1004A      2.653707  1005A      2.653741  
    1006A      2.665573  1007A      2.665721  1008A      2.668406  
    1009A      2.670360  1010A      2.674145  1011A      2.688117  
    1012A      2.703440  1013A      2.703522  1014A      2.713369  
    1015A      2.713565  1016A      2.714006  1017A      2.720596  
    1018A      2.720726  1019A      2.730327  1020A      2.730628  
    1021A      2.735962  1022A      2.763224  1023A      2.768276  
    1024A      2.769144  1025A      2.769469  1026A      2.788479  
    1027A      2.788916  1028A      2.795305  1029A      2.795322  
    1030A      2.800229  1031A      2.800244  1032A      2.805398  
    1033A      2.805609  1034A      2.828078  1035A      2.836355  
    1036A      2.836703  1037A      2.860025  1038A      2.879055  
    1039A      2.879142  1040A      2.902687  1041A      2.910472  
    1042A      2.911158  1043A      2.937874  1044A      2.937992  
    1045A      2.941582  1046A      2.943736  1047A      2.944280  
    1048A      2.944486  1049A      2.953729  1050A      2.997421  
    1051A      2.997455  1052A      3.004697  1053A      3.014906  
    1054A      3.014977  1055A      3.031671  1056A      3.031847  
    1057A      3.042144  1058A      3.088847  1059A      3.089168  
    1060A      3.089483  1061A      3.108572  1062A      3.145691  
    1063A      3.145882  1064A      3.149087  1065A      3.149096  
    1066A      3.159845  1067A      3.179800  1068A      3.180246  
    1069A      3.211022  1070A      3.211317  1071A      3.214648  
    1072A      3.216980  1073A      3.218540  1074A      3.218721  
    1075A      3.226646  1076A      3.226891  1077A      3.226925  
    1078A      3.235468  1079A      3.235690  1080A      3.242540  
    1081A      3.242641  1082A      3.246476  1083A      3.246825  
    1084A      3.268667  1085A      3.287717  1086A      3.301770  
    1087A      3.322904  1088A      3.357714  1089A      3.357890  
    1090A      3.360080  1091A      3.367786  1092A      3.377333  
    1093A      3.377460  1094A      3.503195  1095A      3.503541  
    1096A      3.568505  1097A      3.573569  1098A      3.575425  
    1099A      3.638728  1100A      3.674777  1101A      3.676473  
    1102A      3.686510  1103A      3.710657  1104A      3.712283  
    1105A      3.745421  1106A      3.754863  1107A      3.854435  
    1108A      3.876956  1109A      3.878060  1110A      3.949947  
    1111A      3.949966  1112A      3.994187  1113A      3.994260  
    1114A      4.060934  1115A      4.094762  1116A      4.133504  
    1117A      4.140949  1118A      4.161431  1119A      4.170491  
    1120A      4.171785  1121A      4.192939  1122A      4.197990  
    1123A      4.198274  1124A      4.203502  1125A      4.205448  
    1126A      4.206674  1127A      4.251532  1128A      4.251958  
    1129A      4.257033  1130A      4.438887  1131A      4.439263  
    1132A      4.444504  1133A      4.650405  1134A      4.650472  
    1135A      4.666686  1136A      4.743066  1137A      4.779588  
    1138A      4.779873  

    Final Occupation by Irrep:
              A 
    DOCC [   192 ]
    NA   [   192 ]
    NB   [   192 ]

  @DF-RHF Final Energy: -2478.66382902036867

   => Energetics <=

    Nuclear Repulsion Energy =           7920.6458019412721114
    One-Electron Energy =              -19199.7666132078957162
    Two-Electron Energy =                8800.4569822462563025
    Total Energy =                      -2478.6638290203682118

Computation Completed


Properties will be evaluated at   0.000000,   0.000000,   0.000000 [a0]

Properties computed using the SCF density matrix


 Multipole Moments:

 ------------------------------------------------------------------------------------
     Multipole            Electronic (a.u.)      Nuclear  (a.u.)        Total (a.u.)
 ------------------------------------------------------------------------------------

 L = 1.  Multiply by 2.5417464519 to convert [e a0] to [Debye]
 Dipole X            :         -0.0005671            0.0000481           -0.0005191
 Dipole Y            :          0.0010172           -0.0001453            0.0008719
 Dipole Z            :         17.8918998          -22.6820785           -4.7901787
 Magnitude           :                                                    4.7901788

 ------------------------------------------------------------------------------------

*** tstop() called on n2cn0484 at Wed Feb  7 00:30:23 2024
Module time:
	user time   =    4945.87 seconds =      82.43 minutes
	system time =     156.93 seconds =       2.62 minutes
	total time  =        394 seconds =       6.57 minutes
Total time:
	user time   =    4945.87 seconds =      82.43 minutes
	system time =     156.93 seconds =       2.62 minutes
	total time  =        394 seconds =       6.57 minutes

  //>>>>>>>>>>>>>>>>>>>>>>>>>>>>>>>>>>>//
  //            Monomer A HF           //
  //<<<<<<<<<<<<<<<<<<<<<<<<<<<<<<<<<<<//

   => Libint2 <=

    Primary   basis highest AM E, G, H:  5, 4, 3
    Auxiliary basis highest AM E, G, H:  6, 5, 4
    Onebody   basis highest AM E, G, H:  6, 5, 4
    Solid Harmonics ordering:            gaussian

*** tstart() called on n2cn0484
*** at Wed Feb  7 00:30:23 2024

   => Loading Basis Set <=

    Name: JUN-CC-PVDZ
    Role: ORBITAL
    Keyword: BASIS
    atoms 1     entry B          line   130 file /opt/software/pc2/EB-SW/software/PSI4/1.9-foss-2022a/share/psi4/basis/jun-cc-pvdz.gbs 
    atoms 2-5   entry F          line   266 file /opt/software/pc2/EB-SW/software/PSI4/1.9-foss-2022a/share/psi4/basis/jun-cc-pvdz.gbs 
    atoms 6-59  entry C          line   164 file /opt/software/pc2/EB-SW/software/PSI4/1.9-foss-2022a/share/psi4/basis/jun-cc-pvdz.gbs 
    atoms 60-77 entry H          line    36 file /opt/software/pc2/EB-SW/software/PSI4/1.9-foss-2022a/share/psi4/basis/jun-cc-pvdz.gbs 


         ---------------------------------------------------------
                                   SCF
               by Justin Turney, Rob Parrish, Andy Simmonett
                          and Daniel G. A. Smith
                              RHF Reference
                       16 Threads,  30517 MiB Core
         ---------------------------------------------------------

  ==> Geometry <==

    Molecular point group: c1
    Full point group: C1

    Geometry (in Angstrom), charge = -1, multiplicity = 1:

       Center              X                  Y                   Z               Mass       
    ------------   -----------------  -----------------  -----------------  -----------------
         B           -0.000198161052     0.000273808717     3.272613440053    11.009305360000
         F           -0.000000401852    -0.000000464183     4.685398440053    18.998403162730
         F            1.147859598148     0.675780735817     2.801472440053    18.998403162730
         F            0.011917658148    -1.332011464183     2.801674440053    18.998403162730
         F           -1.159666401852     0.656073035817     2.801753440053    18.998403162730
      Gh(C)           1.225311973413     0.707538196736    -0.421282932663    12.000000000000
      Gh(C)           1.225323934041    -0.707538986754    -0.433613742234    12.000000000000
      Gh(C)          -0.000006075942     1.414965821907    -0.434147365755    12.000000000000
      Gh(C)           2.456448831939     1.418327794995    -0.418396075263    12.000000000000
      Gh(C)           0.000010905269    -1.414976590818    -0.423947808430    12.000000000000
      Gh(C)          -1.225300870919     0.707545281801    -0.419031412341    12.000000000000
      Gh(C)           2.456437833310    -1.418323396064    -0.435858899091    12.000000000000
      Gh(C)          -0.000001254988     2.836800939098    -0.436550915888    12.000000000000
      Gh(C)           3.681826775460     0.709317863818    -0.435510109293    12.000000000000
      Gh(C)           2.455120126855     2.834223569306    -0.435612666253    12.000000000000
      Gh(C)           3.681821183209    -0.709333931612    -0.419437625274    12.000000000000
      Gh(C)          -1.225313520698    -0.707527607727    -0.432540980807    12.000000000000
      Gh(C)           1.226699659192     3.543469391811    -0.419253593344    12.000000000000
      Gh(C)           0.000004862847    -2.836782231419    -0.419099640808    12.000000000000
      Gh(C)          -2.456435954859     1.418316826102    -0.418996016495    12.000000000000
      Gh(C)           2.455123495769    -2.834230120772    -0.419589533642    12.000000000000
      Gh(C)          -1.226714286599     3.543468971567    -0.419150260124    12.000000000000
      Gh(C)           4.914517373191     1.427172780306    -0.429029426263    12.000000000000
      Gh(C)           3.693150269466     3.542795200362    -0.428979626627    12.000000000000
      Gh(C)          -2.456437522078    -1.418313373022    -0.435883937215    12.000000000000
      Gh(C)           1.226704919933    -3.543474334090    -0.435223724093    12.000000000000
      Gh(C)          -2.455125320518     2.834216570451    -0.435606289907    12.000000000000
      Gh(C)           4.914524458772    -1.427187002127    -0.426056683529    12.000000000000
      Gh(C)           1.221424691688     4.970133973077    -0.425918249269    12.000000000000
      Gh(C)           4.893008307311     2.825187907843    -0.427812757905    12.000000000000
      Gh(C)          -1.226696930499    -3.543471089260    -0.434956519684    12.000000000000
      Gh(C)          -3.681818898536     0.709324874549    -0.435497428813    12.000000000000
      Gh(C)           3.693147179140    -3.542801433574    -0.425938792968    12.000000000000
      Gh(C)          -1.221432174004     4.970128205680    -0.425734753896    12.000000000000
      Gh(C)           6.134771050916     0.680547854922    -0.428259651713    12.000000000000
      Gh(C)           3.656788958600     4.972953151384    -0.428070988844    12.000000000000
      Gh(C)          -2.455126829744    -2.834215185244    -0.419833891440    12.000000000000
      Gh(C)          -3.681819101071    -0.709325795652    -0.419320003696    12.000000000000
      Gh(C)           4.893012695903    -2.825200197815    -0.427201606009    12.000000000000
      Gh(C)          -0.000000995123     5.650447273849    -0.426966062603    12.000000000000
      Gh(C)           6.134775190322    -0.680554946258    -0.426994331198    12.000000000000
      Gh(C)           2.478131560845     5.653576659148    -0.426782209195    12.000000000000
      Gh(C)           1.221422482727    -4.970127147116    -0.428717746292    12.000000000000
      Gh(C)          -3.693162305975     3.542796862009    -0.428814119168    12.000000000000
      Gh(C)          -1.221428442955    -4.970118395779    -0.428830508124    12.000000000000
      Gh(C)          -4.914521729952     1.427175354812    -0.428952481256    12.000000000000
      Gh(C)           3.656787097669    -4.972955318422    -0.426620488310    12.000000000000
      Gh(C)          -2.478138452116     5.653574330345    -0.426497684186    12.000000000000
      Gh(C)          -3.693141660574    -3.542790311162    -0.426054919124    12.000000000000
      Gh(C)          -4.914512405063    -1.427181092211    -0.426021986355    12.000000000000
      Gh(C)          -0.000005930936    -5.650438379197    -0.427361566724    12.000000000000
      Gh(C)          -4.893020406111     2.825188506736    -0.427822839765    12.000000000000
      Gh(C)           2.478126071288    -5.653573636072    -0.427711089103    12.000000000000
      Gh(C)          -3.656798632268     4.972956089858    -0.427894308470    12.000000000000
      Gh(C)          -4.892999400866    -2.825191859243    -0.427355641707    12.000000000000
      Gh(C)          -2.478128420093    -5.653566262190    -0.427986276750    12.000000000000
      Gh(C)          -6.134770425341     0.680548674073    -0.428285203416    12.000000000000
      Gh(C)          -3.656788755199    -4.972944115154    -0.426834776127    12.000000000000
      Gh(C)          -6.134764964923    -0.680554007665    -0.427014806993    12.000000000000
      Gh(H)           5.835288573806     3.369275802771    -0.423453432242     1.007825032230
      Gh(H)           7.073859250737     1.228217156716    -0.427798008320     1.007825032230
      Gh(H)           4.600663342164     5.512380710270    -0.427565788092     1.007825032230
      Gh(H)           5.835283465295    -3.369306148912    -0.431656073324     1.007825032230
      Gh(H)          -0.000012073316     6.738530581953    -0.431315307611     1.007825032230
      Gh(H)           7.073861249820    -1.228227034927    -0.427503069292     1.007825032230
      Gh(H)           2.473313809789     6.740684199211    -0.427248930125     1.007825032230
      Gh(H)           4.600668569371    -5.512376221359    -0.427030485479     1.007825032230
      Gh(H)          -2.473318602548     6.740681627423    -0.426947583500     1.007825032230
      Gh(H)          -0.000010190238    -6.738528268635    -0.422831881740     1.007825032230
      Gh(H)          -5.835301836354     3.369270858113    -0.423317410094     1.007825032230
      Gh(H)           2.473308001821    -6.740685466612    -0.427140758678     1.007825032230
      Gh(H)          -4.600674763218     5.512377934420    -0.427400459769     1.007825032230
      Gh(H)          -5.835279428845    -3.369289055963    -0.431935379204     1.007825032230
      Gh(H)          -2.473300269450    -6.740679170323    -0.427590075222     1.007825032230
      Gh(H)          -7.073857688778     1.228220380657    -0.427881999801     1.007825032230
      Gh(H)          -4.600673708095    -5.512362761970    -0.427202793501     1.007825032230
      Gh(H)          -7.073856856419    -1.228220724160    -0.427597925758     1.007825032230

  Running in c1 symmetry.

  Rotational constants: A =      0.00193  B =      0.00193  C =      0.00110 [cm^-1]
  Rotational constants: A =     57.72124  B =     57.71353  C =     33.02251 [MHz]
  Nuclear repulsion =  178.879455044809106

  Charge       = -1
  Multiplicity = 1
  Electrons    = 42
  Nalpha       = 21
  Nbeta        = 21

  ==> Algorithm <==

  SCF Algorithm Type is DF.
  DIIS enabled.
  MOM disabled.
  Fractional occupation disabled.
  Guess Type is SAD.
  Energy threshold   = 1.00e-08
  Density threshold  = 1.00e-08
  Integral threshold = 1.00e-12

  ==> Primary Basis <==

  Basis Set: JUN-CC-PVDZ
    Blend: JUN-CC-PVDZ
    Number of shells: 526
    Number of basis functions: 1152
    Number of Cartesian functions: 1211
    Spherical Harmonics?: true
    Max angular momentum: 2

   => Loading Basis Set <=

    Name: (JUN-CC-PVDZ AUX)
    Role: JKFIT
    Keyword: DF_BASIS_SCF
    atoms 1     entry B          line    90 file /opt/software/pc2/EB-SW/software/PSI4/1.9-foss-2022a/share/psi4/basis/jun-cc-pvdz-jkfit.gbs 
    atoms 2-5   entry F          line   314 file /opt/software/pc2/EB-SW/software/PSI4/1.9-foss-2022a/share/psi4/basis/jun-cc-pvdz-jkfit.gbs 
    atoms 6-59  entry C          line   146 file /opt/software/pc2/EB-SW/software/PSI4/1.9-foss-2022a/share/psi4/basis/jun-cc-pvdz-jkfit.gbs 
    atoms 60-77 entry H          line    70 file /opt/software/pc2/EB-SW/software/PSI4/1.9-foss-2022a/share/psi4/basis/jun-cc-pvdz-jkfit.gbs 

  ==> Integral Setup <==

  ==> DiskDFJK: Density-Fitted J/K Matrices <==

    J tasked:                  Yes
    K tasked:                  Yes
    wK tasked:                  No
    OpenMP threads:             16
    Integrals threads:          16
    Memory [MiB]:            22888
    Algorithm:                Core
    Integral Cache:           LOAD
    Schwarz Cutoff:          1E-12
    Fitting Condition:       1E-10

   => Auxiliary Basis Set <=

  Basis Set: (JUN-CC-PVDZ AUX)
    Blend: JUN-CC-PVDZ-JKFIT
    Number of shells: 1755
    Number of basis functions: 5075
    Number of Cartesian functions: 5819
    Spherical Harmonics?: true
    Max angular momentum: 3

  Minimum eigenvalue in the overlap matrix is 7.1121533476E-10.
  Reciprocal condition number of the overlap matrix is 3.0310104410E-11.
    Using canonical orthogonalization.
  Overall, 14 of 1152 possible MOs eliminated.


  ==> Pre-Iterations <==

  SCF Guess: Superposition of Atomic Densities via on-the-fly atomic UHF (no occupation information).

   -------------------------
    Irrep   Nso     Nmo    
   -------------------------
     A       1152    1138 
   -------------------------
    Total    1152    1138
   -------------------------

  ==> Iterations <==

                           Total Energy        Delta E     RMS |[F,P]|

   @DF-RHF iter SAD:  -421.23045076370482   -4.21230e+02   0.00000e+00 
   @DF-RHF iter   1:  -422.65127106749395   -1.42082e+00   5.30595e-04 ADIIS/DIIS
   @DF-RHF iter   2:  -422.73422949129775   -8.29584e-02   3.23848e-04 ADIIS/DIIS
   @DF-RHF iter   3:  -422.77275683155267   -3.85273e-02   1.74913e-05 DIIS
   @DF-RHF iter   4:  -422.77311918052686   -3.62349e-04   2.77755e-06 DIIS
   @DF-RHF iter   5:  -422.77312790647517   -8.72595e-06   7.18151e-07 DIIS
   @DF-RHF iter   6:  -422.77312849131778   -5.84843e-07   1.47414e-07 DIIS
   @DF-RHF iter   7:  -422.77312851346954   -2.21518e-08   1.55802e-08 DIIS
   @DF-RHF iter   8:  -422.77312851370925   -2.39709e-10   5.57715e-09 DIIS
  Energy and wave function converged.


  ==> Post-Iterations <==

    Orbital Energies [Eh]
    ---------------------

    Doubly Occupied:                                                      

       1A    -26.067089     2A    -26.067060     3A    -26.066993  
       4A    -26.066909     5A     -7.538584     6A     -1.410678  
       7A     -1.351113     8A     -1.351012     9A     -1.350848  
      10A     -0.601932    11A     -0.528172    12A     -0.528138  
      13A     -0.528053    14A     -0.447010    15A     -0.446967  
      16A     -0.408286    17A     -0.408256    18A     -0.408175  
      19A     -0.384776    20A     -0.384714    21A     -0.384585  

    Virtual:                                                              

      22A      0.091547    23A      0.092052    24A      0.092057  
      25A      0.098590    26A      0.098593    27A      0.109819  
      28A      0.110511    29A      0.122595    30A      0.125993  
      31A      0.125994    32A      0.134302    33A      0.134303  
      34A      0.143926    35A      0.143932    36A      0.146733  
      37A      0.149216    38A      0.149219    39A      0.149677  
      40A      0.149692    41A      0.160644    42A      0.161182  
      43A      0.161185    44A      0.165209    45A      0.165287  
      46A      0.169665    47A      0.172901    48A      0.177617  
      49A      0.178276    50A      0.181228    51A      0.182478  
      52A      0.182484    53A      0.188687    54A      0.188697  
      55A      0.189195    56A      0.189202    57A      0.194919  
      58A      0.194945    59A      0.199568    60A      0.202173  
      61A      0.202177    62A      0.204465    63A      0.204474  
      64A      0.205472    65A      0.205475    66A      0.207653  
      67A      0.213752    68A      0.213761    69A      0.214105  
      70A      0.214107    71A      0.220223    72A      0.223392  
      73A      0.223625    74A      0.223627    75A      0.225089  
      76A      0.232874    77A      0.232896    78A      0.234686  
      79A      0.236270    80A      0.236286    81A      0.236982  
      82A      0.236996    83A      0.241932    84A      0.243336  
      85A      0.245697    86A      0.245699    87A      0.246975  
      88A      0.248823    89A      0.255803    90A      0.255837  
      91A      0.259466    92A      0.260332    93A      0.264574  
      94A      0.268219    95A      0.269821    96A      0.269825  
      97A      0.273484    98A      0.275058    99A      0.275084  
     100A      0.278091   101A      0.278097   102A      0.280586  
     103A      0.282364   104A      0.282372   105A      0.284496  
     106A      0.284504   107A      0.288684   108A      0.288688  
     109A      0.293982   110A      0.294729   111A      0.300971  
     112A      0.300991   113A      0.303937   114A      0.303944  
     115A      0.308954   116A      0.308962   117A      0.309248  
     118A      0.310304   119A      0.310318   120A      0.311218  
     121A      0.316518   122A      0.320931   123A      0.321670  
     124A      0.325952   125A      0.325978   126A      0.328078  
     127A      0.328084   128A      0.330008   129A      0.330013  
     130A      0.335987   131A      0.336008   132A      0.337154  
     133A      0.343358   134A      0.343378   135A      0.348192  
     136A      0.348235   137A      0.349142   138A      0.352451  
     139A      0.353519   140A      0.353667   141A      0.353672  
     142A      0.356958   143A      0.356963   144A      0.360319  
     145A      0.360320   146A      0.361853   147A      0.366090  
     148A      0.370620   149A      0.382212   150A      0.385869  
     151A      0.385880   152A      0.387753   153A      0.387824  
     154A      0.388256   155A      0.392208   156A      0.392364  
     157A      0.392392   158A      0.402195   159A      0.402197  
     160A      0.402693   161A      0.404873   162A      0.409022  
     163A      0.409054   164A      0.410414   165A      0.410459  
     166A      0.412080   167A      0.413247   168A      0.419108  
     169A      0.424261   170A      0.424326   171A      0.425676  
     172A      0.433854   173A      0.433900   174A      0.434955  
     175A      0.435019   176A      0.440573   177A      0.440959  
     178A      0.441873   179A      0.442094   180A      0.443098  
     181A      0.445297   182A      0.445317   183A      0.450438  
     184A      0.450689   185A      0.450930   186A      0.453406  
     187A      0.455639   188A      0.455810   189A      0.455930  
     190A      0.461135   191A      0.461245   192A      0.465257  
     193A      0.465309   194A      0.467068   195A      0.467099  
     196A      0.476348   197A      0.476389   198A      0.482223  
     199A      0.483084   200A      0.483102   201A      0.490587  
     202A      0.490635   203A      0.491026   204A      0.498165  
     205A      0.501932   206A      0.503939   207A      0.504315  
     208A      0.504345   209A      0.506541   210A      0.512059  
     211A      0.512079   212A      0.512971   213A      0.514388  
     214A      0.514520   215A      0.517179   216A      0.517222  
     217A      0.518737   218A      0.518857   219A      0.520470  
     220A      0.520525   221A      0.524829   222A      0.524876  
     223A      0.529103   224A      0.529137   225A      0.530401  
     226A      0.535058   227A      0.537303   228A      0.537333  
     229A      0.544494   230A      0.552055   231A      0.552316  
     232A      0.553597   233A      0.553628   234A      0.557915  
     235A      0.557972   236A      0.560859   237A      0.562678  
     238A      0.562880   239A      0.562901   240A      0.567036  
     241A      0.567105   242A      0.567156   243A      0.568709  
     244A      0.568798   245A      0.573523   246A      0.578621  
     247A      0.578709   248A      0.578767   249A      0.586908  
     250A      0.586966   251A      0.587431   252A      0.597705  
     253A      0.601692   254A      0.601791   255A      0.602544  
     256A      0.603731   257A      0.603781   258A      0.606227  
     259A      0.606292   260A      0.606295   261A      0.606748  
     262A      0.608098   263A      0.610903   264A      0.610948  
     265A      0.621276   266A      0.624068   267A      0.628468  
     268A      0.630932   269A      0.630998   270A      0.633128  
     271A      0.633173   272A      0.635918   273A      0.640484  
     274A      0.645118   275A      0.645221   276A      0.646878  
     277A      0.646944   278A      0.655105   279A      0.657260  
     280A      0.657506   281A      0.659194   282A      0.659229  
     283A      0.663564   284A      0.663610   285A      0.673825  
     286A      0.675865   287A      0.675928   288A      0.676331  
     289A      0.676384   290A      0.683919   291A      0.683978  
     292A      0.685424   293A      0.692822   294A      0.692826  
     295A      0.694471   296A      0.694500   297A      0.700981  
     298A      0.701044   299A      0.709877   300A      0.709914  
     301A      0.714918   302A      0.722513   303A      0.723931  
     304A      0.724818   305A      0.724825   306A      0.725180  
     307A      0.725996   308A      0.726765   309A      0.735881  
     310A      0.735935   311A      0.739779   312A      0.739916  
     313A      0.739983   314A      0.742456   315A      0.750551  
     316A      0.755977   317A      0.756001   318A      0.761765  
     319A      0.764813   320A      0.764842   321A      0.768283  
     322A      0.768332   323A      0.769615   324A      0.771581  
     325A      0.774580   326A      0.774651   327A      0.779553  
     328A      0.786054   329A      0.787361   330A      0.787391  
     331A      0.788080   332A      0.796539   333A      0.796590  
     334A      0.804880   335A      0.805145   336A      0.805202  
     337A      0.808120   338A      0.808148   339A      0.814995  
     340A      0.818688   341A      0.818806   342A      0.822307  
     343A      0.822476   344A      0.824552   345A      0.834626  
     346A      0.838121   347A      0.839162   348A      0.839172  
     349A      0.840101   350A      0.840157   351A      0.849985  
     352A      0.849998   353A      0.851677   354A      0.853505  
     355A      0.853605   356A      0.857123   357A      0.857198  
     358A      0.865301   359A      0.871810   360A      0.872015  
     361A      0.874773   362A      0.876298   363A      0.876954  
     364A      0.876984   365A      0.880582   366A      0.880591  
     367A      0.881423   368A      0.882028   369A      0.885083  
     370A      0.885133   371A      0.889215   372A      0.890287  
     373A      0.897894   374A      0.897910   375A      0.906858  
     376A      0.908817   377A      0.908869   378A      0.917231  
     379A      0.918953   380A      0.919033   381A      0.931114  
     382A      0.931133   383A      0.953769   384A      0.965353  
     385A      0.966677   386A      0.966696   387A      0.968213  
     388A      0.980217   389A      0.980257   390A      0.982023  
     391A      0.982081   392A      0.984258   393A      0.984353  
     394A      0.985795   395A      0.995654   396A      1.008289  
     397A      1.008441   398A      1.024056   399A      1.024069  
     400A      1.034682   401A      1.041847   402A      1.041872  
     403A      1.053985   404A      1.054021   405A      1.061604  
     406A      1.062044   407A      1.062289   408A      1.064923  
     409A      1.064998   410A      1.070884   411A      1.070885  
     412A      1.099782   413A      1.100685   414A      1.106353  
     415A      1.129156   416A      1.129222   417A      1.144094  
     418A      1.144110   419A      1.147091   420A      1.152748  
     421A      1.152793   422A      1.162235   423A      1.162277  
     424A      1.182032   425A      1.182059   426A      1.182625  
     427A      1.193554   428A      1.247059   429A      1.251815  
     430A      1.251838   431A      1.252395   432A      1.252482  
     433A      1.262951   434A      1.262960   435A      1.268200  
     436A      1.287028   437A      1.287073   438A      1.309146  
     439A      1.309156   440A      1.313728   441A      1.322692  
     442A      1.326484   443A      1.364823   444A      1.364936  
     445A      1.385421   446A      1.392134   447A      1.392209  
     448A      1.396464   449A      1.396517   450A      1.400495  
     451A      1.408907   452A      1.408976   453A      1.421571  
     454A      1.426060   455A      1.447217   456A      1.463610  
     457A      1.463665   458A      1.515237   459A      1.546428  
     460A      1.546746   461A      1.559689   462A      1.559720  
     463A      1.567379   464A      1.567483   465A      1.572316  
     466A      1.578724   467A      1.582093   468A      1.582704  
     469A      1.645758   470A      1.646049   471A      1.652979  
     472A      1.653181   473A      1.665156   474A      1.665955  
     475A      1.670821   476A      1.678494   477A      1.678559  
     478A      1.693077   479A      1.726219   480A      1.737485  
     481A      1.738279   482A      1.754724   483A      1.756638  
     484A      1.757870   485A      1.775926   486A      1.776239  
     487A      1.777766   488A      1.786340   489A      1.787082  
     490A      1.798505   491A      1.811612   492A      1.832758  
     493A      1.833356   494A      1.834601   495A      1.836169  
     496A      1.836327   497A      1.839179   498A      1.841781  
     499A      1.841846   500A      1.861593   501A      1.866449  
     502A      1.871231   503A      1.871365   504A      1.878846  
     505A      1.879633   506A      1.883483   507A      1.884580  
     508A      1.905911   509A      1.906977   510A      1.912821  
     511A      1.913019   512A      1.913442   513A      1.917275  
     514A      1.917823   515A      1.918329   516A      1.921568  
     517A      1.925534   518A      1.925657   519A      1.926406  
     520A      1.935375   521A      1.935443   522A      1.935635  
     523A      1.946431   524A      1.947384   525A      1.963811  
     526A      1.964912   527A      1.965122   528A      1.965894  
     529A      1.971817   530A      1.977158   531A      1.977309  
     532A      1.982213   533A      1.987898   534A      1.988104  
     535A      1.996677   536A      1.996694   537A      2.003609  
     538A      2.005664   539A      2.006588   540A      2.007171  
     541A      2.008529   542A      2.009032   543A      2.014802  
     544A      2.015402   545A      2.020429   546A      2.020843  
     547A      2.028036   548A      2.038256   549A      2.040116  
     550A      2.040125   551A      2.046566   552A      2.048997  
     553A      2.049012   554A      2.049882   555A      2.049958  
     556A      2.060629   557A      2.065792   558A      2.066188  
     559A      2.073453   560A      2.073652   561A      2.080319  
     562A      2.080502   563A      2.081638   564A      2.085972  
     565A      2.086022   566A      2.086411   567A      2.089162  
     568A      2.090719   569A      2.090843   570A      2.093691  
     571A      2.112741   572A      2.118778   573A      2.119032  
     574A      2.123659   575A      2.123860   576A      2.142618  
     577A      2.142760   578A      2.153126   579A      2.164853  
     580A      2.165003   581A      2.165490   582A      2.165788  
     583A      2.173449   584A      2.182208   585A      2.182403  
     586A      2.182760   587A      2.183412   588A      2.183624  
     589A      2.188685   590A      2.203762   591A      2.211443  
     592A      2.214273   593A      2.214402   594A      2.218025  
     595A      2.220304   596A      2.220896   597A      2.220963  
     598A      2.224509   599A      2.224595   600A      2.227132  
     601A      2.229910   602A      2.229975   603A      2.235283  
     604A      2.235889   605A      2.235930   606A      2.239614  
     607A      2.243226   608A      2.243246   609A      2.244252  
     610A      2.244362   611A      2.249442   612A      2.249646  
     613A      2.249707   614A      2.251498   615A      2.251561  
     616A      2.253884   617A      2.253929   618A      2.259036  
     619A      2.261885   620A      2.262026   621A      2.263388  
     622A      2.263392   623A      2.271197   624A      2.274898  
     625A      2.276886   626A      2.276970   627A      2.278287  
     628A      2.278367   629A      2.279090   630A      2.279366  
     631A      2.283677   632A      2.283820   633A      2.287092  
     634A      2.288525   635A      2.298227   636A      2.309939  
     637A      2.309956   638A      2.322514   639A      2.325186  
     640A      2.325319   641A      2.330641   642A      2.333289  
     643A      2.335908   644A      2.335923   645A      2.338325  
     646A      2.338455   647A      2.347238   648A      2.347264  
     649A      2.356945   650A      2.362194   651A      2.362473  
     652A      2.363926   653A      2.364855   654A      2.365997  
     655A      2.366198   656A      2.371224   657A      2.371382  
     658A      2.375575   659A      2.375595   660A      2.382983  
     661A      2.387598   662A      2.388313   663A      2.388419  
     664A      2.399852   665A      2.399870   666A      2.404918  
     667A      2.420205   668A      2.420228   669A      2.425034  
     670A      2.431548   671A      2.431632   672A      2.433387  
     673A      2.442973   674A      2.443065   675A      2.447520  
     676A      2.450045   677A      2.458949   678A      2.459018  
     679A      2.461600   680A      2.465352   681A      2.467393  
     682A      2.467447   683A      2.468415   684A      2.468459  
     685A      2.469911   686A      2.478434   687A      2.481311  
     688A      2.486630   689A      2.486767   690A      2.492319  
     691A      2.492351   692A      2.497056   693A      2.498357  
     694A      2.505295   695A      2.505308   696A      2.510769  
     697A      2.510808   698A      2.510862   699A      2.517906  
     700A      2.535015   701A      2.535071   702A      2.556594  
     703A      2.556641   704A      2.558197   705A      2.558304  
     706A      2.560987   707A      2.563490   708A      2.563887  
     709A      2.564990   710A      2.570356   711A      2.572798  
     712A      2.573116   713A      2.580892   714A      2.592633  
     715A      2.592661   716A      2.596250   717A      2.596308  
     718A      2.602487   719A      2.611774   720A      2.612369  
     721A      2.616080   722A      2.617333   723A      2.617834  
     724A      2.626358   725A      2.626449   726A      2.630683  
     727A      2.642556   728A      2.642988   729A      2.643099  
     730A      2.649154   731A      2.649476   732A      2.652144  
     733A      2.652289   734A      2.652654   735A      2.655269  
     736A      2.660502   737A      2.660563   738A      2.660884  
     739A      2.676685   740A      2.676972   741A      2.677902  
     742A      2.695417   743A      2.695464   744A      2.714174  
     745A      2.714271   746A      2.715363   747A      2.720432  
     748A      2.721240   749A      2.721398   750A      2.731311  
     751A      2.731473   752A      2.737751   753A      2.743421  
     754A      2.744978   755A      2.745434   756A      2.751355  
     757A      2.751486   758A      2.752120   759A      2.752276  
     760A      2.758646   761A      2.768928   762A      2.769233  
     763A      2.779560   764A      2.779574   765A      2.791715  
     766A      2.791811   767A      2.796239   768A      2.797205  
     769A      2.806974   770A      2.807433   771A      2.807482  
     772A      2.811856   773A      2.811981   774A      2.814348  
     775A      2.814359   776A      2.829888   777A      2.841079  
[...]
     724A      1.442516   725A      1.445466   726A      1.445572  
     727A      1.451244   728A      1.452178   729A      1.452184  
     730A      1.455501   731A      1.463863   732A      1.463978  
     733A      1.474788   734A      1.474820   735A      1.487550  
     736A      1.502239   737A      1.502696   738A      1.519299  
     739A      1.519331   740A      1.524249   741A      1.524286  
     742A      1.537204   743A      1.552520   744A      1.592651  
     745A      1.602226   746A      1.605113   747A      1.605736  
     748A      1.611356   749A      1.611406   750A      1.617941  
     751A      1.618137   752A      1.619131   753A      1.632630  
     754A      1.632714   755A      1.635028   756A      1.635458  
     757A      1.640478   758A      1.643727   759A      1.644100  
     760A      1.644239   761A      1.647207   762A      1.648109  
     763A      1.648175   764A      1.656464   765A      1.661830  
     766A      1.661860   767A      1.667729   768A      1.676443  
     769A      1.676525   770A      1.677425   771A      1.678596  
     772A      1.678605   773A      1.685917   774A      1.688473  
     775A      1.688541   776A      1.697265   777A      1.698816  
     778A      1.699145   779A      1.699179   780A      1.705157  
     781A      1.705482   782A      1.705545   783A      1.714426  
     784A      1.714473   785A      1.720296   786A      1.742018  
     787A      1.751793   788A      1.752453   789A      1.752731  
     790A      1.761202   791A      1.761645   792A      1.761655  
     793A      1.761880   794A      1.777908   795A      1.777949  
     796A      1.793443   797A      1.793475   798A      1.815856  
     799A      1.815889   800A      1.817360   801A      1.824326  
     802A      1.824438   803A      1.826322   804A      1.826424  
     805A      1.838410   806A      1.841197   807A      1.842543  
     808A      1.844135   809A      1.844207   810A      1.856852  
     811A      1.860324   812A      1.863125   813A      1.863145  
     814A      1.866019   815A      1.870798   816A      1.870858  
     817A      1.875823   818A      1.881881   819A      1.881915  
     820A      1.884253   821A      1.897478   822A      1.897534  
     823A      1.904815   824A      1.907030   825A      1.907224  
     826A      1.911042   827A      1.911126   828A      1.918544  
     829A      1.918685   830A      1.920167   831A      1.920746  
     832A      1.920986   833A      1.922898   834A      1.923036  
     835A      1.941539   836A      1.943574   837A      1.944804  
     838A      1.944972   839A      1.948957   840A      1.948994  
     841A      1.955106   842A      1.955248   843A      1.958269  
     844A      1.965107   845A      1.965205   846A      1.973208  
     847A      1.990234   848A      1.990343   849A      1.997355  
     850A      2.000209   851A      2.001960   852A      2.002013  
     853A      2.007782   854A      2.009140   855A      2.014117  
     856A      2.014320   857A      2.029251   858A      2.030503  
     859A      2.030890   860A      2.031321   861A      2.034464  
     862A      2.034998   863A      2.035090   864A      2.048598  
     865A      2.053958   866A      2.054241   867A      2.062386  
     868A      2.062882   869A      2.065120   870A      2.066948  
     871A      2.067169   872A      2.071067   873A      2.077445  
     874A      2.077949   875A      2.079510   876A      2.079538  
     877A      2.079956   878A      2.093799   879A      2.093912  
     880A      2.096647   881A      2.096761   882A      2.097691  
     883A      2.098955   884A      2.102393   885A      2.102457  
     886A      2.102855   887A      2.110096   888A      2.110190  
     889A      2.111697   890A      2.117311   891A      2.117533  
     892A      2.118041   893A      2.121392   894A      2.121541  
     895A      2.123512   896A      2.123569   897A      2.129853  
     898A      2.130118   899A      2.131110   900A      2.134766  
     901A      2.137157   902A      2.137222   903A      2.140864  
     904A      2.144163   905A      2.144215   906A      2.158735  
     907A      2.163182   908A      2.163230   909A      2.171047  
     910A      2.171126   911A      2.174699   912A      2.181496  
     913A      2.181582   914A      2.192905   915A      2.193327  
     916A      2.193576   917A      2.196214   918A      2.197277  
     919A      2.197375   920A      2.219565   921A      2.219907  
     922A      2.221229   923A      2.221241   924A      2.230948  
     925A      2.233412   926A      2.235390   927A      2.235555  
     928A      2.245166   929A      2.245344   930A      2.246231  
     931A      2.246417   932A      2.248741   933A      2.261671  
     934A      2.261742   935A      2.270854   936A      2.270871  
     937A      2.273003   938A      2.273030   939A      2.281231  
     940A      2.301325   941A      2.306904   942A      2.316457  
     943A      2.317409   944A      2.327098   945A      2.331921  
     946A      2.332025   947A      2.337515   948A      2.340105  
     949A      2.348850   950A      2.353100   951A      2.353594  
     952A      2.354184   953A      2.354625   954A      2.368558  
     955A      2.368773   956A      2.375529   957A      2.393088  
     958A      2.416932   959A      2.424354   960A      2.424759  
     961A      2.424790   962A      2.436624   963A      2.442064  
     964A      2.442095   965A      2.470942   966A      2.478475  
     967A      2.478634   968A      2.488901   969A      2.488921  
     970A      2.503683   971A      2.522549   972A      2.531035  
     973A      2.537592   974A      2.546938   975A      2.546957  
     976A      2.548939   977A      2.554619   978A      2.554669  
     979A      2.555107   980A      2.560470   981A      2.560473  
     982A      2.573373   983A      2.573399   984A      2.576503  
     985A      2.576964   986A      2.586698   987A      2.586790  
     988A      2.589051   989A      2.592143   990A      2.592461  
     991A      2.609983   992A      2.625260   993A      2.625329  
     994A      2.632225   995A      2.632629   996A      2.632838  
     997A      2.642916   998A      2.642999   999A      2.653268  
    1000A      2.653589  1001A      2.657795  1002A      2.684421  
    1003A      2.687167  1004A      2.688081  1005A      2.695303  
    1006A      2.705098  1007A      2.705475  1008A      2.713413  
    1009A      2.713438  1010A      2.719192  1011A      2.719219  
    1012A      2.724489  1013A      2.724707  1014A      2.745900  
    1015A      2.757389  1016A      2.757726  1017A      2.777436  
    1018A      2.796653  1019A      2.796756  1020A      2.825050  
    1021A      2.827713  1022A      2.829554  1023A      2.854963  
    1024A      2.856374  1025A      2.856532  1026A      2.856886  
    1027A      2.858651  1028A      2.861540  1029A      2.861694  
    1030A      2.877630  1031A      2.887341  1032A      2.887851  
    1033A      2.919745  1034A      2.919780  1035A      2.927662  
    1036A      2.937125  1037A      2.937186  1038A      2.954128  
    1039A      2.954264  1040A      2.964070  1041A      3.013081  
    1042A      3.015372  1043A      3.015559  1044A      3.039690  
    1045A      3.064726  1046A      3.064780  1047A      3.072486  
    1048A      3.072546  1049A      3.116666  1050A      3.117347  
    1051A      3.131224  1052A      3.132316  1053A      3.132557  
    1054A      3.138518  1055A      3.147989  1056A      3.148010  
    1057A      3.148042  1058A      3.150431  1059A      3.150453  
    1060A      3.161619  1061A      3.162105  1062A      3.167424  
    1063A      3.167909  1064A      3.191950  1065A      3.211285  
    1066A      3.221323  1067A      3.244075  1068A      3.277653  
    1069A      3.277783  1070A      3.278110  1071A      3.287295  
    1072A      3.287425  1073A      3.419450  1074A      3.419834  
    1075A      3.452941  1076A      3.488632  1077A      3.490546  
    1078A      3.552748  1079A      3.587005  1080A      3.588783  
    1081A      3.601518  1082A      3.629966  1083A      3.631582  
    1084A      3.664883  1085A      3.673182  1086A      3.772428  
    1087A      3.790709  1088A      3.791731  1089A      3.871445  
    1090A      3.871468  1091A      3.914375  1092A      3.914459  
    1093A      3.977653  1094A      4.011548  1095A      4.057139  
    1096A      4.067212  1097A      4.108428  1098A      4.358165  
    1099A      4.433199  1100A      4.433327  1101A      4.477909  
    1102A      5.760469  1103A      5.760477  1104A      5.761832  
    1105A      5.768350  1106A      5.768380  1107A      5.770279  
    1108A      5.771731  1109A      5.771759  1110A      5.809817  
    1111A      5.809867  1112A      5.821067  1113A      6.028136  
    1114A      6.028466  1115A      6.031551  1116A      6.207912  
    1117A      6.333914  1118A      6.334222  1119A      6.392214  
    1120A      6.392584  1121A      6.396969  1122A      7.288382  
    1123A      7.288589  1124A      7.321020  1125A      7.321222  
    1126A      7.344283  1127A      7.368927  1128A      7.369262  
    1129A      7.457609  1130A      7.541679  1131A      7.629485  
    1132A      7.629635  1133A      7.787103  1134A     12.709099  
    1135A     42.940019  1136A     42.962701  1137A     42.962758  
    1138A     42.969711  

    Final Occupation by Irrep:
              A 
    DOCC [   171 ]
    NA   [   171 ]
    NB   [   171 ]

  @DF-RHF Final Energy: -2055.89408490045889

   => Energetics <=

    Nuclear Repulsion Energy =           6452.5568002797781446
    One-Electron Energy =              -15636.4894559224994737
    Two-Electron Energy =                7128.0385707422628911
    Total Energy =                      -2055.8940849004593474

Computation Completed


Properties will be evaluated at   0.000000,   0.000000,   0.000000 [a0]

Properties computed using the SCF density matrix


 Multipole Moments:

 ------------------------------------------------------------------------------------
     Multipole            Electronic (a.u.)      Nuclear  (a.u.)        Total (a.u.)
 ------------------------------------------------------------------------------------

 L = 1.  Multiply by 2.5417464519 to convert [e a0] to [Debye]
 Dipole X            :          0.0000251            0.0000419            0.0000670
 Dipole Y            :          0.0000433           -0.0000426            0.0000007
 Dipole Z            :        276.2378168         -276.2375101            0.0003067
 Magnitude           :                                                    0.0003139

 ------------------------------------------------------------------------------------

*** tstop() called on n2cn0484 at Wed Feb  7 00:36:26 2024
Module time:
	user time   =    3380.68 seconds =      56.34 minutes
	system time =      88.12 seconds =       1.47 minutes
	total time  =        243 seconds =       4.05 minutes
Total time:
	user time   =    9857.00 seconds =     164.28 minutes
	system time =     264.49 seconds =       4.41 minutes
	total time  =        757 seconds =      12.62 minutes
  Constructing Basis Sets for SAPT...

   => Loading Basis Set <=

    Name: (JUN-CC-PVDZ AUX)
    Role: RIFIT
    Keyword: DF_BASIS_SAPT
    atoms 1     entry B          line    56 file /opt/software/pc2/EB-SW/software/PSI4/1.9-foss-2022a/share/psi4/basis/jun-cc-pvdz-ri.gbs 
    atoms 2-5   entry F          line   232 file /opt/software/pc2/EB-SW/software/PSI4/1.9-foss-2022a/share/psi4/basis/jun-cc-pvdz-ri.gbs 
    atoms 6-59  entry C          line   100 file /opt/software/pc2/EB-SW/software/PSI4/1.9-foss-2022a/share/psi4/basis/jun-cc-pvdz-ri.gbs 
    atoms 60-77 entry H          line    30 file /opt/software/pc2/EB-SW/software/PSI4/1.9-foss-2022a/share/psi4/basis/jun-cc-pvdz-ri.gbs 

   => Loading Basis Set <=

    Name: (JUN-CC-PVDZ AUX)
    Role: JKFIT
    Keyword: DF_BASIS_ELST
    atoms 1     entry B          line    90 file /opt/software/pc2/EB-SW/software/PSI4/1.9-foss-2022a/share/psi4/basis/jun-cc-pvdz-jkfit.gbs 
    atoms 2-5   entry F          line   314 file /opt/software/pc2/EB-SW/software/PSI4/1.9-foss-2022a/share/psi4/basis/jun-cc-pvdz-jkfit.gbs 
    atoms 6-59  entry C          line   146 file /opt/software/pc2/EB-SW/software/PSI4/1.9-foss-2022a/share/psi4/basis/jun-cc-pvdz-jkfit.gbs 
    atoms 60-77 entry H          line    70 file /opt/software/pc2/EB-SW/software/PSI4/1.9-foss-2022a/share/psi4/basis/jun-cc-pvdz-jkfit.gbs 


  //>>>>>>>>>>>>>>>>>>>>>>>>>>>>>>>>>>>//
  //               SSAPT0              //
  //<<<<<<<<<<<<<<<<<<<<<<<<<<<<<<<<<<<//


*** tstart() called on n2cn0484
*** at Wed Feb  7 00:36:27 2024

        SAPT0  
    Ed Hohenstein
     6 June 2009

      Orbital Information
  --------------------------
    NSO        =      1152
    NMO        =      1138
    NRI        =      4087
    NRI (Elst) =      5075
    NOCC A     =        21
    NOCC B     =       171
    FOCC A     =         5
    FOCC B     =        54
    NVIR A     =      1117
    NVIR B     =       967

    Elst10,r            =     0.011236305203 [Eh]
    Exch10              =     0.006458407077 [Eh]
    Exch10 (S^2)        =     0.006455630012 [Eh]

    Iter     Energy [mEh]          dE [mEh]         Residual      Time [s]
       1      -0.52318885       0.523188851       3.278624666            17
       2      -0.64419610       0.121007253       1.084706959            31
       3      -0.65050157       0.006305469       0.189191727            45
       4      -0.64903281      -0.001468764       0.053717268            60
       5      -0.64903525       0.000002440       0.017338599            74
       6      -0.64909074       0.000055489       0.004269955            88
       7      -0.64909806       0.000007319       0.000752326           102
       8      -0.64909555      -0.000002511       0.000160419           116
       9      -0.64909555       0.000000005       0.000037989           131
      10      -0.64909564       0.000000091       0.000004979           145
      11      -0.64909563      -0.000000013       0.000001020           159
      12      -0.64909563       0.000000001       0.000000226           177

    CHF Iterations converged


    Iter     Energy [mEh]          dE [mEh]         Residual      Time [s]
       1     -21.68628189      21.686281886      76.878994635            17
       2     -14.82139015      -6.864891737       9.852857104            28
       3     -14.79664435      -0.024745796       3.215290587            39
       4     -15.08969186       0.293047508       0.849520209            50
       5     -15.11003137       0.020339507       0.275608458            61
       6     -15.09793391      -0.012097455       0.128597501            71
       7     -15.09625715      -0.001676764       0.054231375            82
       8     -15.09799498       0.001737835       0.020280111            93
       9     -15.09826300       0.000268014       0.009257598           104
      10     -15.09807035      -0.000192646       0.006865231           115
      11     -15.09802027      -0.000050078       0.004113042           125
      12     -15.09806492       0.000044648       0.002356051           136
      13     -15.09809223       0.000027308       0.001009815           147
      14     -15.09808219      -0.000010044       0.000471759           158
      15     -15.09807597      -0.000006214       0.000165746           169
      16     -15.09807810       0.000002133       0.000074107           179
      17     -15.09807891       0.000000801       0.000030051           190
      18     -15.09807884      -0.000000063       0.000009972           201
      19     -15.09807865      -0.000000188       0.000004696           212
      20     -15.09807865      -0.000000002       0.000002728           223
      21     -15.09807870       0.000000051       0.000001524           233
      22     -15.09807870      -0.000000003       0.000000830           244

    CHF Iterations converged

    Ind20,r (A<-B)      =    -0.000649095630 [Eh]
    Ind20,r (B<-A)      =    -0.015098078701 [Eh]
    Ind20,r             =    -0.015747174331 [Eh]
    Exch-Ind20,r (A<-B) =     0.000591154267 [Eh]
    Exch-Ind20,r (B<-A) =     0.001270546058 [Eh]
    Exch-Ind20,r        =     0.001861700325 [Eh]
    Disp20              =    -0.009935199658 [Eh]
    Disp20 (SS)         =    -0.004967599829 [Eh]
    Disp20 (OS)         =    -0.004967599829 [Eh]
    Exch-Disp20         =     0.000975487533 [Eh]
    Exch-Disp20 (SS)    =     0.000583144281 [Eh]
    Exch-Disp20 (OS)    =     0.000392343252 [Eh]

    SAPT Results 
  --------------------------------------------------------------------------------------------------------
    Electrostatics                 11.23630520 [mEh]       7.05088797 [kcal/mol]      29.50091525 [kJ/mol]
      Elst10,r                     11.23630520 [mEh]       7.05088797 [kcal/mol]      29.50091525 [kJ/mol]

    Exchange                        6.45840708 [mEh]       4.05271163 [kcal/mol]      16.95654544 [kJ/mol]
      Exch10                        6.45840708 [mEh]       4.05271163 [kcal/mol]      16.95654544 [kJ/mol]
      Exch10(S^2)                   6.45563001 [mEh]       4.05096899 [kcal/mol]      16.94925426 [kJ/mol]

    Induction                     -14.31031848 [mEh]      -8.97986042 [kcal/mol]     -37.57173599 [kJ/mol]
      Ind20,r                     -15.74717433 [mEh]      -9.88150108 [kcal/mol]     -41.34420051 [kJ/mol]
      Exch-Ind20,r                  1.86170032 [mEh]       1.16823459 [kcal/mol]       4.88789353 [kJ/mol]
      delta HF,r (2)               -0.42484447 [mEh]      -0.26659393 [kcal/mol]      -1.11542901 [kJ/mol]

    Dispersion                     -8.95971212 [mEh]      -5.62230424 [kcal/mol]     -23.52372094 [kJ/mol]
      Disp20                       -9.93519966 [mEh]      -6.23443191 [kcal/mol]     -26.08486311 [kJ/mol]
      Exch-Disp20                   0.97548753 [mEh]       0.61212767 [kcal/mol]       2.56114217 [kJ/mol]
      Disp20 (SS)                  -4.96759983 [mEh]      -3.11721595 [kcal/mol]     -13.04243155 [kJ/mol]
      Disp20 (OS)                  -4.96759983 [mEh]      -3.11721595 [kcal/mol]     -13.04243155 [kJ/mol]
      Exch-Disp20 (SS)              0.58314428 [mEh]       0.36592856 [kcal/mol]       1.53104510 [kJ/mol]
      Exch-Disp20 (OS)              0.39234325 [mEh]       0.24619911 [kcal/mol]       1.03009707 [kJ/mol]

  Total HF                          3.38439380 [mEh]       2.12373917 [kcal/mol]       8.88572470 [kJ/mol]
  Total SAPT0                      -5.57531832 [mEh]      -3.49856507 [kcal/mol]     -14.63799625 [kJ/mol]

  Special recipe for scaled SAPT0 (see Manual):
    Electrostatics sSAPT0          11.23630520 [mEh]       7.05088797 [kcal/mol]      29.50091525 [kJ/mol]
    Exchange sSAPT0                 6.45840708 [mEh]       4.05271163 [kcal/mol]      16.95654544 [kJ/mol]
    Induction sSAPT0              -14.30791486 [mEh]      -8.97835213 [kcal/mol]     -37.56542530 [kJ/mol]
    Dispersion sSAPT0              -8.95845269 [mEh]      -5.62151393 [kcal/mol]     -23.52041428 [kJ/mol]
  Total sSAPT0                     -5.57165527 [mEh]      -3.49626647 [kcal/mol]     -14.62837889 [kJ/mol]
  --------------------------------------------------------------------------------------------------------

*** tstop() called on n2cn0484 at Wed Feb  7 01:00:26 2024
Module time:
	user time   =    9121.05 seconds =     152.02 minutes
	system time =     535.59 seconds =       8.93 minutes
	total time  =       1439 seconds =      23.98 minutes
Total time:
	user time   =   18978.75 seconds =     316.31 minutes
	system time =     800.08 seconds =      13.33 minutes
	total time  =       2197 seconds =      36.62 minutes

    Psi4 stopped on: Wednesday, 07 February 2024 01:00AM
    Psi4 wall time for execution: 0:36:38.02

*** Psi4 exiting successfully. Buy a developer a beer!
