
    -----------------------------------------------------------------------
          Psi4: An Open-Source Ab Initio Electronic Structure Package
                               Psi4 1.9 release

                         Git: Rev {} zzzzzzz 


    D. G. A. Smith, L. A. Burns, A. C. Simmonett, R. M. Parrish,
    M. C. Schieber, R. Galvelis, P. Kraus, H. Kruse, R. Di Remigio,
    A. Alenaizan, A. M. James, S. Lehtola, J. P. Misiewicz, M. Scheurer,
    R. A. Shaw, J. B. Schriber, Y. Xie, Z. L. Glick, D. A. Sirianni,
    J. S. O'Brien, J. M. Waldrop, A. Kumar, E. G. Hohenstein,
    B. P. Pritchard, B. R. Brooks, H. F. Schaefer III, A. Yu. Sokolov,
    K. Patkowski, A. E. DePrince III, U. Bozkaya, R. A. King,
    F. A. Evangelista, J. M. Turney, T. D. Crawford, C. D. Sherrill,
    J. Chem. Phys. 152(18) 184108 (2020). https://doi.org/10.1063/5.0006002

                            Additional Code Authors
    E. T. Seidl, C. L. Janssen, E. F. Valeev, M. L. Leininger,
    J. F. Gonthier, R. M. Richard, H. R. McAlexander, M. Saitow, X. Wang,
    P. Verma, M. H. Lechner, A. Jiang, S. Behnle, A. G. Heide,
    M. F. Herbst, and D. L. Poole

             Previous Authors, Complete List of Code Contributors,
                       and Citations for Specific Modules
    https://github.com/psi4/psi4/blob/master/codemeta.json
    https://github.com/psi4/psi4/graphs/contributors
    http://psicode.org/psi4manual/master/introduction.html#citing-psifour

    -----------------------------------------------------------------------


    Psi4 started on: Saturday, 03 February 2024 01:56PM

    Process ID: 3683623
    Host:       n2cn0204
    PSIDATADIR: /opt/software/pc2/EB-SW/software/PSI4/1.9-foss-2022a/share/psi4
    Memory:     500.0 MiB
    Threads:    16
    
  ==> Input File <==

--------------------------------------------------------------------------
memory 32 GB # how much memory is available ! Depends on the nodes/cores !

molecule dimer {
# monomer A
+1 1    # Charge and multiplicity
C  0.680067 -0.008042 -4.815929
C -0.680504 -0.006014 -4.815545
N -1.085635 -0.005016 -3.497221
C  0.000108 -0.001740 -2.715820
C -2.477365  0.044390 -3.029242
N  1.085222 -0.005016 -3.497221
H  1.385146 -0.015870 -5.633368
H -1.385302 -0.006204 -5.633214
H -0.000009  0.000007 -1.634731
C  2.478117 -0.021908 -3.032123
H  2.490592  0.005437 -1.941870
H  2.967028 -0.935354 -3.379299
H  3.001428  0.853575 -3.423595
H -2.857359  1.066461 -3.109201
H -3.082679 -0.625694 -3.642306
H -2.518128 -0.282594 -1.989294
--
# monomer B
0 1     # Charge and multiplicity
C   1.22531237526482      0.70753866091955      0.00613762728373
C   1.22532433589282     -0.70753852257020     -0.00619318228664
C   -0.00000567409046      1.41496628609039     -0.00672680580738
C   2.45644923379077      1.41832825917820      0.00902448468363
C   0.00001130712078     -1.41497612663474      0.00347275151708
C   -1.22530046906674      0.70754574598412      0.00838914760619
C   2.45643823516184     -1.41832293188077     -0.00843833914343
C   -0.00000085313587      2.83680140328112     -0.00913035594137
C   3.68182717731192      0.70931832800114     -0.00808954934571
C   2.45512052870677      2.83422403348893     -0.00819210630633
C   3.68182158506039     -0.70933346742900      0.00798293467272
C   -1.22531311884624     -0.70752714354401     -0.00512042085974
C   1.22670006104402      3.54346985599427      0.00816696660346
C   0.00000526469929     -2.83678176723568      0.00832091913869
C   -2.45643555300670      1.41831729028492      0.00842454345199
C   2.45512389762097     -2.83422965658853      0.00783102630520
C   -1.22671388474763      3.54346943575023      0.00827029982280
C   4.91451777504333      1.42717324448953     -0.00160886631602
C   3.69315067131765      3.54279566454522     -0.00155906667985
C   -2.45643712022637     -1.41831290883911     -0.00846337726810
C   1.22670532178455     -3.54347386990643     -0.00780316414624
C   -2.45512491866593      2.83421703463423     -0.00818572995999
C   4.91452486062398     -1.42718653794377      0.00136387641845
C   1.22142509354026      4.97013443726031      0.00150231067809
C   4.89300870916237      2.82518837202648     -0.00039219795739
C   -1.22669652864725     -3.54347062507680     -0.00753595973677
C   -3.68181849668397      0.70932533873199     -0.00807686886569
C   3.69314758099218     -3.54280096939050      0.00148176697923
C   -1.22143177215231      4.97012866986289      0.00168580605083
C   6.13477145276790      0.68054831910577     -0.00083909176631
C   3.65678936045204      4.97295361556775     -0.00065042889723
C   -2.45512642789169     -2.83421472106065      0.00758666850712
C   -3.68181869921921     -0.70932533146830      0.00810055625144
C   4.89301309775526     -2.82519973363176      0.00021895393805
C   -0.00000059327114      5.65044773803267      0.00045449734393
C   6.13477559217374     -0.68055448207492      0.00042622874941
C   2.47813196269732      5.65357712333155      0.00063835075260
C   1.22142288457925     -4.97012668293268     -0.00129718634452
C   -3.69316190412301      3.54279732619245     -0.00139355922051
C   -1.22142804110313     -4.97011793159564     -0.00140994817719
C   -4.91452132810043      1.42717581899491     -0.00153192130862
C   3.65678749952045     -4.97295485423912      0.00080007163680
C   -2.47813805026426      5.65357479452875      0.00092287576113
C   -3.69314125872231     -3.54278984697859      0.00136564082345
C   -4.91451200321153     -1.42718062802730      0.00139857359209
C   -0.00000552908399     -5.65043791501335      0.00005899322272
C   -4.89302000425900      2.82518897091939     -0.00040227981744
C   2.47812647313991     -5.65357317188818     -0.00029052915548
C   -3.65679823041642      4.97295655404175     -0.00047374852278
C   -4.89299899901461     -2.82519139505969      0.00006491824035
C   -2.47812801824129     -5.65356579800621     -0.00056571680280
C   -6.13477002348955      0.68054913825639     -0.00086464346868
C   -3.65678835334731     -4.97294365097028      0.00058578382008
C   -6.13476456307132     -0.68055354348201      0.00040575295444
H   5.83528897565761      3.36927626695423      0.00396712770529
H   7.07385965258860      1.22821762089947     -0.00037744837300
H   4.60066374401555      5.51238117445323     -0.00014522814529
H   5.83528386714679     -3.36930568472863     -0.00423551337640
H   -0.00001167146422      6.73853104613662     -0.00389474766392
H   7.07386165167227     -1.22822657074368     -0.00008250934481
H   2.47331421164041      6.74068466339473      0.00017162982210
H   4.60066897122302     -5.51237575717576      0.00039007446835
H   -2.47331820069565      6.74068209160650      0.00047297644710
H   -0.00000978838621     -6.73852780445195      0.00458867820736
H   -5.83530143450167      3.36927132229595      0.00410314985360
H   2.47330840367253     -6.74068500242887      0.00027980126949
H   -4.60067436136587      5.51237839860371      0.00002010017831
H   -5.83527902699321     -3.36928859177951     -0.00451481925734
H   -2.47329986759855     -6.74067870613986     -0.00016951527498
H   -7.07385728692578      1.22822084484047     -0.00046143985387
H   -4.60067330624313     -5.51236229778631      0.00021776644566
H   -7.07385645456741     -1.22822025997701     -0.00017736581114

    units angstrom      # Angstroms are the default
    no_reorient         # Geometry fixed, default
    symmetry c1         # C1 symmetry, default
}

set {
    scf_type DF         # Density fitting, faster than exact integrals
    freeze_core True    # Freeze core electrons
    basis jun-cc-pVDZ   # Jun-cc-pVDZ basis set, recommended for sSAPT0 in https://doi.org/10.1063/1.4867135
}

energy('ssapt0')        # Compute sSAPT0 energy, includes also SAPT0
--------------------------------------------------------------------------

  Memory set to  29.802 GiB by Python driver.

Scratch directory: /tmp/
   => Loading Basis Set <=

    Name: JUN-CC-PVDZ
    Role: ORBITAL
    Keyword: BASIS
    atoms 1-2, 4-5, 10, 17-70 entry C          line   164 file /opt/software/pc2/EB-SW/software/PSI4/1.9-foss-2022a/share/psi4/basis/jun-cc-pvdz.gbs 
    atoms 3, 6                entry N          line   198 file /opt/software/pc2/EB-SW/software/PSI4/1.9-foss-2022a/share/psi4/basis/jun-cc-pvdz.gbs 
    atoms 7-9, 11-16, 71-88   entry H          line    36 file /opt/software/pc2/EB-SW/software/PSI4/1.9-foss-2022a/share/psi4/basis/jun-cc-pvdz.gbs 

   => Loading Basis Set <=

    Name: JUN-CC-PVDZ
    Role: ORBITAL
    Keyword: BASIS
    atoms 1-2, 4-5, 10, 17-70 entry C          line   164 file /opt/software/pc2/EB-SW/software/PSI4/1.9-foss-2022a/share/psi4/basis/jun-cc-pvdz.gbs 
    atoms 3, 6                entry N          line   198 file /opt/software/pc2/EB-SW/software/PSI4/1.9-foss-2022a/share/psi4/basis/jun-cc-pvdz.gbs 
    atoms 7-9, 11-16, 71-88   entry H          line    36 file /opt/software/pc2/EB-SW/software/PSI4/1.9-foss-2022a/share/psi4/basis/jun-cc-pvdz.gbs 


  //>>>>>>>>>>>>>>>>>>>>>>>>>>>>>>>>>>>//
  //              Dimer HF             //
  //<<<<<<<<<<<<<<<<<<<<<<<<<<<<<<<<<<<//

   => Libint2 <=

    Primary   basis highest AM E, G, H:  5, 4, 3
    Auxiliary basis highest AM E, G, H:  6, 5, 4
    Onebody   basis highest AM E, G, H:  6, 5, 4
    Solid Harmonics ordering:            gaussian

*** tstart() called on n2cn0204
*** at Sat Feb  3 13:56:32 2024

   => Loading Basis Set <=

    Name: JUN-CC-PVDZ
    Role: ORBITAL
    Keyword: BASIS
    atoms 1-2, 4-5, 10, 17-70 entry C          line   164 file /opt/software/pc2/EB-SW/software/PSI4/1.9-foss-2022a/share/psi4/basis/jun-cc-pvdz.gbs 
    atoms 3, 6                entry N          line   198 file /opt/software/pc2/EB-SW/software/PSI4/1.9-foss-2022a/share/psi4/basis/jun-cc-pvdz.gbs 
    atoms 7-9, 11-16, 71-88   entry H          line    36 file /opt/software/pc2/EB-SW/software/PSI4/1.9-foss-2022a/share/psi4/basis/jun-cc-pvdz.gbs 


         ---------------------------------------------------------
                                   SCF
               by Justin Turney, Rob Parrish, Andy Simmonett
                          and Daniel G. A. Smith
                              RHF Reference
                       16 Threads,  30517 MiB Core
         ---------------------------------------------------------

  ==> Geometry <==

    Molecular point group: c1
    Full point group: C1

    Geometry (in Angstrom), charge = 1, multiplicity = 1:

       Center              X                  Y                   Z               Mass       
    ------------   -----------------  -----------------  -----------------  -----------------
         C            0.680066520158    -0.008042372515    -4.358033358461    12.000000000000
         C           -0.680504479842    -0.006014372515    -4.357649358461    12.000000000000
         N           -1.085635479842    -0.005016372515    -3.039325358461    14.003074004430
         C            0.000107520158    -0.001740372515    -2.257924358461    12.000000000000
         C           -2.477365479842     0.044389627485    -2.571346358461    12.000000000000
         N            1.085221520158    -0.005016372515    -3.039325358461    14.003074004430
         H            1.385145520158    -0.015870372515    -5.175472358461     1.007825032230
         H           -1.385302479842    -0.006204372515    -5.175318358461     1.007825032230
         H           -0.000009479842     0.000006627485    -1.176835358461     1.007825032230
         C            2.478116520158    -0.021908372515    -2.574227358461    12.000000000000
         H            2.490591520158     0.005436627485    -1.483974358461     1.007825032230
         H            2.967027520158    -0.935354372515    -2.921403358461     1.007825032230
         H            3.001427520158     0.853574627485    -2.965699358461     1.007825032230
         H           -2.857359479842     1.066460627485    -2.651305358461     1.007825032230
         H           -3.082679479842    -0.625694372515    -3.184410358461     1.007825032230
         H           -2.518128479842    -0.282594372515    -1.531398358461     1.007825032230
         C            1.225311895423     0.707538288405     0.464033268822    12.000000000000
         C            1.225323856051    -0.707538895085     0.451702459252    12.000000000000
         C           -0.000006153932     1.414965913575     0.451168835731    12.000000000000
         C            2.456448753949     1.418327886663     0.466920126222    12.000000000000
         C            0.000010827279    -1.414976499150     0.461368393056    12.000000000000
         C           -1.225300948908     0.707545373469     0.466284789145    12.000000000000
         C            2.456437755320    -1.418323304396     0.449457302395    12.000000000000
         C           -0.000001332978     2.836801030766     0.448765285597    12.000000000000
         C            3.681826697470     0.709317955486     0.449806092193    12.000000000000
         C            2.455120048865     2.834223660974     0.449703535232    12.000000000000
         C            3.681821105219    -0.709333839944     0.465878576211    12.000000000000
         C           -1.225313598688    -0.707527516059     0.452775220679    12.000000000000
         C            1.226699581202     3.543469483479     0.466062608142    12.000000000000
         C            0.000004784858    -2.836782139751     0.466216560677    12.000000000000
         C           -2.456436032848     1.418316917770     0.466320184991    12.000000000000
         C            2.455123417779    -2.834230029103     0.465726667844    12.000000000000
         C           -1.226714364589     3.543469063235     0.466165941362    12.000000000000
         C            4.914517295202     1.427172871975     0.456286775223    12.000000000000
         C            3.693150191476     3.542795292030     0.456336574859    12.000000000000
         C           -2.456437600068    -1.418313281354     0.449432264271    12.000000000000
         C            1.226704841943    -3.543474242421     0.450092477393    12.000000000000
         C           -2.455125398508     2.834216662119     0.449709911579    12.000000000000
         C            4.914524380782    -1.427186910459     0.459259517957    12.000000000000
         C            1.221424613699     4.970134064745     0.459397952217    12.000000000000
         C            4.893008229321     2.825187999512     0.457503443581    12.000000000000
         C           -1.226697008489    -3.543470997592     0.450359681802    12.000000000000
         C           -3.681818976526     0.709324966217     0.449818772673    12.000000000000
         C            3.693147101150    -3.542801341905     0.459377408518    12.000000000000
         C           -1.221432251994     4.970128297348     0.459581447590    12.000000000000
         C            6.134770972926     0.680547946591     0.457056549772    12.000000000000
         C            3.656788880610     4.972953243053     0.457245212642    12.000000000000
         C           -2.455126907733    -2.834215093576     0.465482310046    12.000000000000
         C           -3.681819179061    -0.709325703983     0.465996197790    12.000000000000
         C            4.893012617914    -2.825200106147     0.458114595477    12.000000000000
         C           -0.000001073113     5.650447365518     0.458350138883    12.000000000000
         C            6.134775112332    -0.680554854590     0.458321870288    12.000000000000
         C            2.478131482856     5.653576750817     0.458533992291    12.000000000000
         C            1.221422404738    -4.970127055448     0.456598455194    12.000000000000
         C           -3.693162383965     3.542796953677     0.456502082318    12.000000000000
         C           -1.221428520945    -4.970118304111     0.456485693362    12.000000000000
         C           -4.914521807942     1.427175446480     0.456363720230    12.000000000000
         C            3.656787019679    -4.972955226754     0.458695713176    12.000000000000
         C           -2.478138530106     5.653574422014     0.458818517300    12.000000000000
         C           -3.693141738564    -3.542790219494     0.459261282362    12.000000000000
         C           -4.914512483053    -1.427181000542     0.459294215131    12.000000000000
         C           -0.000006008926    -5.650438287528     0.457954634761    12.000000000000
         C           -4.893020484101     2.825188598404     0.457493361721    12.000000000000
         C            2.478125993298    -5.653573544403     0.457605112383    12.000000000000
         C           -3.656798710258     4.972956181527     0.457421893016    12.000000000000
         C           -4.892999478856    -2.825191767575     0.457960559779    12.000000000000
         C           -2.478128498083    -5.653566170521     0.457329924736    12.000000000000
         C           -6.134770503331     0.680548765741     0.457030998070    12.000000000000
         C           -3.656788833189    -4.972944023485     0.458481425359    12.000000000000
         C           -6.134765042913    -0.680553915997     0.458301394493    12.000000000000
         H            5.835288495816     3.369275894439     0.461862769244     1.007825032230
         H            7.073859172747     1.228217248385     0.457518193166     1.007825032230
         H            4.600663264174     5.512380801938     0.457750413393     1.007825032230
         H            5.835283387305    -3.369306057244     0.453660128162     1.007825032230
         H           -0.000012151306     6.738530673622     0.454000893875     1.007825032230
         H            7.073861171831    -1.228226943259     0.457813132194     1.007825032230
         H            2.473313731799     6.740684290880     0.458067271361     1.007825032230
         H            4.600668491381    -5.512376129691     0.458285716007     1.007825032230
         H           -2.473318680537     6.740681719092     0.458368617986     1.007825032230
         H           -0.000010268228    -6.738528176967     0.462484319746     1.007825032230
         H           -5.835301914343     3.369270949781     0.461998791392     1.007825032230
         H            2.473307923831    -6.740685374944     0.458175442808     1.007825032230
         H           -4.600674841208     5.512378026089     0.457915741717     1.007825032230
         H           -5.835279506835    -3.369288964294     0.453380822281     1.007825032230
         H           -2.473300347440    -6.740679078655     0.457726126264     1.007825032230
         H           -7.073857766768     1.228220472326     0.457434201685     1.007825032230
         H           -4.600673786085    -5.512362670301     0.458113407984     1.007825032230
         H           -7.073856934409    -1.228220632492     0.457718275728     1.007825032230

  Running in c1 symmetry.

  Rotational constants: A =      0.00192  B =      0.00187  C =      0.00109 [cm^-1]
  Rotational constants: A =     57.59799  B =     56.06877  C =     32.71081 [MHz]
  Nuclear repulsion = 8438.636103954459031

  Charge       = 1
  Multiplicity = 1
  Electrons    = 394
  Nalpha       = 197
  Nbeta        = 197

  ==> Algorithm <==

  SCF Algorithm Type is DF.
  DIIS enabled.
  MOM disabled.
  Fractional occupation disabled.
  Guess Type is SAD.
  Energy threshold   = 1.00e-08
  Density threshold  = 1.00e-08
  Integral threshold = 1.00e-12

  ==> Primary Basis <==

  Basis Set: JUN-CC-PVDZ
    Blend: JUN-CC-PVDZ
    Number of shells: 569
    Number of basis functions: 1233
    Number of Cartesian functions: 1294
    Spherical Harmonics?: true
    Max angular momentum: 2

   => Loading Basis Set <=

    Name: (JUN-CC-PVDZ AUX)
    Role: JKFIT
    Keyword: DF_BASIS_SCF
    atoms 1-2, 4-5, 10, 17-70 entry C          line   146 file /opt/software/pc2/EB-SW/software/PSI4/1.9-foss-2022a/share/psi4/basis/jun-cc-pvdz-jkfit.gbs 
    atoms 3, 6                entry N          line   202 file /opt/software/pc2/EB-SW/software/PSI4/1.9-foss-2022a/share/psi4/basis/jun-cc-pvdz-jkfit.gbs 
    atoms 7-9, 11-16, 71-88   entry H          line    70 file /opt/software/pc2/EB-SW/software/PSI4/1.9-foss-2022a/share/psi4/basis/jun-cc-pvdz-jkfit.gbs 

  ==> Integral Setup <==

  ==> DiskDFJK: Density-Fitted J/K Matrices <==

    J tasked:                  Yes
    K tasked:                  Yes
    wK tasked:                  No
    OpenMP threads:             16
    Integrals threads:          16
    Memory [MiB]:            22888
    Algorithm:                Disk
    Integral Cache:           SAVE
    Schwarz Cutoff:          1E-12
    Fitting Condition:       1E-10

   => Auxiliary Basis Set <=

  Basis Set: (JUN-CC-PVDZ AUX)
    Blend: JUN-CC-PVDZ-JKFIT
    Number of shells: 1890
    Number of basis functions: 5440
    Number of Cartesian functions: 6226
    Spherical Harmonics?: true
    Max angular momentum: 3

  Minimum eigenvalue in the overlap matrix is 3.0620134783E-10.
  Reciprocal condition number of the overlap matrix is 1.1857621321E-11.
    Using canonical orthogonalization.
  Overall, 14 of 1233 possible MOs eliminated.


  ==> Pre-Iterations <==

  SCF Guess: Superposition of Atomic Densities via on-the-fly atomic UHF (no occupation information).

   -------------------------
    Irrep   Nso     Nmo    
   -------------------------
     A       1233    1219 
   -------------------------
    Total    1233    1219
   -------------------------

  ==> Iterations <==

                           Total Energy        Delta E     RMS |[F,P]|

   @DF-RHF iter SAD: -2366.54689977526959   -2.36655e+03   0.00000e+00 
   @DF-RHF iter   1: -2358.18333958952326    8.36356e+00   9.39317e-04 DIIS/ADIIS
   @DF-RHF iter   2: -2359.06945901212339   -8.86119e-01   3.13059e-04 DIIS/ADIIS
   @DF-RHF iter   3: -2359.15524149753310   -8.57825e-02   1.20361e-04 DIIS/ADIIS
   @DF-RHF iter   4: -2359.16827502558681   -1.30335e-02   4.59107e-05 DIIS
   @DF-RHF iter   5: -2359.17022569802748   -1.95067e-03   1.07050e-05 DIIS
   @DF-RHF iter   6: -2359.17041713635490   -1.91438e-04   5.86238e-06 DIIS
   @DF-RHF iter   7: -2359.17049634848718   -7.92121e-05   2.59634e-06 DIIS
   @DF-RHF iter   8: -2359.17052060057904   -2.42521e-05   1.21384e-06 DIIS
   @DF-RHF iter   9: -2359.17052672984391   -6.12926e-06   3.00752e-07 DIIS
   @DF-RHF iter  10: -2359.17052700085105   -2.71007e-07   1.13619e-07 DIIS
   @DF-RHF iter  11: -2359.17052702375713   -2.29061e-08   4.63147e-08 DIIS
   @DF-RHF iter  12: -2359.17052702852561   -4.76848e-09   2.36501e-08 DIIS
   @DF-RHF iter  13: -2359.17052702967248   -1.14687e-09   6.28060e-09 DIIS
  Energy and wave function converged.


  ==> Post-Iterations <==

    Orbital Energies [Eh]
    ---------------------

    Doubly Occupied:                                                      

       1A    -15.778786     2A    -15.778393     3A    -11.465956  
       4A    -11.412072     5A    -11.410520     6A    -11.394552  
       7A    -11.394470     8A    -11.358491     9A    -11.358107  
      10A    -11.357873    11A    -11.356977    12A    -11.356694  
      13A    -11.356271    14A    -11.350214    15A    -11.350169  
      16A    -11.350077    17A    -11.350045    18A    -11.348416  
      19A    -11.348231    20A    -11.346922    21A    -11.346917  
      22A    -11.345933    23A    -11.345888    24A    -11.345783  
      25A    -11.345496    26A    -11.345489    27A    -11.345331  
      28A    -11.344127    29A    -11.344004    30A    -11.343976  
      31A    -11.343876    32A    -11.343230    33A    -11.343206  
      34A    -11.343166    35A    -11.343151    36A    -11.342360  
      37A    -11.342337    38A    -11.342289    39A    -11.342272  
      40A    -11.340965    41A    -11.340874    42A    -11.340826  
      43A    -11.340734    44A    -11.335871    45A    -11.335661  
      46A    -11.335572    47A    -11.335526    48A    -11.334033  
      49A    -11.333880    50A    -11.332483    51A    -11.332468  
      52A    -11.331045    53A    -11.331030    54A    -11.330697  
      55A    -11.330695    56A    -11.330689    57A    -11.330632  
      58A    -11.329216    59A    -11.329215    60A    -11.329187  
      61A    -11.329137    62A     -1.524636    63A     -1.380341  
      64A     -1.340516    65A     -1.310345    66A     -1.307598  
      67A     -1.276345    68A     -1.275620    69A     -1.274020  
      70A     -1.241600    71A     -1.234497    72A     -1.226662  
      73A     -1.224312    74A     -1.196906    75A     -1.196847  
      76A     -1.188202    77A     -1.171685    78A     -1.169763  
      79A     -1.167826    80A     -1.149112    81A     -1.149087  
      82A     -1.136109    83A     -1.124527    84A     -1.113485  
      85A     -1.113168    86A     -1.111884    87A     -1.100964  
      88A     -1.095536    89A     -1.073749    90A     -1.073600  
      91A     -1.068116    92A     -1.046121    93A     -1.045881  
      94A     -0.981308    95A     -0.980717    96A     -0.980651  
      97A     -0.973653    98A     -0.973440    99A     -0.971143  
     100A     -0.968412   101A     -0.968066   102A     -0.947306  
     103A     -0.946000   104A     -0.918530   105A     -0.904418  
     106A     -0.902474   107A     -0.899795   108A     -0.898813  
     109A     -0.877994   110A     -0.877545   111A     -0.868285  
     112A     -0.834628   113A     -0.832299   114A     -0.821161  
     115A     -0.820663   116A     -0.815439   117A     -0.815416  
     118A     -0.804051   119A     -0.798884   120A     -0.783561  
     121A     -0.782644   122A     -0.779500   123A     -0.778628  
     124A     -0.771376   125A     -0.771011   126A     -0.744095  
     127A     -0.740628   128A     -0.740246   129A     -0.738515  
     130A     -0.736365   131A     -0.735748   132A     -0.733204  
     133A     -0.733110   134A     -0.723060   135A     -0.722397  
     136A     -0.715712   137A     -0.713846   138A     -0.713753  
     139A     -0.711027   140A     -0.693878   141A     -0.687660  
     142A     -0.684578   143A     -0.683384   144A     -0.682518  
     145A     -0.679815   146A     -0.679126   147A     -0.678996  
     148A     -0.668690   149A     -0.665830   150A     -0.663902  
     151A     -0.662140   152A     -0.653801   153A     -0.653127  
     154A     -0.649410   155A     -0.648804   156A     -0.647244  
     157A     -0.644913   158A     -0.637406   159A     -0.637000  
     160A     -0.624003   161A     -0.621277   162A     -0.621215  
     163A     -0.621021   164A     -0.614055   165A     -0.606952  
     166A     -0.606254   167A     -0.606185   168A     -0.582374  
     169A     -0.578578   170A     -0.576081   171A     -0.572630  
     172A     -0.570412   173A     -0.566389   174A     -0.566121  
     175A     -0.561579   176A     -0.557211   177A     -0.546040  
     178A     -0.539028   179A     -0.538470   180A     -0.521689  
     181A     -0.521658   182A     -0.492512   183A     -0.489840  
     184A     -0.488498   185A     -0.476067   186A     -0.457132  
     187A     -0.456907   188A     -0.436447   189A     -0.431706  
     190A     -0.429954   191A     -0.429052   192A     -0.394030  
     193A     -0.378016   194A     -0.373424   195A     -0.373124  
     196A     -0.311114   197A     -0.310172  

    Virtual:                                                              

     198A     -0.071950   199A     -0.071531   200A     -0.032712  
     201A     -0.026425   202A     -0.025669   203A     -0.023977  
     204A     -0.020199   205A     -0.016113   206A     -0.010618  
     207A     -0.010559   208A     -0.009474   209A     -0.006623  
     210A     -0.005332   211A     -0.002113   212A     -0.001273  
     213A     -0.000439   214A      0.002579   215A      0.003125  
     216A      0.004033   217A      0.007728   218A      0.007944  
     219A      0.008294   220A      0.013740   221A      0.016012  
     222A      0.016100   223A      0.016161   224A      0.019483  
     225A      0.021899   226A      0.027564   227A      0.031618  
     228A      0.031659   229A      0.034371   230A      0.037141  
     231A      0.037465   232A      0.038740   233A      0.040764  
     234A      0.040798   235A      0.041580   236A      0.044312  
     237A      0.044511   238A      0.048216   239A      0.048533  
     240A      0.051592   241A      0.051721   242A      0.057736  
     243A      0.060570   244A      0.064933   245A      0.066268  
     246A      0.067980   247A      0.071508   248A      0.073372  
     249A      0.073726   250A      0.075049   251A      0.075699  
     252A      0.077369   253A      0.082168   254A      0.083867  
     255A      0.083976   256A      0.084465   257A      0.085191  
     258A      0.088768   259A      0.095860   260A      0.096792  
     261A      0.097923   262A      0.100597   263A      0.101902  
     264A      0.102410   265A      0.102937   266A      0.103942  
     267A      0.106560   268A      0.107907   269A      0.112724  
     270A      0.114180   271A      0.114650   272A      0.118042  
     273A      0.118296   274A      0.118440   275A      0.122070  
     276A      0.123455   277A      0.124007   278A      0.127193  
     279A      0.131395   280A      0.136352   281A      0.137504  
     282A      0.139925   283A      0.141428   284A      0.142905  
     285A      0.145154   286A      0.145878   287A      0.146345  
     288A      0.146865   289A      0.147589   290A      0.148884  
     291A      0.149194   292A      0.149819   293A      0.150787  
     294A      0.153931   295A      0.155418   296A      0.156317  
     297A      0.156908   298A      0.159132   299A      0.160324  
     300A      0.162613   301A      0.163169   302A      0.164856  
     303A      0.165137   304A      0.166436   305A      0.167295  
     306A      0.167735   307A      0.172475   308A      0.176420  
     309A      0.177171   310A      0.178908   311A      0.180181  
     312A      0.181819   313A      0.184454   314A      0.184898  
     315A      0.185318   316A      0.187082   317A      0.187823  
     318A      0.189311   319A      0.191288   320A      0.192582  
     321A      0.193277   322A      0.193294   323A      0.195115  
     324A      0.195653   325A      0.199387   326A      0.199812  
     327A      0.201463   328A      0.203689   329A      0.203963  
     330A      0.206371   331A      0.207303   332A      0.209191  
     333A      0.210892   334A      0.214524   335A      0.216913  
     336A      0.217372   337A      0.220264   338A      0.225033  
     339A      0.227575   340A      0.229480   341A      0.230082  
     342A      0.233759   343A      0.235444   344A      0.236069  
     345A      0.236774   346A      0.238446   347A      0.239013  
     348A      0.239524   349A      0.240562   350A      0.241139  
     351A      0.241947   352A      0.241976   353A      0.242448  
     354A      0.244568   355A      0.245167   356A      0.246050  
     357A      0.247199   358A      0.248797   359A      0.250384  
     360A      0.251953   361A      0.254348   362A      0.257190  
     363A      0.258639   364A      0.259496   365A      0.261312  
     366A      0.261686   367A      0.262264   368A      0.264135  
     369A      0.266192   370A      0.268621   371A      0.269847  
     372A      0.271621   373A      0.273236   374A      0.275020  
     375A      0.276510   376A      0.277355   377A      0.280223  
     378A      0.280414   379A      0.283151   380A      0.283568  
     381A      0.286210   382A      0.287039   383A      0.287776  
     384A      0.290631   385A      0.292430   386A      0.293627  
     387A      0.293899   388A      0.294134   389A      0.294714  
     390A      0.300294   391A      0.302024   392A      0.303617  
     393A      0.304571   394A      0.306286   395A      0.307855  
     396A      0.309191   397A      0.309522   398A      0.310517  
     399A      0.312476   400A      0.313631   401A      0.315017  
     402A      0.315941   403A      0.316510   404A      0.319557  
     405A      0.320711   406A      0.322629   407A      0.324468  
     408A      0.325240   409A      0.327494   410A      0.328457  
     411A      0.329645   412A      0.331527   413A      0.332361  
     414A      0.334242   415A      0.334833   416A      0.335577  
     417A      0.335843   418A      0.336580   419A      0.338470  
     420A      0.339070   421A      0.339853   422A      0.341939  
     423A      0.342182   424A      0.345869   425A      0.346418  
     426A      0.351211   427A      0.351590   428A      0.354622  
     429A      0.357062   430A      0.358739   431A      0.359800  
     432A      0.361112   433A      0.362756   434A      0.363484  
     435A      0.365548   436A      0.367921   437A      0.369426  
     438A      0.369790   439A      0.371447   440A      0.373176  
     441A      0.373820   442A      0.376388   443A      0.378084  
     444A      0.380140   445A      0.381011   446A      0.381301  
     447A      0.382396   448A      0.382521   449A      0.384597  
     450A      0.385658   451A      0.385758   452A      0.386284  
     453A      0.392663   454A      0.393216   455A      0.394885  
     456A      0.396591   457A      0.398796   458A      0.403130  
     459A      0.404531   460A      0.405362   461A      0.407782  
     462A      0.410031   463A      0.414730   464A      0.415476  
     465A      0.416393   466A      0.417044   467A      0.417685  
     468A      0.418191   469A      0.418646   470A      0.422058  
     471A      0.422380   472A      0.424224   473A      0.429499  
     474A      0.431773   475A      0.433977   476A      0.435342  
     477A      0.438228   478A      0.441612   479A      0.442734  
     480A      0.443279   481A      0.444548   482A      0.447296  
     483A      0.449495   484A      0.456096   485A      0.459981  
     486A      0.462233   487A      0.463634   488A      0.467263  
     489A      0.468898   490A      0.469351   491A      0.470915  
     492A      0.472267   493A      0.472917   494A      0.475637  
     495A      0.475991   496A      0.477321   497A      0.479467  
     498A      0.482938   499A      0.483591   500A      0.486870  
     501A      0.488522   502A      0.489640   503A      0.492878  
     504A      0.496110   505A      0.498717   506A      0.506832  
     507A      0.509011   508A      0.511937   509A      0.514493  
     510A      0.516758   511A      0.517938   512A      0.525736  
     513A      0.534046   514A      0.536061   515A      0.537187  
     516A      0.537958   517A      0.539147   518A      0.544921  
     519A      0.545409   520A      0.554990   521A      0.561956  
     522A      0.571434   523A      0.573038   524A      0.578213  
     525A      0.581277   526A      0.582458   527A      0.587344  
     528A      0.588253   529A      0.594323   530A      0.594777  
     531A      0.596785   532A      0.606846   533A      0.632338  
     534A      0.632448   535A      0.659616   536A      0.659846  
     537A      0.661375   538A      0.662627   539A      0.662746  
     540A      0.663285   541A      0.673932   542A      0.675320  
     543A      0.687286   544A      0.689033   545A      0.708213  
     546A      0.715906   547A      0.717099   548A      0.718494  
     549A      0.729436   550A      0.733712   551A      0.737071  
     552A      0.742798   553A      0.742982   554A      0.744583  
     555A      0.746265   556A      0.750718   557A      0.751421  
     558A      0.754458   559A      0.760305   560A      0.769428  
     561A      0.769717   562A      0.773288   563A      0.775997  
     564A      0.778728   565A      0.781413   566A      0.784005  
     567A      0.784452   568A      0.791965   569A      0.795110  
     570A      0.796575   571A      0.800760   572A      0.802352  
     573A      0.804408   574A      0.807123   575A      0.808887  
     576A      0.812039   577A      0.815508   578A      0.818933  
     579A      0.818983   580A      0.820335   581A      0.824087  
     582A      0.828838   583A      0.831140   584A      0.832164  
     585A      0.834059   586A      0.834479   587A      0.837950  
     588A      0.839036   589A      0.839656   590A      0.843127  
     591A      0.843740   592A      0.844247   593A      0.846213  
     594A      0.849095   595A      0.850451   596A      0.852439  
     597A      0.856887   598A      0.857810   599A      0.861493  
     600A      0.862486   601A      0.866162   602A      0.868361  
     603A      0.873598   604A      0.874694   605A      0.878034  
     606A      0.878999   607A      0.880405   608A      0.882050  
     609A      0.884958   610A      0.888612   611A      0.890248  
     612A      0.891298   613A      0.892677   614A      0.893546  
     615A      0.895061   616A      0.897587   617A      0.900088  
     618A      0.901191   619A      0.902269   620A      0.905209  
     621A      0.909753   622A      0.912692   623A      0.915711  
     624A      0.917575   625A      0.918610   626A      0.922207  
     627A      0.923768   628A      0.927713   629A      0.934716  
     630A      0.936404   631A      0.938438   632A      0.939106  
     633A      0.940702   634A      0.944389   635A      0.946844  
     636A      0.948300   637A      0.949623   638A      0.950704  
     639A      0.951615   640A      0.954790   641A      0.957697  
     642A      0.960133   643A      0.962367   644A      0.962986  
     645A      0.963830   646A      0.965286   647A      0.967060  
     648A      0.970471   649A      0.972211   650A      0.973580  
     651A      0.975552   652A      0.976490   653A      0.977848  
     654A      0.979039   655A      0.979601   656A      0.981985  
     657A      0.985940   658A      0.987909   659A      0.989309  
     660A      0.991394   661A      0.997925   662A      0.998643  
     663A      1.002159   664A      1.003686   665A      1.005838  
     666A      1.008747   667A      1.009826   668A      1.014730  
     669A      1.015237   670A      1.016981   671A      1.018072  
     672A      1.021228   673A      1.022521   674A      1.024718  
     675A      1.026789   676A      1.028410   677A      1.030661  
     678A      1.032952   679A      1.035736   680A      1.037010  
     681A      1.037483   682A      1.041369   683A      1.042292  
     684A      1.043807   685A      1.045450   686A      1.049126  
     687A      1.051382   688A      1.054309   689A      1.056791  
     690A      1.058021   691A      1.061247   692A      1.062898  
     693A      1.072599   694A      1.075478   695A      1.079909  
     696A      1.083507   697A      1.084731   698A      1.087063  
     699A      1.088332   700A      1.089359   701A      1.090966  
     702A      1.096038   703A      1.104310   704A      1.105727  
     705A      1.107082   706A      1.112744   707A      1.117833  
     708A      1.118546   709A      1.123573   710A      1.128223  
     711A      1.130502   712A      1.132878   713A      1.134952  
     714A      1.140765   715A      1.142232   716A      1.143199  
     717A      1.145184   718A      1.148725   719A      1.152736  
     720A      1.155371   721A      1.158782   722A      1.162061  
     723A      1.163403   724A      1.163865   725A      1.167078  
     726A      1.173775   727A      1.176502   728A      1.178105  
     729A      1.180024   730A      1.180519   731A      1.180991  
     732A      1.181720   733A      1.183894   734A      1.187130  
     735A      1.189793   736A      1.192101   737A      1.195718  
     738A      1.201584   739A      1.207839   740A      1.210060  
     741A      1.211680   742A      1.214474   743A      1.216395  
     744A      1.218351   745A      1.223382   746A      1.225840  
     747A      1.233036   748A      1.234148   749A      1.238349  
     750A      1.240341   751A      1.243122   752A      1.245306  
     753A      1.246450   754A      1.247144   755A      1.250006  
     756A      1.256647   757A      1.259712   758A      1.260704  
     759A      1.262784   760A      1.264167   761A      1.266538  
     762A      1.266789   763A      1.271380   764A      1.272845  
     765A      1.278253   766A      1.280270   767A      1.289269  
     768A      1.292497   769A      1.295726   770A      1.298182  
     771A      1.302729   772A      1.304497   773A      1.308172  
     774A      1.313258   775A      1.317112   776A      1.319689  
     777A      1.322802   778A      1.323065   779A      1.325893  
     780A      1.327669   781A      1.335523   782A      1.338207  
     783A      1.340594   784A      1.343330   785A      1.346795  
     786A      1.351578   787A      1.353926   788A      1.354538  
     789A      1.358946   790A      1.364598   791A      1.366096  
     792A      1.367779   793A      1.368665   794A      1.369192  
     795A      1.373277   796A      1.374241   797A      1.377639  
     798A      1.386130   799A      1.388471   800A      1.395582  
     801A      1.401128   802A      1.408147   803A      1.420249  
     804A      1.436230   805A      1.436827   806A      1.442899  
     807A      1.445472   808A      1.449739   809A      1.455467  
     810A      1.461474   811A      1.468908   812A      1.490249  
     813A      1.495757   814A      1.502670   815A      1.508249  
     816A      1.515538   817A      1.518268   818A      1.519165  
     819A      1.523828   820A      1.526806   821A      1.530391  
     822A      1.533297   823A      1.537279   824A      1.538893  
     825A      1.544135   826A      1.550482   827A      1.554916  
     828A      1.558454   829A      1.562526   830A      1.564498  
     831A      1.566110   832A      1.570276   833A      1.571434  
     834A      1.574451   835A      1.576715   836A      1.578143  
     837A      1.581781   838A      1.585058   839A      1.586859  
     840A      1.588096   841A      1.591511   842A      1.594815  
     843A      1.597623   844A      1.601104   845A      1.602567  
     846A      1.608803   847A      1.610917   848A      1.612766  
     849A      1.615657   850A      1.617861   851A      1.619695  
     852A      1.624508   853A      1.626494   854A      1.628339  
     855A      1.636463   856A      1.638375   857A      1.646311  
     858A      1.650785   859A      1.658539   860A      1.662066  
     861A      1.666007   862A      1.677348   863A      1.682201  
     864A      1.682462   865A      1.683241   866A      1.687449  
     867A      1.692145   868A      1.695706   869A      1.704692  
     870A      1.709953   871A      1.711074   872A      1.720504  
     873A      1.724766   874A      1.732950   875A      1.736071  
     876A      1.736755   877A      1.738870   878A      1.744160  
     879A      1.744464   880A      1.753260   881A      1.756469  
     882A      1.762049   883A      1.765284   884A      1.770806  
     885A      1.772873   886A      1.777871   887A      1.778097  
     888A      1.779656   889A      1.781934   890A      1.786215  
     891A      1.790158   892A      1.792960   893A      1.796538  
     894A      1.802876   895A      1.806210   896A      1.808156  
     897A      1.814000   898A      1.817788   899A      1.819140  
     900A      1.820755   901A      1.824715   902A      1.825880  
     903A      1.827552   904A      1.830606   905A      1.833030  
     906A      1.833759   907A      1.836320   908A      1.839661  
     909A      1.842769   910A      1.845999   911A      1.851772  
     912A      1.854671   913A      1.860708   914A      1.863997  
     915A      1.865528   916A      1.866601   917A      1.870466  
     918A      1.871189   919A      1.873936   920A      1.875764  
     921A      1.876961   922A      1.883657   923A      1.887534  
     924A      1.891556   925A      1.898724   926A      1.900169  
     927A      1.906400   928A      1.908109   929A      1.912172  
     930A      1.913423   931A      1.917252   932A      1.919138  
     933A      1.920101   934A      1.926367   935A      1.927632  
     936A      1.928375   937A      1.929977   938A      1.934286  
     939A      1.935027   940A      1.938666   941A      1.940602  
     942A      1.945634   943A      1.946396   944A      1.948793  
     945A      1.952871   946A      1.957929   947A      1.960666  
     948A      1.961882   949A      1.963641   950A      1.966803  
     951A      1.969525   952A      1.972456   953A      1.978099  
     954A      1.984319   955A      1.985753   956A      1.988367  
     957A      1.988868   958A      1.993090   959A      1.994674  
     960A      1.995299   961A      2.000204   962A      2.003101  
     963A      2.007964   964A      2.009557   965A      2.012573  
     966A      2.013372   967A      2.014902   968A      2.018301  
     969A      2.019174   970A      2.022300   971A      2.023767  
     972A      2.024969   973A      2.027399   974A      2.029944  
     975A      2.032262   976A      2.033997   977A      2.034672  
     978A      2.036377   979A      2.038070   980A      2.041149  
     981A      2.044260   982A      2.045034   983A      2.046685  
     984A      2.049862   985A      2.052509   986A      2.053763  
     987A      2.057094   988A      2.058825   989A      2.060624  
     990A      2.062979   991A      2.065319   992A      2.071876  
     993A      2.074856   994A      2.080042   995A      2.085362  
     996A      2.085899   997A      2.087764   998A      2.091567  
     999A      2.093354  1000A      2.100285  1001A      2.104237  
    1002A      2.108207  1003A      2.112940  1004A      2.115354  
    1005A      2.116149  1006A      2.120746  1007A      2.126813  
    1008A      2.128640  1009A      2.133393  1010A      2.134273  
    1011A      2.135285  1012A      2.138386  1013A      2.142371  
    1014A      2.146294  1015A      2.150087  1016A      2.160714  
    1017A      2.165201  1018A      2.165884  1019A      2.167512  
    1020A      2.168857  1021A      2.169896  1022A      2.173982  
    1023A      2.178911  1024A      2.180220  1025A      2.184426  
    1026A      2.186617  1027A      2.189499  1028A      2.191238  
    1029A      2.193766  1030A      2.202420  1031A      2.205957  
    1032A      2.211755  1033A      2.216726  1034A      2.219917  
    1035A      2.224663  1036A      2.227392  1037A      2.231298  
    1038A      2.235498  1039A      2.244731  1040A      2.247102  
    1041A      2.249545  1042A      2.260108  1043A      2.263208  
    1044A      2.266291  1045A      2.269847  1046A      2.272125  
    1047A      2.275221  1048A      2.281243  1049A      2.284204  
    1050A      2.287172  1051A      2.299811  1052A      2.301724  
    1053A      2.308565  1054A      2.314886  1055A      2.323268  
    1056A      2.334809  1057A      2.338248  1058A      2.339765  
    1059A      2.340297  1060A      2.347970  1061A      2.354778  
    1062A      2.362202  1063A      2.370031  1064A      2.380325  
    1065A      2.390500  1066A      2.396888  1067A      2.400319  
    1068A      2.407289  1069A      2.414006  1070A      2.424003  
    1071A      2.426413  1072A      2.437951  1073A      2.442157  
    1074A      2.444128  1075A      2.455994  1076A      2.460544  
    1077A      2.465341  1078A      2.468925  1079A      2.470702  
    1080A      2.474847  1081A      2.476010  1082A      2.478049  
    1083A      2.479013  1084A      2.483551  1085A      2.487541  
    1086A      2.489678  1087A      2.491363  1088A      2.495171  
    1089A      2.499715  1090A      2.502541  1091A      2.509792  
    1092A      2.512292  1093A      2.516857  1094A      2.524084  
    1095A      2.529211  1096A      2.532348  1097A      2.544938  
    1098A      2.550993  1099A      2.551887  1100A      2.560899  
    1101A      2.565965  1102A      2.567000  1103A      2.570237  
    1104A      2.572896  1105A      2.577379  1106A      2.592485  
    1107A      2.598953  1108A      2.607479  1109A      2.608058  
    1110A      2.614441  1111A      2.617354  1112A      2.623856  
    1113A      2.626313  1114A      2.627268  1115A      2.629781  
    1116A      2.632437  1117A      2.634520  1118A      2.636680  
    1119A      2.646941  1120A      2.648168  1121A      2.660996  
    1122A      2.674794  1123A      2.679793  1124A      2.693209  
    1125A      2.704637  1126A      2.712066  1127A      2.722166  
    1128A      2.722334  1129A      2.741082  1130A      2.744674  
    1131A      2.748980  1132A      2.754388  1133A      2.764210  
    1134A      2.766493  1135A      2.767604  1136A      2.774879  
    1137A      2.777214  1138A      2.779779  1139A      2.791255  
    1140A      2.801951  1141A      2.823717  1142A      2.827565  
    1143A      2.837661  1144A      2.840092  1145A      2.840813  
    1146A      2.848619  1147A      2.856823  1148A      2.859212  
    1149A      2.864054  1150A      2.877539  1151A      2.881808  
    1152A      2.883169  1153A      2.886724  1154A      2.922468  
    1155A      2.934114  1156A      2.939555  1157A      2.946593  
    1158A      2.972592  1159A      2.976368  1160A      2.976610  
    1161A      2.985007  1162A      2.993519  1163A      3.009114  
    1164A      3.013854  1165A      3.042130  1166A      3.043636  
    1167A      3.054355  1168A      3.055775  1169A      3.059209  
    1170A      3.063770  1171A      3.067284  1172A      3.068669  
    1173A      3.070223  1174A      3.073370  1175A      3.076734  
    1176A      3.081293  1177A      3.089378  1178A      3.091615  
    1179A      3.093408  1180A      3.112054  1181A      3.127318  
    1182A      3.128289  1183A      3.134043  1184A      3.160707  
    1185A      3.173718  1186A      3.190365  1187A      3.196683  
    1188A      3.199017  1189A      3.207584  1190A      3.216066  
    1191A      3.225792  1192A      3.233340  1193A      3.335571  
    1194A      3.335762  1195A      3.360702  1196A      3.406266  
    1197A      3.410148  1198A      3.478307  1199A      3.508811  
    1200A      3.509200  1201A      3.551419  1202A      3.553487  
    1203A      3.569793  1204A      3.574839  1205A      3.604375  
    1206A      3.624304  1207A      3.628533  1208A      3.710322  
    1209A      3.715981  1210A      3.743457  1211A      3.789650  
    1212A      3.790915  1213A      3.831749  1214A      3.832104  
    1215A      3.899462  1216A      3.923541  1217A      4.016124  
    1218A      4.036429  1219A      4.156337  

    Final Occupation by Irrep:
              A 
    DOCC [   197 ]
    NA   [   197 ]
    NB   [   197 ]

  @DF-RHF Final Energy: -2359.17052702967248

   => Energetics <=

    Nuclear Repulsion Energy =           8438.6361039544590312
    One-Electron Energy =              -19975.1922156452674244
    Two-Electron Energy =                9177.3855846611349989
    Total Energy =                      -2359.1705270296733943

Computation Completed


Properties will be evaluated at   0.000000,   0.000000,   0.000000 [a0]

Properties computed using the SCF density matrix


 Multipole Moments:

 ------------------------------------------------------------------------------------
     Multipole            Electronic (a.u.)      Nuclear  (a.u.)        Total (a.u.)
 ------------------------------------------------------------------------------------

 L = 1.  Multiply by 2.5417464519 to convert [e a0] to [Debye]
 Dipole X            :         -0.0034829            0.0006313           -0.0028516
 Dipole Y            :         -0.0601808            0.0560211           -0.0041597
 Dipole Z            :         13.3556854          -16.8788659           -3.5231805
 Magnitude           :                                                    3.5231841

 ------------------------------------------------------------------------------------

*** tstop() called on n2cn0204 at Sat Feb  3 16:24:28 2024
Module time:
	user time   =    5141.19 seconds =      85.69 minutes
	system time =     400.42 seconds =       6.67 minutes
	total time  =       8876 seconds =     147.93 minutes
Total time:
	user time   =    5141.19 seconds =      85.69 minutes
	system time =     400.42 seconds =       6.67 minutes
	total time  =       8876 seconds =     147.93 minutes

  //>>>>>>>>>>>>>>>>>>>>>>>>>>>>>>>>>>>//
  //            Monomer A HF           //
  //<<<<<<<<<<<<<<<<<<<<<<<<<<<<<<<<<<<//

   => Libint2 <=

    Primary   basis highest AM E, G, H:  5, 4, 3
    Auxiliary basis highest AM E, G, H:  6, 5, 4
    Onebody   basis highest AM E, G, H:  6, 5, 4
    Solid Harmonics ordering:            gaussian

*** tstart() called on n2cn0204
*** at Sat Feb  3 16:24:28 2024

   => Loading Basis Set <=

    Name: JUN-CC-PVDZ
    Role: ORBITAL
    Keyword: BASIS
    atoms 1-2, 4-5, 10, 17-70 entry C          line   164 file /opt/software/pc2/EB-SW/software/PSI4/1.9-foss-2022a/share/psi4/basis/jun-cc-pvdz.gbs 
    atoms 3, 6                entry N          line   198 file /opt/software/pc2/EB-SW/software/PSI4/1.9-foss-2022a/share/psi4/basis/jun-cc-pvdz.gbs 
    atoms 7-9, 11-16, 71-88   entry H          line    36 file /opt/software/pc2/EB-SW/software/PSI4/1.9-foss-2022a/share/psi4/basis/jun-cc-pvdz.gbs 


         ---------------------------------------------------------
                                   SCF
               by Justin Turney, Rob Parrish, Andy Simmonett
                          and Daniel G. A. Smith
                              RHF Reference
                       16 Threads,  30517 MiB Core
         ---------------------------------------------------------

  ==> Geometry <==

    Molecular point group: c1
    Full point group: C1

    Geometry (in Angstrom), charge = 1, multiplicity = 1:

       Center              X                  Y                   Z               Mass       
    ------------   -----------------  -----------------  -----------------  -----------------
         C            0.680066520158    -0.008042372515    -4.358033358461    12.000000000000
         C           -0.680504479842    -0.006014372515    -4.357649358461    12.000000000000
         N           -1.085635479842    -0.005016372515    -3.039325358461    14.003074004430
         C            0.000107520158    -0.001740372515    -2.257924358461    12.000000000000
         C           -2.477365479842     0.044389627485    -2.571346358461    12.000000000000
         N            1.085221520158    -0.005016372515    -3.039325358461    14.003074004430
         H            1.385145520158    -0.015870372515    -5.175472358461     1.007825032230
         H           -1.385302479842    -0.006204372515    -5.175318358461     1.007825032230
         H           -0.000009479842     0.000006627485    -1.176835358461     1.007825032230
         C            2.478116520158    -0.021908372515    -2.574227358461    12.000000000000
         H            2.490591520158     0.005436627485    -1.483974358461     1.007825032230
         H            2.967027520158    -0.935354372515    -2.921403358461     1.007825032230
         H            3.001427520158     0.853574627485    -2.965699358461     1.007825032230
         H           -2.857359479842     1.066460627485    -2.651305358461     1.007825032230
         H           -3.082679479842    -0.625694372515    -3.184410358461     1.007825032230
         H           -2.518128479842    -0.282594372515    -1.531398358461     1.007825032230
      Gh(C)           1.225311895423     0.707538288405     0.464033268822    12.000000000000
      Gh(C)           1.225323856051    -0.707538895085     0.451702459252    12.000000000000
      Gh(C)          -0.000006153932     1.414965913575     0.451168835731    12.000000000000
      Gh(C)           2.456448753949     1.418327886663     0.466920126222    12.000000000000
      Gh(C)           0.000010827279    -1.414976499150     0.461368393056    12.000000000000
      Gh(C)          -1.225300948908     0.707545373469     0.466284789145    12.000000000000
      Gh(C)           2.456437755320    -1.418323304396     0.449457302395    12.000000000000
      Gh(C)          -0.000001332978     2.836801030766     0.448765285597    12.000000000000
      Gh(C)           3.681826697470     0.709317955486     0.449806092193    12.000000000000
      Gh(C)           2.455120048865     2.834223660974     0.449703535232    12.000000000000
      Gh(C)           3.681821105219    -0.709333839944     0.465878576211    12.000000000000
      Gh(C)          -1.225313598688    -0.707527516059     0.452775220679    12.000000000000
      Gh(C)           1.226699581202     3.543469483479     0.466062608142    12.000000000000
      Gh(C)           0.000004784858    -2.836782139751     0.466216560677    12.000000000000
      Gh(C)          -2.456436032848     1.418316917770     0.466320184991    12.000000000000
      Gh(C)           2.455123417779    -2.834230029103     0.465726667844    12.000000000000
      Gh(C)          -1.226714364589     3.543469063235     0.466165941362    12.000000000000
      Gh(C)           4.914517295202     1.427172871975     0.456286775223    12.000000000000
      Gh(C)           3.693150191476     3.542795292030     0.456336574859    12.000000000000
      Gh(C)          -2.456437600068    -1.418313281354     0.449432264271    12.000000000000
      Gh(C)           1.226704841943    -3.543474242421     0.450092477393    12.000000000000
      Gh(C)          -2.455125398508     2.834216662119     0.449709911579    12.000000000000
      Gh(C)           4.914524380782    -1.427186910459     0.459259517957    12.000000000000
      Gh(C)           1.221424613699     4.970134064745     0.459397952217    12.000000000000
      Gh(C)           4.893008229321     2.825187999512     0.457503443581    12.000000000000
      Gh(C)          -1.226697008489    -3.543470997592     0.450359681802    12.000000000000
      Gh(C)          -3.681818976526     0.709324966217     0.449818772673    12.000000000000
      Gh(C)           3.693147101150    -3.542801341905     0.459377408518    12.000000000000
      Gh(C)          -1.221432251994     4.970128297348     0.459581447590    12.000000000000
      Gh(C)           6.134770972926     0.680547946591     0.457056549772    12.000000000000
      Gh(C)           3.656788880610     4.972953243053     0.457245212642    12.000000000000
      Gh(C)          -2.455126907733    -2.834215093576     0.465482310046    12.000000000000
      Gh(C)          -3.681819179061    -0.709325703983     0.465996197790    12.000000000000
      Gh(C)           4.893012617914    -2.825200106147     0.458114595477    12.000000000000
      Gh(C)          -0.000001073113     5.650447365518     0.458350138883    12.000000000000
      Gh(C)           6.134775112332    -0.680554854590     0.458321870288    12.000000000000
      Gh(C)           2.478131482856     5.653576750817     0.458533992291    12.000000000000
      Gh(C)           1.221422404738    -4.970127055448     0.456598455194    12.000000000000
      Gh(C)          -3.693162383965     3.542796953677     0.456502082318    12.000000000000
      Gh(C)          -1.221428520945    -4.970118304111     0.456485693362    12.000000000000
      Gh(C)          -4.914521807942     1.427175446480     0.456363720230    12.000000000000
      Gh(C)           3.656787019679    -4.972955226754     0.458695713176    12.000000000000
      Gh(C)          -2.478138530106     5.653574422014     0.458818517300    12.000000000000
      Gh(C)          -3.693141738564    -3.542790219494     0.459261282362    12.000000000000
      Gh(C)          -4.914512483053    -1.427181000542     0.459294215131    12.000000000000
      Gh(C)          -0.000006008926    -5.650438287528     0.457954634761    12.000000000000
      Gh(C)          -4.893020484101     2.825188598404     0.457493361721    12.000000000000
      Gh(C)           2.478125993298    -5.653573544403     0.457605112383    12.000000000000
      Gh(C)          -3.656798710258     4.972956181527     0.457421893016    12.000000000000
      Gh(C)          -4.892999478856    -2.825191767575     0.457960559779    12.000000000000
      Gh(C)          -2.478128498083    -5.653566170521     0.457329924736    12.000000000000
      Gh(C)          -6.134770503331     0.680548765741     0.457030998070    12.000000000000
      Gh(C)          -3.656788833189    -4.972944023485     0.458481425359    12.000000000000
      Gh(C)          -6.134765042913    -0.680553915997     0.458301394493    12.000000000000
      Gh(H)           5.835288495816     3.369275894439     0.461862769244     1.007825032230
      Gh(H)           7.073859172747     1.228217248385     0.457518193166     1.007825032230
      Gh(H)           4.600663264174     5.512380801938     0.457750413393     1.007825032230
      Gh(H)           5.835283387305    -3.369306057244     0.453660128162     1.007825032230
      Gh(H)          -0.000012151306     6.738530673622     0.454000893875     1.007825032230
      Gh(H)           7.073861171831    -1.228226943259     0.457813132194     1.007825032230
      Gh(H)           2.473313731799     6.740684290880     0.458067271361     1.007825032230
      Gh(H)           4.600668491381    -5.512376129691     0.458285716007     1.007825032230
      Gh(H)          -2.473318680537     6.740681719092     0.458368617986     1.007825032230
      Gh(H)          -0.000010268228    -6.738528176967     0.462484319746     1.007825032230
      Gh(H)          -5.835301914343     3.369270949781     0.461998791392     1.007825032230
      Gh(H)           2.473307923831    -6.740685374944     0.458175442808     1.007825032230
      Gh(H)          -4.600674841208     5.512378026089     0.457915741717     1.007825032230
      Gh(H)          -5.835279506835    -3.369288964294     0.453380822281     1.007825032230
      Gh(H)          -2.473300347440    -6.740679078655     0.457726126264     1.007825032230
      Gh(H)          -7.073857766768     1.228220472326     0.457434201685     1.007825032230
      Gh(H)          -4.600673786085    -5.512362670301     0.458113407984     1.007825032230
      Gh(H)          -7.073856934409    -1.228220632492     0.457718275728     1.007825032230

  Running in c1 symmetry.

  Rotational constants: A =      0.00192  B =      0.00187  C =      0.00109 [cm^-1]
  Rotational constants: A =     57.59799  B =     56.06877  C =     32.71081 [MHz]
  Nuclear repulsion =  306.774908447733083

  Charge       = 1
  Multiplicity = 1
  Electrons    = 52
  Nalpha       = 26
  Nbeta        = 26

  ==> Algorithm <==

  SCF Algorithm Type is DF.
  DIIS enabled.
  MOM disabled.
  Fractional occupation disabled.
  Guess Type is SAD.
  Energy threshold   = 1.00e-08
  Density threshold  = 1.00e-08
  Integral threshold = 1.00e-12

  ==> Primary Basis <==

  Basis Set: JUN-CC-PVDZ
    Blend: JUN-CC-PVDZ
    Number of shells: 569
    Number of basis functions: 1233
    Number of Cartesian functions: 1294
    Spherical Harmonics?: true
    Max angular momentum: 2

   => Loading Basis Set <=

    Name: (JUN-CC-PVDZ AUX)
    Role: JKFIT
    Keyword: DF_BASIS_SCF
    atoms 1-2, 4-5, 10, 17-70 entry C          line   146 file /opt/software/pc2/EB-SW/software/PSI4/1.9-foss-2022a/share/psi4/basis/jun-cc-pvdz-jkfit.gbs 
    atoms 3, 6                entry N          line   202 file /opt/software/pc2/EB-SW/software/PSI4/1.9-foss-2022a/share/psi4/basis/jun-cc-pvdz-jkfit.gbs 
    atoms 7-9, 11-16, 71-88   entry H          line    70 file /opt/software/pc2/EB-SW/software/PSI4/1.9-foss-2022a/share/psi4/basis/jun-cc-pvdz-jkfit.gbs 

  ==> Integral Setup <==

  ==> DiskDFJK: Density-Fitted J/K Matrices <==

    J tasked:                  Yes
    K tasked:                  Yes
    wK tasked:                  No
    OpenMP threads:             16
    Integrals threads:          16
    Memory [MiB]:            22888
    Algorithm:                Disk
    Integral Cache:           LOAD
    Schwarz Cutoff:          1E-12
    Fitting Condition:       1E-10

   => Auxiliary Basis Set <=

  Basis Set: (JUN-CC-PVDZ AUX)
    Blend: JUN-CC-PVDZ-JKFIT
    Number of shells: 1890
    Number of basis functions: 5440
    Number of Cartesian functions: 6226
    Spherical Harmonics?: true
    Max angular momentum: 3

  Minimum eigenvalue in the overlap matrix is 3.0620134783E-10.
  Reciprocal condition number of the overlap matrix is 1.1857621321E-11.
    Using canonical orthogonalization.
  Overall, 14 of 1233 possible MOs eliminated.


  ==> Pre-Iterations <==

  SCF Guess: Superposition of Atomic Densities via on-the-fly atomic UHF (no occupation information).

   -------------------------
    Irrep   Nso     Nmo    
   -------------------------
     A       1233    1219 
   -------------------------
    Total    1233    1219
   -------------------------

  ==> Iterations <==

                           Total Energy        Delta E     RMS |[F,P]|

   @DF-RHF iter SAD:  -303.36537774243772   -3.03365e+02   0.00000e+00 
   @DF-RHF iter   1:  -303.17073832891481    1.94639e-01   3.45125e-04 DIIS/ADIIS
   @DF-RHF iter   2:  -303.28524053226778   -1.14502e-01   1.16165e-04 DIIS/ADIIS
   @DF-RHF iter   3:  -303.29677588460191   -1.15354e-02   4.55627e-05 DIIS
   @DF-RHF iter   4:  -303.29870689866834   -1.93101e-03   1.00192e-05 DIIS
   @DF-RHF iter   5:  -303.29881608455952   -1.09186e-04   2.45041e-06 DIIS
   @DF-RHF iter   6:  -303.29882572346679   -9.63891e-06   6.61294e-07 DIIS
   @DF-RHF iter   7:  -303.29882683181393   -1.10835e-06   3.38195e-07 DIIS
   @DF-RHF iter   8:  -303.29882709679958   -2.64986e-07   1.36356e-07 DIIS
   @DF-RHF iter   9:  -303.29882714788511   -5.10855e-08   3.38926e-08 DIIS
   @DF-RHF iter  10:  -303.29882715073677   -2.85166e-09   1.25723e-08 DIIS
   @DF-RHF iter  11:  -303.29882715097528   -2.38515e-10   2.96299e-09 DIIS
  Energy and wave function converged.


  ==> Post-Iterations <==

    Orbital Energies [Eh]
    ---------------------

    Doubly Occupied:                                                      

       1A    -15.834508     2A    -15.833957     3A    -11.529063  
       4A    -11.459622     5A    -11.458067     6A    -11.449514  
       7A    -11.449382     8A     -1.577620     9A     -1.433267  
      10A     -1.238138    11A     -1.188917    12A     -1.118548  
      13A     -1.022014    14A     -0.996485    15A     -0.916624  
      16A     -0.850128    17A     -0.815827    18A     -0.812702  
      19A     -0.789689    20A     -0.785953    21A     -0.781347  
      22A     -0.729436    23A     -0.725514    24A     -0.716962  
      25A     -0.595855    26A     -0.523479  

    Virtual:                                                              

      27A     -0.080656    28A     -0.073883    29A     -0.063115  
      30A     -0.056136    31A     -0.044353    32A     -0.041087  
      33A     -0.040647    34A     -0.039093    35A     -0.038861  
      36A     -0.026923    37A     -0.026716    38A     -0.022906  
      39A     -0.022188    40A     -0.016545    41A     -0.015226  
      42A     -0.013959    43A     -0.008879    44A     -0.007026  
      45A      0.000246    46A      0.002910    47A      0.004642  
      48A      0.005408    49A      0.005611    50A      0.006067  
      51A      0.011545    52A      0.011998    53A      0.012677  
      54A      0.019036    55A      0.021814    56A      0.023605  
      57A      0.024887    58A      0.026989    59A      0.028432  
      60A      0.029654    61A      0.036494    62A      0.038108  
      63A      0.041025    64A      0.041326    65A      0.041730  
      66A      0.047167    67A      0.048251    68A      0.052068  
      69A      0.052372    70A      0.053466    71A      0.054350  
      72A      0.056430    73A      0.059313    74A      0.060876  
      75A      0.061429    76A      0.061804    77A      0.063106  
      78A      0.066332    79A      0.066668    80A      0.070970  
      81A      0.071278    82A      0.071820    83A      0.072616  
      84A      0.075356    85A      0.079262    86A      0.080084  
      87A      0.081397    88A      0.083838    89A      0.086006  
      90A      0.086851    91A      0.087414    92A      0.087678  
      93A      0.090330    94A      0.091028    95A      0.099400  
      96A      0.100178    97A      0.100409    98A      0.103021  
      99A      0.104108   100A      0.105352   101A      0.105846  
     102A      0.107356   103A      0.110565   104A      0.110693  
     105A      0.111014   106A      0.111128   107A      0.112417  
     108A      0.113920   109A      0.116710   110A      0.116946  
     111A      0.119758   112A      0.120517   113A      0.120912  
     114A      0.121364   115A      0.124480   116A      0.126159  
     117A      0.127011   118A      0.129319   119A      0.131187  
     120A      0.133495   121A      0.136222   122A      0.139624  
     123A      0.140002   124A      0.140598   125A      0.142216  
     126A      0.142976   127A      0.145448   128A      0.148426  
     129A      0.149387   130A      0.150112   131A      0.150557  
     132A      0.153003   133A      0.153565   134A      0.156551  
     135A      0.157010   136A      0.158783   137A      0.160176  
     138A      0.161839   139A      0.165300   140A      0.166618  
     141A      0.167104   142A      0.169114   143A      0.169877  
     144A      0.170586   145A      0.172913   146A      0.174192  
     147A      0.175121   148A      0.175863   149A      0.176330  
     150A      0.177744   151A      0.177887   152A      0.182706  
     153A      0.183880   154A      0.184564   155A      0.189985  
     156A      0.192175   157A      0.195028   158A      0.196578  
     159A      0.200611   160A      0.201524   161A      0.201616  
     162A      0.202668   163A      0.203873   164A      0.204762  
     165A      0.207740   166A      0.208450   167A      0.209537  
     168A      0.210566   169A      0.211685   170A      0.212098  
     171A      0.212873   172A      0.218665   173A      0.219253  
     174A      0.220480   175A      0.220888   176A      0.221449  
     177A      0.224406   178A      0.226025   179A      0.226588  
     180A      0.227246   181A      0.228308   182A      0.229328  
     183A      0.234215   184A      0.234800   185A      0.237989  
     186A      0.239489   187A      0.243276   188A      0.243780  
     189A      0.246486   190A      0.252909   191A      0.255903  
     192A      0.257435   193A      0.259338   194A      0.259622  
     195A      0.261426   196A      0.262066   197A      0.265257  
     198A      0.265657   199A      0.267482   200A      0.269154  
     201A      0.271370   202A      0.273187   203A      0.274596  
     204A      0.275073   205A      0.275611   206A      0.280354  
     207A      0.281519   208A      0.282068   209A      0.283100  
     210A      0.284383   211A      0.286067   212A      0.286359  
     213A      0.288798   214A      0.289985   215A      0.291163  
     216A      0.293164   217A      0.296740   218A      0.298669  
     219A      0.300909   220A      0.303913   221A      0.305416  
     222A      0.308084   223A      0.310840   224A      0.311079  
     225A      0.312109   226A      0.318749   227A      0.319646  
     228A      0.322280   229A      0.322890   230A      0.327019  
     231A      0.328962   232A      0.331347   233A      0.334671  
     234A      0.336656   235A      0.339928   236A      0.341453  
     237A      0.342979   238A      0.344190   239A      0.345437  
     240A      0.346464   241A      0.349110   242A      0.350927  
     243A      0.353106   244A      0.356103   245A      0.357559  
     246A      0.359634   247A      0.360415   248A      0.362314  
     249A      0.363550   250A      0.366103   251A      0.367488  
     252A      0.371300   253A      0.373651   254A      0.374433  
     255A      0.376955   256A      0.377487   257A      0.378676  
     258A      0.379604   259A      0.380071   260A      0.383269  
     261A      0.383906   262A      0.386190   263A      0.387215  
     264A      0.389042   265A      0.390712   266A      0.391387  
     267A      0.393960   268A      0.395093   269A      0.398536  
     270A      0.399578   271A      0.400865   272A      0.402123  
     273A      0.403000   274A      0.410092   275A      0.412040  
     276A      0.415016   277A      0.416291   278A      0.419560  
     279A      0.420040   280A      0.420965   281A      0.424834  
     282A      0.428287   283A      0.431422   284A      0.433334  
     285A      0.436655   286A      0.438379   287A      0.440196  
     288A      0.441993   289A      0.442416   290A      0.445204  
     291A      0.446814   292A      0.447826   293A      0.449289  
     294A      0.452534   295A      0.453764   296A      0.454992  
     297A      0.458416   298A      0.459287   299A      0.460684  
     300A      0.464535   301A      0.466399   302A      0.466982  
     303A      0.467474   304A      0.471894   305A      0.473022  
     306A      0.478138   307A      0.483075   308A      0.484879  
     309A      0.485888   310A      0.489005   311A      0.489771  
     312A      0.494560   313A      0.495799   314A      0.496965  
     315A      0.497542   316A      0.499809   317A      0.500964  
     318A      0.502381   319A      0.503389   320A      0.504834  
     321A      0.505780   322A      0.514490   323A      0.516092  
     324A      0.518518   325A      0.519723   326A      0.522709  
     327A      0.525647   328A      0.528348   329A      0.531693  
     330A      0.532977   331A      0.533846   332A      0.535579  
     333A      0.539692   334A      0.541782   335A      0.545570  
     336A      0.548245   337A      0.550191   338A      0.550844  
     339A      0.553179   340A      0.553827   341A      0.557021  
     342A      0.558918   343A      0.559383   344A      0.562822  
     345A      0.563398   346A      0.568633   347A      0.570286  
     348A      0.571513   349A      0.573790   350A      0.575702  
     351A      0.582720   352A      0.584968   353A      0.589445  
     354A      0.591044   355A      0.592511   356A      0.596569  
     357A      0.598086   358A      0.599060   359A      0.599255  
     360A      0.601400   361A      0.602158   362A      0.603657  
     363A      0.608693   364A      0.609059   365A      0.611246  
     366A      0.611917   367A      0.615840   368A      0.616334  
     369A      0.617672   370A      0.620296   371A      0.621099  
     372A      0.624736   373A      0.640335   374A      0.641316  
     375A      0.645237   376A      0.648398   377A      0.650308  
     378A      0.654891   379A      0.656416   380A      0.665668  
     381A      0.666024   382A      0.669895   383A      0.672539  
     384A      0.674364   385A      0.675495   386A      0.676747  
     387A      0.678003   388A      0.678562   389A      0.680049  
     390A      0.681169   391A      0.681530   392A      0.683546  
     393A      0.683772   394A      0.685389   395A      0.689746  
     396A      0.695702   397A      0.701448   398A      0.701868  
     399A      0.705883   400A      0.708295   401A      0.709411  
     402A      0.711046   403A      0.715442   404A      0.720984  
     405A      0.722704   406A      0.723235   407A      0.724906  
     408A      0.742664   409A      0.748711   410A      0.749998  
     411A      0.752854   412A      0.764356   413A      0.765089  
     414A      0.768446   415A      0.769964   416A      0.774385  
     417A      0.783568   418A      0.785770   419A      0.786280  
     420A      0.791661   421A      0.793061   422A      0.796465  
     423A      0.798437   424A      0.800448   425A      0.803455  
     426A      0.807891   427A      0.809092   428A      0.813823  
     429A      0.814324   430A      0.818402   431A      0.824028  
     432A      0.824691   433A      0.830728   434A      0.835166  
     435A      0.841137   436A      0.851869   437A      0.854500  
     438A      0.859404   439A      0.869220   440A      0.873214  
     441A      0.875552   442A      0.880601   443A      0.881148  
     444A      0.891312   445A      0.892307   446A      0.895896  
     447A      0.911559   448A      0.913334   449A      0.917320  
     450A      0.919281   451A      0.921291   452A      0.921821  
     453A      0.925425   454A      0.927125   455A      0.931124  
     456A      0.939386   457A      0.944546   458A      0.948876  
     459A      0.971297   460A      0.972731   461A      0.975495  
     462A      0.979483   463A      0.980923   464A      0.986852  
     465A      0.990947   466A      1.005293   467A      1.011559  
     468A      1.014438   469A      1.019389   470A      1.022035  
     471A      1.026964   472A      1.039268   473A      1.050893  
     474A      1.055855   475A      1.057856   476A      1.069528  
     477A      1.070661   478A      1.075850   479A      1.082361  
     480A      1.083921   481A      1.092624   482A      1.094748  
     483A      1.097443   484A      1.097525   485A      1.099982  
     486A      1.107590   487A      1.108515   488A      1.113226  
     489A      1.121759   490A      1.128076   491A      1.131575  
     492A      1.139432   493A      1.151762   494A      1.155603  
     495A      1.166344   496A      1.167224   497A      1.177898  
     498A      1.183472   499A      1.202249   500A      1.210494  
     501A      1.212076   502A      1.213728   503A      1.214815  
     504A      1.216380   505A      1.221226   506A      1.224285  
     507A      1.236175   508A      1.237392   509A      1.238225  
     510A      1.242361   511A      1.275331   512A      1.278866  
     513A      1.294927   514A      1.351860   515A      1.353019  
     516A      1.354554   517A      1.361851   518A      1.366888  
     519A      1.367712   520A      1.370825   521A      1.374818  
     522A      1.388053   523A      1.397565   524A      1.403241  
     525A      1.409555   526A      1.430649   527A      1.444825  
     528A      1.454611   529A      1.462939   530A      1.467293  
     531A      1.471275   532A      1.479728   533A      1.483123  
     534A      1.485797   535A      1.494149   536A      1.508456  
     537A      1.511521   538A      1.518316   539A      1.531106  
     540A      1.539886   541A      1.551452   542A      1.562470  
     543A      1.565162   544A      1.571195   545A      1.581648  
     546A      1.585839   547A      1.590252   548A      1.598183  
     549A      1.600019   550A      1.605579   551A      1.609897  
     552A      1.620424   553A      1.627363   554A      1.633696  
     555A      1.646070   556A      1.653616   557A      1.659111  
     558A      1.663815   559A      1.667328   560A      1.669871  
     561A      1.670642   562A      1.679336   563A      1.679757  
     564A      1.683803   565A      1.688240   566A      1.690904  
     567A      1.695357   568A      1.697174   569A      1.698821  
     570A      1.706179   571A      1.712644   572A      1.716176  
     573A      1.720769   574A      1.721078   575A      1.729838  
     576A      1.735453   577A      1.738346   578A      1.739704  
     579A      1.739824   580A      1.740746   581A      1.744323  
     582A      1.744965   583A      1.745639   584A      1.754666  
     585A      1.758321   586A      1.763414   587A      1.768327  
     588A      1.769718   589A      1.777858   590A      1.781180  
     591A      1.781592   592A      1.783697   593A      1.786738  
     594A      1.787763   595A      1.792643   596A      1.795495  
     597A      1.798673   598A      1.799278   599A      1.799922  
     600A      1.801701   601A      1.804261   602A      1.807145  
     603A      1.809989   604A      1.813793   605A      1.814477  
     606A      1.814862   607A      1.820211   608A      1.822898  
     609A      1.830756   610A      1.832720   611A      1.833221  
[...]
     814A      1.757100   815A      1.760334   816A      1.763064  
     817A      1.764022   818A      1.768534   819A      1.777624  
     820A      1.778141   821A      1.791420   822A      1.792774  
     823A      1.801974   824A      1.807345   825A      1.812991  
     826A      1.815635   827A      1.818618   828A      1.819578  
     829A      1.821471   830A      1.826509   831A      1.827232  
     832A      1.832122   833A      1.835644   834A      1.836112  
     835A      1.840835   836A      1.845021   837A      1.851080  
     838A      1.856314   839A      1.858062   840A      1.863583  
     841A      1.865106   842A      1.866853   843A      1.872103  
     844A      1.874395   845A      1.876659   846A      1.877557  
     847A      1.879338   848A      1.891599   849A      1.892061  
     850A      1.899400   851A      1.903545   852A      1.904075  
     853A      1.906542   854A      1.907215   855A      1.908199  
     856A      1.915217   857A      1.916733   858A      1.919051  
     859A      1.920432   860A      1.921352   861A      1.932892  
     862A      1.934387   863A      1.936317   864A      1.940348  
     865A      1.943647   866A      1.944615   867A      1.945304  
     868A      1.947161   869A      1.948783   870A      1.954480  
     871A      1.956994   872A      1.957772   873A      1.961820  
     874A      1.963815   875A      1.974370   876A      1.978803  
     877A      1.985170   878A      1.989726   879A      1.993479  
     880A      1.996262   881A      1.997777   882A      2.000162  
     883A      2.002220   884A      2.007719   885A      2.009633  
     886A      2.011727   887A      2.015317   888A      2.018204  
     889A      2.019734   890A      2.028260   891A      2.030171  
     892A      2.031123   893A      2.034057   894A      2.035671  
     895A      2.037271   896A      2.038669   897A      2.043533  
     898A      2.049322   899A      2.052204   900A      2.054718  
     901A      2.057247   902A      2.061355   903A      2.064615  
     904A      2.065007   905A      2.069548   906A      2.071756  
     907A      2.073008   908A      2.075465   909A      2.076843  
     910A      2.077991   911A      2.085104   912A      2.088621  
     913A      2.090022   914A      2.092896   915A      2.095611  
     916A      2.097125   917A      2.098206   918A      2.099148  
     919A      2.101306   920A      2.105643   921A      2.107850  
     922A      2.109167   923A      2.109393   924A      2.111820  
     925A      2.115710   926A      2.116442   927A      2.119022  
     928A      2.119513   929A      2.121058   930A      2.122534  
     931A      2.127430   932A      2.127908   933A      2.130751  
     934A      2.131403   935A      2.133914   936A      2.135176  
     937A      2.136970   938A      2.140135   939A      2.142655  
     940A      2.145938   941A      2.146780   942A      2.149304  
     943A      2.150563   944A      2.156332   945A      2.161508  
     946A      2.164508   947A      2.169707   948A      2.171485  
     949A      2.176612   950A      2.180303   951A      2.182575  
     952A      2.184244   953A      2.187898   954A      2.189577  
     955A      2.194059   956A      2.196297   957A      2.197818  
     958A      2.200511   959A      2.208682   960A      2.217852  
     961A      2.220620   962A      2.222578   963A      2.225083  
     964A      2.228734   965A      2.231904   966A      2.234361  
     967A      2.236381   968A      2.239670   969A      2.243526  
     970A      2.244234   971A      2.245246   972A      2.246415  
     973A      2.247640   974A      2.252519   975A      2.261147  
     976A      2.264113   977A      2.269023   978A      2.270470  
     979A      2.271424   980A      2.271833   981A      2.272729  
     982A      2.277773   983A      2.280582   984A      2.283886  
     985A      2.289942   986A      2.291327   987A      2.302068  
     988A      2.308105   989A      2.310732   990A      2.316280  
     991A      2.323182   992A      2.327862   993A      2.330503  
     994A      2.336072   995A      2.338683   996A      2.344156  
     997A      2.349605   998A      2.352205   999A      2.357033  
    1000A      2.358966  1001A      2.361513  1002A      2.365456  
    1003A      2.367932  1004A      2.376958  1005A      2.384751  
    1006A      2.388799  1007A      2.401476  1008A      2.410414  
    1009A      2.414760  1010A      2.417254  1011A      2.424672  
    1012A      2.424900  1013A      2.425847  1014A      2.428974  
    1015A      2.436989  1016A      2.447055  1017A      2.459432  
    1018A      2.464212  1019A      2.473760  1020A      2.477050  
    1021A      2.481949  1022A      2.485829  1023A      2.487906  
    1024A      2.497168  1025A      2.501641  1026A      2.508734  
    1027A      2.510093  1028A      2.517126  1029A      2.520029  
    1030A      2.531224  1031A      2.538817  1032A      2.540560  
    1033A      2.544905  1034A      2.551507  1035A      2.555815  
    1036A      2.556638  1037A      2.559558  1038A      2.560076  
    1039A      2.560711  1040A      2.562093  1041A      2.569418  
    1042A      2.572441  1043A      2.573889  1044A      2.574765  
    1045A      2.578369  1046A      2.580903  1047A      2.582959  
    1048A      2.590251  1049A      2.593346  1050A      2.602351  
    1051A      2.604309  1052A      2.610991  1053A      2.615803  
    1054A      2.620012  1055A      2.624019  1056A      2.634797  
    1057A      2.637826  1058A      2.641070  1059A      2.645982  
    1060A      2.653708  1061A      2.658168  1062A      2.660904  
    1063A      2.666156  1064A      2.668982  1065A      2.674661  
    1066A      2.686498  1067A      2.688868  1068A      2.697133  
    1069A      2.697754  1070A      2.703540  1071A      2.706659  
    1072A      2.710183  1073A      2.712667  1074A      2.714526  
    1075A      2.715294  1076A      2.718661  1077A      2.720092  
    1078A      2.724573  1079A      2.728140  1080A      2.738092  
    1081A      2.745730  1082A      2.762622  1083A      2.766013  
    1084A      2.766670  1085A      2.783910  1086A      2.787408  
    1087A      2.795414  1088A      2.803076  1089A      2.806988  
    1090A      2.818884  1091A      2.830012  1092A      2.833280  
    1093A      2.837403  1094A      2.844630  1095A      2.850931  
    1096A      2.856822  1097A      2.858865  1098A      2.859811  
    1099A      2.862130  1100A      2.867435  1101A      2.879937  
    1102A      2.889543  1103A      2.903939  1104A      2.920059  
    1105A      2.923160  1106A      2.932754  1107A      2.943094  
    1108A      2.946507  1109A      2.951922  1110A      2.953942  
    1111A      2.965432  1112A      2.984565  1113A      2.994416  
    1114A      3.017776  1115A      3.021754  1116A      3.026314  
    1117A      3.029085  1118A      3.041849  1119A      3.047231  
    1120A      3.055308  1121A      3.061619  1122A      3.065581  
    1123A      3.070468  1124A      3.073989  1125A      3.087905  
    1126A      3.093850  1127A      3.115777  1128A      3.125486  
    1129A      3.134811  1130A      3.135405  1131A      3.138087  
    1132A      3.140062  1133A      3.145638  1134A      3.148413  
    1135A      3.149319  1136A      3.151595  1137A      3.152528  
    1138A      3.155086  1139A      3.161778  1140A      3.171845  
    1141A      3.175193  1142A      3.182935  1143A      3.190692  
    1144A      3.196017  1145A      3.211228  1146A      3.214771  
    1147A      3.226413  1148A      3.240074  1149A      3.241295  
    1150A      3.270975  1151A      3.282249  1152A      3.285976  
    1153A      3.291976  1154A      3.303159  1155A      3.305668  
    1156A      3.321741  1157A      3.329185  1158A      3.392769  
    1159A      3.424596  1160A      3.425298  1161A      3.446711  
    1162A      3.487077  1163A      3.497139  1164A      3.502940  
    1165A      3.545462  1166A      3.573652  1167A      3.589840  
    1168A      3.599381  1169A      3.625402  1170A      3.637157  
    1171A      3.643948  1172A      3.661785  1173A      3.681709  
    1174A      3.690417  1175A      3.697274  1176A      3.700383  
    1177A      3.770205  1178A      3.800999  1179A      3.810009  
    1180A      3.835603  1181A      3.858392  1182A      3.872641  
    1183A      3.877133  1184A      3.899699  1185A      3.916640  
    1186A      3.917600  1187A      3.989701  1188A      4.012518  
    1189A      4.045110  1190A      4.111513  1191A      4.139959  
    1192A      4.240307  1193A      4.255733  1194A      4.288376  
    1195A      4.469525  1196A      4.472966  1197A      4.545978  
    1198A      4.842952  1199A      4.872643  1200A      4.922127  
    1201A      4.951236  1202A      4.993168  1203A      5.097618  
    1204A      5.106865  1205A      5.130746  1206A      5.158106  
    1207A      5.270457  1208A      5.427125  1209A      5.452836  
    1210A      5.798593  1211A      5.818753  1212A      6.094379  
    1213A     18.210727  1214A     18.500141  1215A     18.521909  
    1216A     18.635755  1217A     18.867286  1218A     25.361901  
    1219A     25.400221  

    Final Occupation by Irrep:
              A 
    DOCC [   171 ]
    NA   [   171 ]
    NB   [   171 ]

  @DF-RHF Final Energy: -2055.89600597794515

   => Energetics <=

    Nuclear Repulsion Energy =           6452.5568002797781446
    One-Electron Energy =              -15636.5400627188137150
    Two-Electron Energy =                7128.0872564610917834
    Total Energy =                      -2055.8960059779446965

Computation Completed


Properties will be evaluated at   0.000000,   0.000000,   0.000000 [a0]

Properties computed using the SCF density matrix


 Multipole Moments:

 ------------------------------------------------------------------------------------
     Multipole            Electronic (a.u.)      Nuclear  (a.u.)        Total (a.u.)
 ------------------------------------------------------------------------------------

 L = 1.  Multiply by 2.5417464519 to convert [e a0] to [Debye]
 Dipole X            :         -0.0001792           -0.0000085           -0.0001877
 Dipole Y            :          0.0008338            0.0000167            0.0008505
 Dipole Z            :       -295.9311050          295.9302530           -0.0008520
 Magnitude           :                                                    0.0012184

 ------------------------------------------------------------------------------------

*** tstop() called on n2cn0204 at Sat Feb  3 16:39:06 2024
Module time:
	user time   =    3546.12 seconds =      59.10 minutes
	system time =     221.02 seconds =       3.68 minutes
	total time  =        437 seconds =       7.28 minutes
Total time:
	user time   =   10574.01 seconds =     176.23 minutes
	system time =     774.21 seconds =      12.90 minutes
	total time  =       9754 seconds =     162.57 minutes
  Constructing Basis Sets for SAPT...

   => Loading Basis Set <=

    Name: (JUN-CC-PVDZ AUX)
    Role: RIFIT
    Keyword: DF_BASIS_SAPT
    atoms 1-2, 4-5, 10, 17-70 entry C          line   100 file /opt/software/pc2/EB-SW/software/PSI4/1.9-foss-2022a/share/psi4/basis/jun-cc-pvdz-ri.gbs 
    atoms 3, 6                entry N          line   144 file /opt/software/pc2/EB-SW/software/PSI4/1.9-foss-2022a/share/psi4/basis/jun-cc-pvdz-ri.gbs 
    atoms 7-9, 11-16, 71-88   entry H          line    30 file /opt/software/pc2/EB-SW/software/PSI4/1.9-foss-2022a/share/psi4/basis/jun-cc-pvdz-ri.gbs 

   => Loading Basis Set <=

    Name: (JUN-CC-PVDZ AUX)
    Role: JKFIT
    Keyword: DF_BASIS_ELST
    atoms 1-2, 4-5, 10, 17-70 entry C          line   146 file /opt/software/pc2/EB-SW/software/PSI4/1.9-foss-2022a/share/psi4/basis/jun-cc-pvdz-jkfit.gbs 
    atoms 3, 6                entry N          line   202 file /opt/software/pc2/EB-SW/software/PSI4/1.9-foss-2022a/share/psi4/basis/jun-cc-pvdz-jkfit.gbs 
    atoms 7-9, 11-16, 71-88   entry H          line    70 file /opt/software/pc2/EB-SW/software/PSI4/1.9-foss-2022a/share/psi4/basis/jun-cc-pvdz-jkfit.gbs 


  //>>>>>>>>>>>>>>>>>>>>>>>>>>>>>>>>>>>//
  //               SSAPT0              //
  //<<<<<<<<<<<<<<<<<<<<<<<<<<<<<<<<<<<//


*** tstart() called on n2cn0204
*** at Sat Feb  3 16:39:07 2024

        SAPT0  
    Ed Hohenstein
     6 June 2009

      Orbital Information
  --------------------------
    NSO        =      1233
    NMO        =      1219
    NRI        =      4343
    NRI (Elst) =      5440
    NOCC A     =        26
    NOCC B     =       171
    FOCC A     =         7
    FOCC B     =        54
    NVIR A     =      1193
    NVIR B     =      1048

    Elst10,r            =    -0.039108017676 [Eh]
    Exch10              =     0.098248812572 [Eh]
    Exch10 (S^2)        =     0.095872951677 [Eh]

    Iter     Energy [mEh]          dE [mEh]         Residual      Time [s]
       1     -12.11517514      12.115175138      18.161573053            25
       2     -15.01381488       2.898639743       5.794278179            43
       3     -15.32147049       0.307655609       1.129228621            61
       4     -15.30109304      -0.020377451       0.391162359            79
       5     -15.28795932      -0.013133715       0.091689152            97
       6     -15.29111143       0.003152107       0.043282757           113
       7     -15.29103061      -0.000080818       0.020612693           130
       8     -15.29065270      -0.000377917       0.004664385           146
       9     -15.29064441      -0.000008281       0.001416505           163
      10     -15.29066005       0.000015634       0.000382248           181
      11     -15.29066105       0.000000996       0.000093761           200
      12     -15.29066033      -0.000000718       0.000032219           219
      13     -15.29066012      -0.000000203       0.000008663           237
      14     -15.29066023       0.000000101       0.000002538           254
      15     -15.29066022      -0.000000006       0.000000791           272

    CHF Iterations converged


    Iter     Energy [mEh]          dE [mEh]         Residual      Time [s]
       1     -43.13095165      43.130951654      94.938702867            32
       2     -34.05553411      -9.075417547      15.993342174            52
       3     -35.48854602       1.433011908       7.184682479            73
       4     -36.58863659       1.100090579       1.390539799            90
       5     -36.60911932       0.020482721       0.542398183           108
       6     -36.56864979      -0.040469524       0.241354184           127
       7     -36.56459632      -0.004053476       0.112532823           147
       8     -36.57073067       0.006134352       0.047498390           168
       9     -36.57168219       0.000951525       0.018730321           188
      10     -36.57103781      -0.000644379       0.008496905           208
      11     -36.57089398      -0.000143836       0.004001753           228
      12     -36.57097751       0.000083537       0.001966087           247
      13     -36.57102812       0.000050606       0.000805593           267
      14     -36.57100986      -0.000018260       0.000467044           288
      15     -36.57100077      -0.000009091       0.000237116           308
      16     -36.57100435       0.000003576       0.000147298           328
      17     -36.57100760       0.000003250       0.000071797           347
      18     -36.57100680      -0.000000799       0.000041285           368
      19     -36.57100604      -0.000000760       0.000023444           388
      20     -36.57100610       0.000000068       0.000013216           407
      21     -36.57100639       0.000000282       0.000006218           427
      22     -36.57100638      -0.000000007       0.000003361           446
      23     -36.57100633      -0.000000054       0.000001858           466
      24     -36.57100631      -0.000000013       0.000000903           486

    CHF Iterations converged

    Ind20,r (A<-B)      =    -0.015290660219 [Eh]
    Ind20,r (B<-A)      =    -0.036571006313 [Eh]
    Ind20,r             =    -0.051861666533 [Eh]
    Exch-Ind20,r (A<-B) =     0.014129549650 [Eh]
    Exch-Ind20,r (B<-A) =     0.014082647010 [Eh]
    Exch-Ind20,r        =     0.028212196659 [Eh]
    Disp20              =    -0.059722920032 [Eh]
    Disp20 (SS)         =    -0.029861460016 [Eh]
    Disp20 (OS)         =    -0.029861460016 [Eh]
    Exch-Disp20         =     0.007170153979 [Eh]
    Exch-Disp20 (SS)    =     0.004218157248 [Eh]
    Exch-Disp20 (OS)    =     0.002951996731 [Eh]

    SAPT Results 
  --------------------------------------------------------------------------------------------------------
    Electrostatics                -39.10801768 [mEh]     -24.54065159 [kcal/mol]    -102.67808626 [kJ/mol]
      Elst10,r                    -39.10801768 [mEh]     -24.54065159 [kcal/mol]    -102.67808626 [kJ/mol]

    Exchange                       98.24881257 [mEh]      61.65206068 [kcal/mol]     257.95222187 [kJ/mol]
      Exch10                       98.24881257 [mEh]      61.65206068 [kcal/mol]     257.95222187 [kJ/mol]
      Exch10(S^2)                  95.87295168 [mEh]      60.16118546 [kcal/mol]     251.71439995 [kJ/mol]

    Induction                     -34.83469565 [mEh]     -21.85910153 [kcal/mol]     -91.45848082 [kJ/mol]
      Ind20,r                     -51.86166653 [mEh]     -32.54368708 [kcal/mol]    -136.16278672 [kJ/mol]
      Exch-Ind20,r                 28.21219666 [mEh]      17.70342068 [kcal/mol]      74.07111212 [kJ/mol]
      delta HF,r (2)              -11.18522577 [mEh]      -7.01883514 [kcal/mol]     -29.36680622 [kJ/mol]

    Dispersion                    -52.55276605 [mEh]     -32.97735857 [kcal/mol]    -137.97726826 [kJ/mol]
      Disp20                      -59.72292003 [mEh]     -37.47669812 [kcal/mol]    -156.80250494 [kJ/mol]
      Exch-Disp20                   7.17015398 [mEh]       4.49933955 [kcal/mol]      18.82523668 [kJ/mol]
      Disp20 (SS)                 -29.86146002 [mEh]     -18.73834906 [kcal/mol]     -78.40125247 [kJ/mol]
      Disp20 (OS)                 -29.86146002 [mEh]     -18.73834906 [kcal/mol]     -78.40125247 [kJ/mol]
      Exch-Disp20 (SS)              4.21815725 [mEh]       2.64693364 [kcal/mol]      11.07477033 [kJ/mol]
      Exch-Disp20 (OS)              2.95199673 [mEh]       1.85240592 [kcal/mol]       7.75046635 [kJ/mol]

  Total HF                         24.30609925 [mEh]      15.25230755 [kcal/mol]      63.81565478 [kJ/mol]
  Total SAPT0                     -28.24666681 [mEh]     -17.72505102 [kcal/mol]     -74.16161348 [kJ/mol]

  Special recipe for scaled SAPT0 (see Manual):
    Electrostatics sSAPT0         -39.10801768 [mEh]     -24.54065159 [kcal/mol]    -102.67808626 [kJ/mol]
    Exchange sSAPT0                98.24881257 [mEh]      61.65206068 [kcal/mol]     257.95222187 [kJ/mol]
    Induction sSAPT0              -32.68488097 [mEh]     -20.51007246 [kcal/mol]     -85.81414316 [kJ/mol]
    Dispersion sSAPT0             -52.00638881 [mEh]     -32.63450167 [kcal/mol]    -136.54275501 [kJ/mol]
  Total sSAPT0                    -25.55047488 [mEh]     -16.03316505 [kcal/mol]     -67.08276256 [kJ/mol]
  --------------------------------------------------------------------------------------------------------

*** tstop() called on n2cn0204 at Sat Feb  3 17:17:30 2024
Module time:
	user time   =   12246.33 seconds =     204.11 minutes
	system time =     873.60 seconds =      14.56 minutes
	total time  =       2303 seconds =      38.38 minutes
Total time:
	user time   =   22821.22 seconds =     380.35 minutes
	system time =    1647.81 seconds =      27.46 minutes
	total time  =      12058 seconds =     200.97 minutes

    Psi4 stopped on: Saturday, 03 February 2024 05:17PM
    Psi4 wall time for execution: 3:21:00.82

*** Psi4 exiting successfully. Buy a developer a beer!
