
    -----------------------------------------------------------------------
          Psi4: An Open-Source Ab Initio Electronic Structure Package
                               Psi4 1.9 release

                         Git: Rev {} zzzzzzz 


    D. G. A. Smith, L. A. Burns, A. C. Simmonett, R. M. Parrish,
    M. C. Schieber, R. Galvelis, P. Kraus, H. Kruse, R. Di Remigio,
    A. Alenaizan, A. M. James, S. Lehtola, J. P. Misiewicz, M. Scheurer,
    R. A. Shaw, J. B. Schriber, Y. Xie, Z. L. Glick, D. A. Sirianni,
    J. S. O'Brien, J. M. Waldrop, A. Kumar, E. G. Hohenstein,
    B. P. Pritchard, B. R. Brooks, H. F. Schaefer III, A. Yu. Sokolov,
    K. Patkowski, A. E. DePrince III, U. Bozkaya, R. A. King,
    F. A. Evangelista, J. M. Turney, T. D. Crawford, C. D. Sherrill,
    J. Chem. Phys. 152(18) 184108 (2020). https://doi.org/10.1063/5.0006002

                            Additional Code Authors
    E. T. Seidl, C. L. Janssen, E. F. Valeev, M. L. Leininger,
    J. F. Gonthier, R. M. Richard, H. R. McAlexander, M. Saitow, X. Wang,
    P. Verma, M. H. Lechner, A. Jiang, S. Behnle, A. G. Heide,
    M. F. Herbst, and D. L. Poole

             Previous Authors, Complete List of Code Contributors,
                       and Citations for Specific Modules
    https://github.com/psi4/psi4/blob/master/codemeta.json
    https://github.com/psi4/psi4/graphs/contributors
    http://psicode.org/psi4manual/master/introduction.html#citing-psifour

    -----------------------------------------------------------------------


    Psi4 started on: Monday, 22 January 2024 07:59AM

    Process ID: 2833221
    Host:       d-18-8-4
    PSIDATADIR: /home/gridsan/tfroembgen/.conda/envs/psi4test/share/psi4
    Memory:     500.0 MiB
    Threads:    12
    
  ==> Input File <==

--------------------------------------------------------------------------
memory 32 GB # how much memory is available ! Depends on the nodes/cores !

molecule dimer {
# monomer A
-1 1    # Charge and multiplicity
B -1.977592e-04  2.742729e-04 -7.599966
F  1.123153e-16  1.430594e-17 -6.187181
F  1.147860e+00  6.757812e-01 -8.071107
F  1.191806e-02 -1.332011e+00 -8.070905
F -1.159666e+00  6.560735e-01 -8.070826
--
# monomer B
0 1     # Charge and multiplicity
C   1.22531237526482      0.70753866091955      0.00613762728373
C   1.22532433589282     -0.70753852257020     -0.00619318228664
C   -0.00000567409046      1.41496628609039     -0.00672680580738
C   2.45644923379077      1.41832825917820      0.00902448468363
C   0.00001130712078     -1.41497612663474      0.00347275151708
C   -1.22530046906674      0.70754574598412      0.00838914760619
C   2.45643823516184     -1.41832293188077     -0.00843833914343
C   -0.00000085313587      2.83680140328112     -0.00913035594137
C   3.68182717731192      0.70931832800114     -0.00808954934571
C   2.45512052870677      2.83422403348893     -0.00819210630633
C   3.68182158506039     -0.70933346742900      0.00798293467272
C   -1.22531311884624     -0.70752714354401     -0.00512042085974
C   1.22670006104402      3.54346985599427      0.00816696660346
C   0.00000526469929     -2.83678176723568      0.00832091913869
C   -2.45643555300670      1.41831729028492      0.00842454345199
C   2.45512389762097     -2.83422965658853      0.00783102630520
C   -1.22671388474763      3.54346943575023      0.00827029982280
C   4.91451777504333      1.42717324448953     -0.00160886631602
C   3.69315067131765      3.54279566454522     -0.00155906667985
C   -2.45643712022637     -1.41831290883911     -0.00846337726810
C   1.22670532178455     -3.54347386990643     -0.00780316414624
C   -2.45512491866593      2.83421703463423     -0.00818572995999
C   4.91452486062398     -1.42718653794377      0.00136387641845
C   1.22142509354026      4.97013443726031      0.00150231067809
C   4.89300870916237      2.82518837202648     -0.00039219795739
C   -1.22669652864725     -3.54347062507680     -0.00753595973677
C   -3.68181849668397      0.70932533873199     -0.00807686886569
C   3.69314758099218     -3.54280096939050      0.00148176697923
C   -1.22143177215231      4.97012866986289      0.00168580605083
C   6.13477145276790      0.68054831910577     -0.00083909176631
C   3.65678936045204      4.97295361556775     -0.00065042889723
C   -2.45512642789169     -2.83421472106065      0.00758666850712
C   -3.68181869921921     -0.70932533146830      0.00810055625144
C   4.89301309775526     -2.82519973363176      0.00021895393805
C   -0.00000059327114      5.65044773803267      0.00045449734393
C   6.13477559217374     -0.68055448207492      0.00042622874941
C   2.47813196269732      5.65357712333155      0.00063835075260
C   1.22142288457925     -4.97012668293268     -0.00129718634452
C   -3.69316190412301      3.54279732619245     -0.00139355922051
C   -1.22142804110313     -4.97011793159564     -0.00140994817719
C   -4.91452132810043      1.42717581899491     -0.00153192130862
C   3.65678749952045     -4.97295485423912      0.00080007163680
C   -2.47813805026426      5.65357479452875      0.00092287576113
C   -3.69314125872231     -3.54278984697859      0.00136564082345
C   -4.91451200321153     -1.42718062802730      0.00139857359209
C   -0.00000552908399     -5.65043791501335      0.00005899322272
C   -4.89302000425900      2.82518897091939     -0.00040227981744
C   2.47812647313991     -5.65357317188818     -0.00029052915548
C   -3.65679823041642      4.97295655404175     -0.00047374852278
C   -4.89299899901461     -2.82519139505969      0.00006491824035
C   -2.47812801824129     -5.65356579800621     -0.00056571680280
C   -6.13477002348955      0.68054913825639     -0.00086464346868
C   -3.65678835334731     -4.97294365097028      0.00058578382008
C   -6.13476456307132     -0.68055354348201      0.00040575295444
H   5.83528897565761      3.36927626695423      0.00396712770529
H   7.07385965258860      1.22821762089947     -0.00037744837300
H   4.60066374401555      5.51238117445323     -0.00014522814529
H   5.83528386714679     -3.36930568472863     -0.00423551337640
H   -0.00001167146422      6.73853104613662     -0.00389474766392
H   7.07386165167227     -1.22822657074368     -0.00008250934481
H   2.47331421164041      6.74068466339473      0.00017162982210
H   4.60066897122302     -5.51237575717576      0.00039007446835
H   -2.47331820069565      6.74068209160650      0.00047297644710
H   -0.00000978838621     -6.73852780445195      0.00458867820736
H   -5.83530143450167      3.36927132229595      0.00410314985360
H   2.47330840367253     -6.74068500242887      0.00027980126949
H   -4.60067436136587      5.51237839860371      0.00002010017831
H   -5.83527902699321     -3.36928859177951     -0.00451481925734
H   -2.47329986759855     -6.74067870613986     -0.00016951527498
H   -7.07385728692578      1.22822084484047     -0.00046143985387
H   -4.60067330624313     -5.51236229778631      0.00021776644566
H   -7.07385645456741     -1.22822025997701     -0.00017736581114

    units angstrom      # Angstroms are the default
    no_reorient         # Geometry fixed, default
    symmetry c1         # C1 symmetry, default
}

set {
    scf_type DF         # Density fitting, faster than exact integrals
    freeze_core True    # Freeze core electrons
    basis jun-cc-pVDZ   # Jun-cc-pVDZ basis set, recommended for sSAPT0 in https://doi.org/10.1063/1.4867135
}

energy('ssapt0')        # Compute sSAPT0 energy, includes also SAPT0
--------------------------------------------------------------------------

  Memory set to  29.802 GiB by Python driver.

Scratch directory: /state/partition1/slurm_tmp/24790917.4294967291.0/
   => Loading Basis Set <=

    Name: JUN-CC-PVDZ
    Role: ORBITAL
    Keyword: BASIS
    atoms 1     entry B          line   130 file /home/gridsan/tfroembgen/.conda/envs/psi4test/share/psi4/basis/jun-cc-pvdz.gbs 
    atoms 2-5   entry F          line   266 file /home/gridsan/tfroembgen/.conda/envs/psi4test/share/psi4/basis/jun-cc-pvdz.gbs 
    atoms 6-59  entry C          line   164 file /home/gridsan/tfroembgen/.conda/envs/psi4test/share/psi4/basis/jun-cc-pvdz.gbs 
    atoms 60-77 entry H          line    36 file /home/gridsan/tfroembgen/.conda/envs/psi4test/share/psi4/basis/jun-cc-pvdz.gbs 

   => Loading Basis Set <=

    Name: JUN-CC-PVDZ
    Role: ORBITAL
    Keyword: BASIS
    atoms 1     entry B          line   130 file /home/gridsan/tfroembgen/.conda/envs/psi4test/share/psi4/basis/jun-cc-pvdz.gbs 
    atoms 2-5   entry F          line   266 file /home/gridsan/tfroembgen/.conda/envs/psi4test/share/psi4/basis/jun-cc-pvdz.gbs 
    atoms 6-59  entry C          line   164 file /home/gridsan/tfroembgen/.conda/envs/psi4test/share/psi4/basis/jun-cc-pvdz.gbs 
    atoms 60-77 entry H          line    36 file /home/gridsan/tfroembgen/.conda/envs/psi4test/share/psi4/basis/jun-cc-pvdz.gbs 


  //>>>>>>>>>>>>>>>>>>>>>>>>>>>>>>>>>>>//
  //              Dimer HF             //
  //<<<<<<<<<<<<<<<<<<<<<<<<<<<<<<<<<<<//

   => Libint2 <=

    Primary   basis highest AM E, G, H:  7, 7, 4
    Auxiliary basis highest AM E, G, H:  7, 7, 5
    Onebody   basis highest AM E, G, H:  7, 7, 5
    Solid Harmonics ordering:            gaussian

*** tstart() called on d-18-8-4
*** at Mon Jan 22 07:59:42 2024

   => Loading Basis Set <=

    Name: JUN-CC-PVDZ
    Role: ORBITAL
    Keyword: BASIS
    atoms 1     entry B          line   130 file /home/gridsan/tfroembgen/.conda/envs/psi4test/share/psi4/basis/jun-cc-pvdz.gbs 
    atoms 2-5   entry F          line   266 file /home/gridsan/tfroembgen/.conda/envs/psi4test/share/psi4/basis/jun-cc-pvdz.gbs 
    atoms 6-59  entry C          line   164 file /home/gridsan/tfroembgen/.conda/envs/psi4test/share/psi4/basis/jun-cc-pvdz.gbs 
    atoms 60-77 entry H          line    36 file /home/gridsan/tfroembgen/.conda/envs/psi4test/share/psi4/basis/jun-cc-pvdz.gbs 


         ---------------------------------------------------------
                                   SCF
               by Justin Turney, Rob Parrish, Andy Simmonett
                          and Daniel G. A. Smith
                              RHF Reference
                       12 Threads,  30517 MiB Core
         ---------------------------------------------------------

  ==> Geometry <==

    Molecular point group: c1
    Full point group: C1

    Geometry (in Angstrom), charge = -1, multiplicity = 1:

       Center              X                  Y                   Z               Mass       
    ------------   -----------------  -----------------  -----------------  -----------------
         B           -0.000198161052     0.000273808717    -6.722014312942    11.009305360000
         F           -0.000000401852    -0.000000464183    -5.309229312942    18.998403162730
         F            1.147859598148     0.675780735817    -7.193155312942    18.998403162730
         F            0.011917658148    -1.332011464183    -7.192953312942    18.998403162730
         F           -1.159666401852     0.656073035817    -7.192874312942    18.998403162730
         C            1.225311973413     0.707538196736     0.884089314341    12.000000000000
         C            1.225323934041    -0.707538986754     0.871758504771    12.000000000000
         C           -0.000006075942     1.414965821907     0.871224881250    12.000000000000
         C            2.456448831939     1.418327794995     0.886976171741    12.000000000000
         C            0.000010905269    -1.414976590818     0.881424438575    12.000000000000
         C           -1.225300870919     0.707545281801     0.886340834664    12.000000000000
         C            2.456437833310    -1.418323396064     0.869513347914    12.000000000000
         C           -0.000001254988     2.836800939098     0.868821331116    12.000000000000
         C            3.681826775460     0.709317863818     0.869862137712    12.000000000000
         C            2.455120126855     2.834223569306     0.869759580751    12.000000000000
         C            3.681821183209    -0.709333931612     0.885934621730    12.000000000000
         C           -1.225313520698    -0.707527607727     0.872831266198    12.000000000000
         C            1.226699659192     3.543469391811     0.886118653661    12.000000000000
         C            0.000004862847    -2.836782231419     0.886272606196    12.000000000000
         C           -2.456435954859     1.418316826102     0.886376230510    12.000000000000
         C            2.455123495769    -2.834230120772     0.885782713363    12.000000000000
         C           -1.226714286599     3.543468971567     0.886221986880    12.000000000000
         C            4.914517373191     1.427172780306     0.876342820742    12.000000000000
         C            3.693150269466     3.542795200362     0.876392620378    12.000000000000
         C           -2.456437522078    -1.418313373022     0.869488309790    12.000000000000
         C            1.226704919933    -3.543474334090     0.870148522911    12.000000000000
         C           -2.455125320518     2.834216570451     0.869765957098    12.000000000000
         C            4.914524458772    -1.427187002127     0.879315563476    12.000000000000
         C            1.221424691688     4.970133973077     0.879453997736    12.000000000000
         C            4.893008307311     2.825187907843     0.877559489100    12.000000000000
         C           -1.226696930499    -3.543471089260     0.870415727321    12.000000000000
         C           -3.681818898536     0.709324874549     0.869874818192    12.000000000000
         C            3.693147179140    -3.542801433574     0.879433454037    12.000000000000
         C           -1.221432174004     4.970128205680     0.879637493109    12.000000000000
         C            6.134771050916     0.680547854922     0.877112595291    12.000000000000
         C            3.656788958600     4.972953151384     0.877301258160    12.000000000000
         C           -2.455126829744    -2.834215185244     0.885538355565    12.000000000000
         C           -3.681819101071    -0.709325795652     0.886052243309    12.000000000000
         C            4.893012695903    -2.825200197815     0.878170640996    12.000000000000
         C           -0.000000995123     5.650447273849     0.878406184402    12.000000000000
         C            6.134775190322    -0.680554946258     0.878377915807    12.000000000000
         C            2.478131560845     5.653576659148     0.878590037810    12.000000000000
         C            1.221422482727    -4.970127147116     0.876654500713    12.000000000000
         C           -3.693162305975     3.542796862009     0.876558127837    12.000000000000
         C           -1.221428442955    -4.970118395779     0.876541738881    12.000000000000
         C           -4.914521729952     1.427175354812     0.876419765749    12.000000000000
         C            3.656787097669    -4.972955318422     0.878751758694    12.000000000000
         C           -2.478138452116     5.653574330345     0.878874562819    12.000000000000
         C           -3.693141660574    -3.542790311162     0.879317327881    12.000000000000
         C           -4.914512405063    -1.427181092211     0.879350260650    12.000000000000
         C           -0.000005930936    -5.650438379197     0.878010680280    12.000000000000
         C           -4.893020406111     2.825188506736     0.877549407240    12.000000000000
         C            2.478126071288    -5.653573636072     0.877661157902    12.000000000000
         C           -3.656798632268     4.972956089858     0.877477938535    12.000000000000
         C           -4.892999400866    -2.825191859243     0.878016605298    12.000000000000
         C           -2.478128420093    -5.653566262190     0.877385970255    12.000000000000
         C           -6.134770425341     0.680548674073     0.877087043589    12.000000000000
         C           -3.656788755199    -4.972944115154     0.878537470878    12.000000000000
         C           -6.134764964923    -0.680554007665     0.878357440012    12.000000000000
         H            5.835288573806     3.369275802771     0.881918814763     1.007825032230
         H            7.073859250737     1.228217156716     0.877574238685     1.007825032230
         H            4.600663342164     5.512380710270     0.877806458912     1.007825032230
         H            5.835283465295    -3.369306148912     0.873716173681     1.007825032230
         H           -0.000012073316     6.738530581953     0.874056939394     1.007825032230
         H            7.073861249820    -1.228227034927     0.877869177713     1.007825032230
         H            2.473313809789     6.740684199211     0.878123316880     1.007825032230
         H            4.600668569371    -5.512376221359     0.878341761526     1.007825032230
         H           -2.473318602548     6.740681627423     0.878424663505     1.007825032230
         H           -0.000010190238    -6.738528268635     0.882540365265     1.007825032230
         H           -5.835301836354     3.369270858113     0.882054836911     1.007825032230
         H            2.473308001821    -6.740685466612     0.878231488327     1.007825032230
         H           -4.600674763218     5.512377934420     0.877971787236     1.007825032230
         H           -5.835279428845    -3.369289055963     0.873436867800     1.007825032230
         H           -2.473300269450    -6.740679170323     0.877782171783     1.007825032230
         H           -7.073857688778     1.228220380657     0.877490247204     1.007825032230
         H           -4.600673708095    -5.512362761970     0.878169453503     1.007825032230
         H           -7.073856856419    -1.228220724160     0.877774321247     1.007825032230

  Running in c1 symmetry.

  Rotational constants: A =      0.00139  B =      0.00139  C =      0.00110 [cm^-1]
  Rotational constants: A =     41.60594  B =     41.60194  C =     33.02251 [MHz]
  Nuclear repulsion = 7464.033375024028828

  Charge       = -1
  Multiplicity = 1
  Electrons    = 384
  Nalpha       = 192
  Nbeta        = 192

  ==> Algorithm <==

  SCF Algorithm Type is DF.
  DIIS enabled.
  MOM disabled.
  Fractional occupation disabled.
  Guess Type is SAD.
  Energy threshold   = 1.00e-08
  Density threshold  = 1.00e-08
  Integral threshold = 1.00e-12

  ==> Primary Basis <==

  Basis Set: JUN-CC-PVDZ
    Blend: JUN-CC-PVDZ
    Number of shells: 526
    Number of basis functions: 1152
    Number of Cartesian functions: 1211
    Spherical Harmonics?: true
    Max angular momentum: 2

   => Loading Basis Set <=

    Name: (JUN-CC-PVDZ AUX)
    Role: JKFIT
    Keyword: DF_BASIS_SCF
    atoms 1     entry B          line    90 file /home/gridsan/tfroembgen/.conda/envs/psi4test/share/psi4/basis/jun-cc-pvdz-jkfit.gbs 
    atoms 2-5   entry F          line   314 file /home/gridsan/tfroembgen/.conda/envs/psi4test/share/psi4/basis/jun-cc-pvdz-jkfit.gbs 
    atoms 6-59  entry C          line   146 file /home/gridsan/tfroembgen/.conda/envs/psi4test/share/psi4/basis/jun-cc-pvdz-jkfit.gbs 
    atoms 60-77 entry H          line    70 file /home/gridsan/tfroembgen/.conda/envs/psi4test/share/psi4/basis/jun-cc-pvdz-jkfit.gbs 

  ==> Integral Setup <==

  ==> DiskDFJK: Density-Fitted J/K Matrices <==

    J tasked:                  Yes
    K tasked:                  Yes
    wK tasked:                  No
    OpenMP threads:             12
    Integrals threads:          12
    Memory [MiB]:            22888
    Algorithm:                Core
    Integral Cache:           SAVE
    Schwarz Cutoff:          1E-12
    Fitting Condition:       1E-10

   => Auxiliary Basis Set <=

  Basis Set: (JUN-CC-PVDZ AUX)
    Blend: JUN-CC-PVDZ-JKFIT
    Number of shells: 1755
    Number of basis functions: 5075
    Number of Cartesian functions: 5819
    Spherical Harmonics?: true
    Max angular momentum: 3

  Minimum eigenvalue in the overlap matrix is 8.3997937293E-10.
  Reciprocal condition number of the overlap matrix is 3.7559835352E-11.
    Using canonical orthogonalization.
  Overall, 14 of 1152 possible MOs eliminated.


  ==> Pre-Iterations <==

  SCF Guess: Superposition of Atomic Densities via on-the-fly atomic UHF (no occupation information).

   -------------------------
    Irrep   Nso     Nmo    
   -------------------------
     A       1152    1138 
   -------------------------
    Total    1152    1138
   -------------------------

  ==> Iterations <==

                           Total Energy        Delta E     RMS |[F,P]|

   @DF-RHF iter SAD: -2483.25916438014656   -2.48326e+03   0.00000e+00 
   @DF-RHF iter   1: -2477.62766818158480    5.63150e+00   1.09685e-03 ADIIS/DIIS
   @DF-RHF iter   2: -2478.51283713118164   -8.85169e-01   4.72471e-04 ADIIS/DIIS
   @DF-RHF iter   3: -2478.64285812994513   -1.30021e-01   1.29887e-04 ADIIS/DIIS
   @DF-RHF iter   4: -2478.65572641789913   -1.28683e-02   5.14057e-05 DIIS
   @DF-RHF iter   5: -2478.65793572948405   -2.20931e-03   1.55904e-05 DIIS
   @DF-RHF iter   6: -2478.65820561663168   -2.69887e-04   5.36375e-06 DIIS
   @DF-RHF iter   7: -2478.65828556797169   -7.99513e-05   2.63807e-06 DIIS
   @DF-RHF iter   8: -2478.65830752439888   -2.19564e-05   1.21724e-06 DIIS
   @DF-RHF iter   9: -2478.65831405741301   -6.53301e-06   2.47072e-07 DIIS
   @DF-RHF iter  10: -2478.65831427202556   -2.14613e-07   8.70654e-08 DIIS
   @DF-RHF iter  11: -2478.65831428834781   -1.63222e-08   3.37607e-08 DIIS
   @DF-RHF iter  12: -2478.65831429165155   -3.30374e-09   1.14512e-08 DIIS
   @DF-RHF iter  13: -2478.65831429202672   -3.75167e-10   4.46743e-09 DIIS
  Energy and wave function converged.


  ==> Post-Iterations <==

    Orbital Energies [Eh]
    ---------------------

    Doubly Occupied:                                                      

       1A    -26.064337     2A    -26.064242     3A    -26.064157  
       4A    -26.063424     5A    -11.203186     6A    -11.203176  
       7A    -11.203171     8A    -11.203133     9A    -11.203128  
      10A    -11.203116    11A    -11.203080    12A    -11.203068  
      13A    -11.203062    14A    -11.203028    15A    -11.203021  
      16A    -11.203020    17A    -11.202671    18A    -11.202428  
      19A    -11.202426    20A    -11.202189    21A    -11.202189  
      22A    -11.202122    23A    -11.201856    24A    -11.201588  
      25A    -11.201585    26A    -11.201089    27A    -11.201032  
      28A    -11.201032    29A    -11.200691    30A    -11.200691  
      31A    -11.200576    32A    -11.200573    33A    -11.200550  
      34A    -11.200166    35A    -11.200095    36A    -11.199978  
      37A    -11.199977    38A    -11.199811    39A    -11.199811  
      40A    -11.199704    41A    -11.198452    42A    -11.198451  
      43A    -11.198450    44A    -11.198449    45A    -11.198446  
      46A    -11.198445    47A    -11.197029    48A    -11.197028  
      49A    -11.197026    50A    -11.197024    51A    -11.197021  
      52A    -11.197019    53A    -11.196359    54A    -11.196358  
      55A    -11.196355    56A    -11.196330    57A    -11.196330  
      58A    -11.196329    59A     -7.536332    60A     -1.407993  
      61A     -1.348478    62A     -1.348316    63A     -1.347806  
      64A     -1.186958    65A     -1.163502    66A     -1.163502  
      67A     -1.133723    68A     -1.133716    69A     -1.124462  
      70A     -1.102281    71A     -1.093274    72A     -1.079298  
      73A     -1.079291    74A     -1.057991    75A     -1.057986  
      76A     -1.026474    77A     -1.026466    78A     -1.022641  
      79A     -1.010924    80A     -1.010920    81A     -0.984007  
      82A     -0.967924    83A     -0.965436    84A     -0.965393  
      85A     -0.962585    86A     -0.957901    87A     -0.931242  
      88A     -0.931197    89A     -0.906652    90A     -0.906603  
      91A     -0.839135    92A     -0.839108    93A     -0.831702  
      94A     -0.829884    95A     -0.829827    96A     -0.825588  
      97A     -0.825540    98A     -0.806768    99A     -0.782965  
     100A     -0.762941   101A     -0.760661   102A     -0.756463  
     103A     -0.756455   104A     -0.739855   105A     -0.739844  
     106A     -0.690674   107A     -0.689116   108A     -0.677715  
     109A     -0.677706   110A     -0.677306   111A     -0.677283  
     112A     -0.661093   113A     -0.643855   114A     -0.643844  
     115A     -0.638229   116A     -0.638213   117A     -0.606469  
     118A     -0.599277   119A     -0.597739   120A     -0.595584  
     121A     -0.595578   122A     -0.595384   123A     -0.584355  
     124A     -0.584352   125A     -0.574237   126A     -0.572103  
     127A     -0.572087   128A     -0.552134   129A     -0.548515  
     130A     -0.545963   131A     -0.544841   132A     -0.544809  
     133A     -0.538046   134A     -0.535262   135A     -0.535251  
     136A     -0.531084   137A     -0.525558   138A     -0.525475  
     139A     -0.525293   140A     -0.519577   141A     -0.519571  
     142A     -0.512712   143A     -0.512697   144A     -0.510417  
     145A     -0.510400   146A     -0.503195   147A     -0.500218  
     148A     -0.500211   149A     -0.483873   150A     -0.483870  
     151A     -0.482129   152A     -0.482124   153A     -0.474549  
     154A     -0.471094   155A     -0.467713   156A     -0.467705  
     157A     -0.445897   158A     -0.444335   159A     -0.444293  
     160A     -0.440295   161A     -0.438412   162A     -0.432014  
     163A     -0.429481   164A     -0.426517   165A     -0.426508  
     166A     -0.413705   167A     -0.413689   168A     -0.405527  
     169A     -0.405446   170A     -0.405395   171A     -0.395019  
     172A     -0.394940   173A     -0.383914   174A     -0.383904  
     175A     -0.382211   176A     -0.381892   177A     -0.381828  
     178A     -0.348428   179A     -0.348405   180A     -0.346966  
     181A     -0.320494   182A     -0.320491   183A     -0.293470  
     184A     -0.280305   185A     -0.279285   186A     -0.279232  
     187A     -0.255725   188A     -0.243568   189A     -0.227887  
     190A     -0.227832   191A     -0.169304   192A     -0.169240  

    Virtual:                                                              

     193A      0.069444   194A      0.069508   195A      0.096491  
     196A      0.096493   197A      0.098503   198A      0.099066  
     199A      0.099072   200A      0.106150   201A      0.110188  
     202A      0.120735   203A      0.120782   204A      0.121148  
     205A      0.121150   206A      0.131395   207A      0.135925  
     208A      0.135931   209A      0.137170   210A      0.138209  
     211A      0.138240   212A      0.140673   213A      0.140680  
     214A      0.142192   215A      0.144336   216A      0.146817  
     217A      0.146818   218A      0.155709   219A      0.155747  
     220A      0.160152   221A      0.160160   222A      0.164640  
     223A      0.166910   224A      0.169678   225A      0.169712  
     226A      0.171111   227A      0.178005   228A      0.179643  
     229A      0.179654   230A      0.180445   231A      0.182676  
     232A      0.184288   233A      0.184295   234A      0.185163  
     235A      0.185167   236A      0.186178   237A      0.191968  
     238A      0.196057   239A      0.196070   240A      0.199856  
     241A      0.202600   242A      0.202604   243A      0.204662  
     244A      0.204665   245A      0.209652   246A      0.209657  
     247A      0.222321   248A      0.222340   249A      0.223599  
     250A      0.223649   251A      0.223888   252A      0.231654  
     253A      0.231671   254A      0.232183   255A      0.232766  
     256A      0.238591   257A      0.238593   258A      0.240649  
     259A      0.240986   260A      0.241110   261A      0.241123  
     262A      0.247108   263A      0.248345   264A      0.248350  
     265A      0.253665   266A      0.255796   267A      0.255806  
     268A      0.256982   269A      0.260592   270A      0.260610  
     271A      0.263052   272A      0.263710   273A      0.263736  
     274A      0.265240   275A      0.265728   276A      0.266299  
     277A      0.274801   278A      0.277453   279A      0.277614  
     280A      0.277638   281A      0.278226   282A      0.279290  
     283A      0.279316   284A      0.280999   285A      0.282257  
     286A      0.282286   287A      0.287264   288A      0.287277  
     289A      0.292855   290A      0.292872   291A      0.295542  
     292A      0.296123   293A      0.296127   294A      0.299393  
     295A      0.307957   296A      0.307965   297A      0.309445  
     298A      0.309504   299A      0.311435   300A      0.311446  
     301A      0.316502   302A      0.316519   303A      0.322322  
     304A      0.322331   305A      0.325127   306A      0.325965  
     307A      0.326070   308A      0.327368   309A      0.327378  
     310A      0.330927   311A      0.330949   312A      0.331691  
     313A      0.345285   314A      0.345300   315A      0.346546  
     316A      0.346552   317A      0.348888   318A      0.353068  
     319A      0.353578   320A      0.354002   321A      0.355856  
     322A      0.355871   323A      0.358692   324A      0.358761  
     325A      0.359824   326A      0.361192   327A      0.364173  
     328A      0.364191   329A      0.367353   330A      0.367360  
     331A      0.368721   332A      0.373134   333A      0.373143  
     334A      0.373527   335A      0.374719   336A      0.375968  
     337A      0.378295   338A      0.378622   339A      0.381810  
     340A      0.381824   341A      0.382956   342A      0.388015  
     343A      0.388115   344A      0.391799   345A      0.397869  
     346A      0.397907   347A      0.399192   348A      0.400053  
     349A      0.400071   350A      0.400637   351A      0.404222  
     352A      0.404228   353A      0.404451   354A      0.404925  
     355A      0.404936   356A      0.408235   357A      0.417071  
     358A      0.417142   359A      0.418184   360A      0.418206  
     361A      0.425167   362A      0.425440   363A      0.425453  
     364A      0.425493   365A      0.434463   366A      0.434502  
     367A      0.438221   368A      0.441017   369A      0.441071  
     370A      0.441292   371A      0.441305   372A      0.443080  
     373A      0.445836   374A      0.447914   375A      0.449125  
     376A      0.449142   377A      0.450342   378A      0.450390  
     379A      0.451504   380A      0.451528   381A      0.455047  
     382A      0.455059   383A      0.456054   384A      0.461141  
     385A      0.461846   386A      0.461890   387A      0.461912  
     388A      0.464073   389A      0.464446   390A      0.464487  
     391A      0.467791   392A      0.467804   393A      0.468684  
     394A      0.470910   395A      0.470984   396A      0.474606  
     397A      0.477256   398A      0.477322   399A      0.477853  
     400A      0.479171   401A      0.479174   402A      0.483866  
     403A      0.483884   404A      0.489057   405A      0.492000  
     406A      0.493954   407A      0.494023   408A      0.494654  
     409A      0.495658   410A      0.496689   411A      0.500119  
     412A      0.500130   413A      0.502509   414A      0.502543  
     415A      0.506396   416A      0.506427   417A      0.508290  
     418A      0.516894   419A      0.516913   420A      0.517290  
     421A      0.521929   422A      0.521975   423A      0.524006  
     424A      0.525061   425A      0.528080   426A      0.528111  
     427A      0.528444   428A      0.529219   429A      0.529231  
     430A      0.532627   431A      0.535341   432A      0.535403  
     433A      0.541136   434A      0.542050   435A      0.542083  
     436A      0.545335   437A      0.545383   438A      0.546229  
     439A      0.549165   440A      0.549191   441A      0.553619  
     442A      0.556977   443A      0.557180   444A      0.558302  
     445A      0.560033   446A      0.560068   447A      0.560326  
     448A      0.570342   449A      0.570460   450A      0.570757  
     451A      0.575246   452A      0.575322   453A      0.583417  
     454A      0.583590   455A      0.585332   456A      0.585431  
     457A      0.588590   458A      0.594649   459A      0.596728  
     460A      0.601258   461A      0.601318   462A      0.604065  
     463A      0.604795   464A      0.605090   465A      0.606655  
     466A      0.607159   467A      0.607167   468A      0.611896  
     469A      0.615466   470A      0.615486   471A      0.615629  
     472A      0.616087   473A      0.619040   474A      0.623088  
     475A      0.625132   476A      0.625234   477A      0.646989  
     478A      0.647155   479A      0.650972   480A      0.654490  
     481A      0.654631   482A      0.667619   483A      0.672758  
     484A      0.672863   485A      0.681180   486A      0.681325  
     487A      0.681540   488A      0.681589   489A      0.700752  
     490A      0.700931   491A      0.701232   492A      0.702550  
     493A      0.707458   494A      0.707496   495A      0.711474  
     496A      0.724458   497A      0.724480   498A      0.724794  
     499A      0.732721   500A      0.732751   501A      0.733378  
     502A      0.737291   503A      0.737343   504A      0.758321  
     505A      0.771312   506A      0.771409   507A      0.788685  
     508A      0.795528   509A      0.798321   510A      0.798487  
     511A      0.798567   512A      0.798697   513A      0.811946  
     514A      0.811962   515A      0.818752   516A      0.822048  
     517A      0.832055   518A      0.846053   519A      0.851600  
     520A      0.851672   521A      0.860497   522A      0.862767  
     523A      0.864134   524A      0.864144   525A      0.868953  
     526A      0.876552   527A      0.878526   528A      0.878852  
     529A      0.882128   530A      0.882180   531A      0.882735  
     532A      0.890509   533A      0.897951   534A      0.898146  
     535A      0.909618   536A      0.909826   537A      0.909991  
     538A      0.915482   539A      0.919843   540A      0.919914  
     541A      0.924145   542A      0.924478   543A      0.926466  
     544A      0.930973   545A      0.931016   546A      0.931634  
     547A      0.932216   548A      0.935679   549A      0.935896  
     550A      0.943408   551A      0.943492   552A      0.945751  
     553A      0.952211   554A      0.952312   555A      0.952652  
     556A      0.954089   557A      0.956330   558A      0.962507  
     559A      0.962894   560A      0.965691   561A      0.967878  
     562A      0.968476   563A      0.968886   564A      0.971781  
     565A      0.976224   566A      0.976308   567A      0.976466  
     568A      0.981647   569A      0.987392   570A      0.987733  
     571A      0.989887   572A      0.990793   573A      0.990892  
     574A      0.998907   575A      0.999032   576A      1.000846  
     577A      1.000893   578A      1.011666   579A      1.011793  
     580A      1.014254   581A      1.023211   582A      1.023458  
     583A      1.027020   584A      1.027414   585A      1.028380  
     586A      1.028442   587A      1.032821   588A      1.033711  
     589A      1.037528   590A      1.043325   591A      1.043386  
     592A      1.047229   593A      1.054720   594A      1.054785  
     595A      1.060843   596A      1.068574   597A      1.068583  
     598A      1.069737   599A      1.071956   600A      1.071976  
     601A      1.086919   602A      1.086948   603A      1.091756  
     604A      1.091992   605A      1.093450   606A      1.094017  
     607A      1.094070   608A      1.097915   609A      1.098020  
     610A      1.100033   611A      1.100092   612A      1.101383  
     613A      1.103075   614A      1.104817   615A      1.105478  
     616A      1.108331   617A      1.108367   618A      1.115354  
     619A      1.117369   620A      1.119125   621A      1.119606  
     622A      1.124853   623A      1.124869   624A      1.130522  
     625A      1.131527   626A      1.131540   627A      1.135620  
     628A      1.138390   629A      1.141246   630A      1.141318  
     631A      1.141433   632A      1.141468   633A      1.144036  
     634A      1.144211   635A      1.154632   636A      1.158569  
     637A      1.158662   638A      1.159116   639A      1.159149  
     640A      1.170801   641A      1.170844   642A      1.176445  
     643A      1.176564   644A      1.179308   645A      1.180621  
     646A      1.182933   647A      1.183077   648A      1.189203  
     649A      1.193286   650A      1.193374   651A      1.197788  
     652A      1.199212   653A      1.199243   654A      1.201144  
     655A      1.202131   656A      1.210116   657A      1.219891  
     658A      1.228908   659A      1.231151   660A      1.234578  
     661A      1.234835   662A      1.239002   663A      1.240945  
     664A      1.240984   665A      1.250036   666A      1.250158  
     667A      1.255762   668A      1.255864   669A      1.265693  
     670A      1.273032   671A      1.273083   672A      1.276521  
     673A      1.278122   674A      1.278156   675A      1.290500  
     676A      1.292109   677A      1.292214   678A      1.311512  
     679A      1.311579   680A      1.316576   681A      1.316700  
     682A      1.318447   683A      1.318578   684A      1.319576  
     685A      1.319680   686A      1.327798   687A      1.331584  
     688A      1.336485   689A      1.347199   690A      1.347292  
     691A      1.349221   692A      1.349360   693A      1.352510  
     694A      1.353551   695A      1.355036   696A      1.355056  
     697A      1.363460   698A      1.363473   699A      1.364184  
     700A      1.364664   701A      1.374400   702A      1.374459  
     703A      1.376694   704A      1.376714   705A      1.385658  
     706A      1.385754   707A      1.388739   708A      1.394288  
     709A      1.395237   710A      1.399366   711A      1.399440  
     712A      1.399674   713A      1.408312   714A      1.411038  
     715A      1.411069   716A      1.413575   717A      1.413601  
     718A      1.415882   719A      1.415906   720A      1.422005  
     721A      1.422036   722A      1.434224   723A      1.446958  
     724A      1.454373   725A      1.459399   726A      1.459422  
     727A      1.464521   728A      1.464532   729A      1.466831  
     730A      1.466863   731A      1.476038   732A      1.476348  
     733A      1.481836   734A      1.481923   735A      1.484952  
     736A      1.486237   737A      1.491294   738A      1.491320  
     739A      1.493786   740A      1.494791   741A      1.494984  
     742A      1.497024   743A      1.503022   744A      1.503029  
     745A      1.506021   746A      1.520098   747A      1.520131  
     748A      1.529662   749A      1.529850   750A      1.571803  
     751A      1.571859   752A      1.577432   753A      1.577457  
     754A      1.584185   755A      1.608544   756A      1.631714  
     757A      1.636482   758A      1.636557   759A      1.642771  
     760A      1.656122   761A      1.656674   762A      1.657499  
     763A      1.665640   764A      1.665664   765A      1.665709  
     766A      1.670735   767A      1.670947   768A      1.675461  
     769A      1.678498   770A      1.678617   771A      1.687344  
     772A      1.687707   773A      1.695873   774A      1.695918  
     775A      1.699913   776A      1.699997   777A      1.700003  
     778A      1.700723   779A      1.705645   780A      1.716658  
     781A      1.716678   782A      1.723022   783A      1.731908  
     784A      1.731940   785A      1.733334   786A      1.733374  
     787A      1.733420   788A      1.738176   789A      1.742744  
     790A      1.742798   791A      1.751530   792A      1.752653  
     793A      1.754587   794A      1.754632   795A      1.757410  
     796A      1.761710   797A      1.761777   798A      1.770918  
     799A      1.770937   800A      1.797479   801A      1.807719  
     802A      1.814796   803A      1.814815   804A      1.815048  
     805A      1.817142   806A      1.832287   807A      1.832311  
     808A      1.846953   809A      1.846976   810A      1.871449  
     811A      1.871487   812A      1.871685   813A      1.874217  
     814A      1.881058   815A      1.881157   816A      1.886357  
     817A      1.886440   818A      1.892223   819A      1.898673  
     820A      1.899031   821A      1.915484   822A      1.915527  
     823A      1.916681   824A      1.916717   825A      1.919117  
     826A      1.924390   827A      1.927854   828A      1.936150  
     829A      1.936171   830A      1.937484   831A      1.937566  
     832A      1.951993   833A      1.952099   834A      1.953795  
     835A      1.957336   836A      1.957464   837A      1.964744  
     838A      1.964882   839A      1.969084   840A      1.969337  
     841A      1.973455   842A      1.973609   843A      1.975136  
     844A      1.977782   845A      1.977868   846A      1.994280  
     847A      1.996617   848A      1.996769   849A      1.997906  
     850A      2.000181   851A      2.000216   852A      2.002068  
     853A      2.002187   854A      2.005515   855A      2.010360  
     856A      2.010414   857A      2.010619   858A      2.010641  
     859A      2.013728   860A      2.024438   861A      2.028527  
     862A      2.037863   863A      2.038105   864A      2.040612  
     865A      2.040701   866A      2.045266   867A      2.052615  
     868A      2.053618   869A      2.053679   870A      2.058234  
     871A      2.062323   872A      2.067551   873A      2.067711  
     874A      2.083533   875A      2.084037   876A      2.085653  
     877A      2.085767   878A      2.086186   879A      2.086849  
     880A      2.086936   881A      2.103467   882A      2.107216  
     883A      2.107490   884A      2.113434   885A      2.114287  
     886A      2.116373   887A      2.116389   888A      2.124364  
     889A      2.125090   890A      2.126200   891A      2.127616  
     892A      2.127975   893A      2.131652   894A      2.131735  
     895A      2.134836   896A      2.140189   897A      2.140335  
     898A      2.141587   899A      2.141638   900A      2.147893  
     901A      2.149131   902A      2.150578   903A      2.151863  
     904A      2.154490   905A      2.155992   906A      2.156066  
     907A      2.162883   908A      2.163754   909A      2.163795  
     910A      2.165791   911A      2.165823   912A      2.169154  
     913A      2.172275   914A      2.174309   915A      2.174375  
     916A      2.176773   917A      2.176885   918A      2.181482  
     919A      2.181515   920A      2.189833   921A      2.190057  
     922A      2.190700   923A      2.190776   924A      2.198258  
     925A      2.198279   926A      2.210938   927A      2.216037  
     928A      2.216062   929A      2.218649   930A      2.218672  
     931A      2.227851   932A      2.233547   933A      2.233627  
     934A      2.244681   935A      2.245047   936A      2.247866  
     937A      2.248605   938A      2.252928   939A      2.253040  
     940A      2.255011   941A      2.275155   942A      2.276816  
     943A      2.276858   944A      2.282841   945A      2.284711  
     946A      2.285017   947A      2.286246   948A      2.297045  
     949A      2.297357   950A      2.298279   951A      2.298681  
     952A      2.301349   953A      2.314386   954A      2.314502  
     955A      2.325340   956A      2.325355   957A      2.326761  
     958A      2.326806   959A      2.334944   960A      2.355048  
     961A      2.361693   962A      2.366454   963A      2.368248  
     964A      2.377099   965A      2.378476   966A      2.387171  
     967A      2.387941   968A      2.388045   969A      2.390355  
     970A      2.406781   971A      2.407411   972A      2.407964  
     973A      2.408146   974A      2.422484   975A      2.422578  
     976A      2.431726   977A      2.435142   978A      2.470654  
     979A      2.479707   980A      2.479881   981A      2.479918  
     982A      2.491399   983A      2.497141   984A      2.497186  
     985A      2.525759   986A      2.527803   987A      2.527963  
     988A      2.540536   989A      2.540552   990A      2.557836  
     991A      2.574040   992A      2.585211   993A      2.585690  
     994A      2.598160   995A      2.600348   996A      2.600394  
     997A      2.608322   998A      2.608392   999A      2.611400  
    1000A      2.615287  1001A      2.615294  1002A      2.628666  
    1003A      2.628697  1004A      2.628894  1005A      2.629440  
    1006A      2.641300  1007A      2.641435  1008A      2.643151  
    1009A      2.645178  1010A      2.645415  1011A      2.660883  
    1012A      2.678154  1013A      2.678240  1014A      2.681163  
    1015A      2.687314  1016A      2.687846  1017A      2.695863  
    1018A      2.695934  1019A      2.705299  1020A      2.705648  
    1021A      2.711850  1022A      2.737865  1023A      2.738952  
    1024A      2.739122  1025A      2.740852  1026A      2.758693  
    1027A      2.759021  1028A      2.769151  1029A      2.769157  
    1030A      2.774530  1031A      2.774549  1032A      2.777997  
    1033A      2.778224  1034A      2.794243  1035A      2.807122  
    1036A      2.807532  1037A      2.833294  1038A      2.850465  
    1039A      2.850613  1040A      2.871164  1041A      2.883021  
    1042A      2.883488  1043A      2.907125  1044A      2.907263  
    1045A      2.913010  1046A      2.915197  1047A      2.915414  
    1048A      2.915570  1049A      2.922521  1050A      2.947908  
    1051A      2.948052  1052A      2.962848  1053A      2.971456  
    1054A      2.971479  1055A      2.979141  1056A      2.988396  
    1057A      2.988454  1058A      3.004779  1059A      3.004809  
    1060A      3.017553  1061A      3.062179  1062A      3.062393  
    1063A      3.066033  1064A      3.083850  1065A      3.120484  
    1066A      3.120524  1067A      3.126229  1068A      3.126311  
    1069A      3.164306  1070A      3.165119  1071A      3.181963  
    1072A      3.184684  1073A      3.184975  1074A      3.192494  
    1075A      3.201374  1076A      3.201416  1077A      3.201697  
    1078A      3.203732  1079A      3.203741  1080A      3.212546  
    1081A      3.212932  1082A      3.220549  1083A      3.221022  
    1084A      3.246087  1085A      3.265611  1086A      3.271394  
    1087A      3.274532  1088A      3.292616  1089A      3.329249  
    1090A      3.332574  1091A      3.332739  1092A      3.337566  
    1093A      3.337754  1094A      3.472540  1095A      3.473004  
    1096A      3.502084  1097A      3.538173  1098A      3.540821  
    1099A      3.605969  1100A      3.634107  1101A      3.636068  
    1102A      3.650700  1103A      3.682248  1104A      3.684249  
    1105A      3.718735  1106A      3.723986  1107A      3.825325  
    1108A      3.839284  1109A      3.840264  1110A      3.925774  
    1111A      3.925785  1112A      3.968542  1113A      3.968655  
    1114A      4.033329  1115A      4.067360  1116A      4.090557  
    1117A      4.102464  1118A      4.139362  1119A      4.175111  
    1120A      4.175638  1121A      4.175699  1122A      4.203145  
    1123A      4.203166  1124A      4.203599  1125A      4.204044  
    1126A      4.204084  1127A      4.235941  1128A      4.235959  
    1129A      4.238857  1130A      4.450568  1131A      4.450722  
    1132A      4.451100  1133A      4.650926  1134A      4.650997  
    1135A      4.651857  1136A      4.751829  1137A      4.787358  
    1138A      4.787669  

    Final Occupation by Irrep:
              A 
    DOCC [   192 ]
    NA   [   192 ]
    NB   [   192 ]

  @DF-RHF Final Energy: -2478.65831429202672

   => Energetics <=

    Nuclear Repulsion Energy =           7464.0333750240288282
    One-Electron Energy =              -18278.6445108873413119
    Two-Electron Energy =                8335.9528215712871315
    Total Energy =                      -2478.6583142920262617

Computation Completed


Properties will be evaluated at   0.000000,   0.000000,   0.000000 [a0]

Properties computed using the SCF density matrix


 Multipole Moments:

 ------------------------------------------------------------------------------------
     Multipole            Electronic (a.u.)      Nuclear  (a.u.)        Total (a.u.)
 ------------------------------------------------------------------------------------

 L = 1.  Multiply by 2.5417464519 to convert [e a0] to [Debye]
 Dipole X            :         -0.0005253            0.0000481           -0.0004772
 Dipole Y            :          0.0010784           -0.0001453            0.0009331
 Dipole Z            :        -34.5829265           46.5906903           12.0077639
 Magnitude           :                                                   12.0077639

 ------------------------------------------------------------------------------------

*** tstop() called on d-18-8-4 at Mon Jan 22 08:06:34 2024
Module time:
	user time   =    3440.81 seconds =      57.35 minutes
	system time =      63.75 seconds =       1.06 minutes
	total time  =        412 seconds =       6.87 minutes
Total time:
	user time   =    3440.81 seconds =      57.35 minutes
	system time =      63.75 seconds =       1.06 minutes
	total time  =        412 seconds =       6.87 minutes

  //>>>>>>>>>>>>>>>>>>>>>>>>>>>>>>>>>>>//
  //            Monomer A HF           //
  //<<<<<<<<<<<<<<<<<<<<<<<<<<<<<<<<<<<//

   => Libint2 <=

    Primary   basis highest AM E, G, H:  7, 7, 4
    Auxiliary basis highest AM E, G, H:  7, 7, 5
    Onebody   basis highest AM E, G, H:  7, 7, 5
    Solid Harmonics ordering:            gaussian

*** tstart() called on d-18-8-4
*** at Mon Jan 22 08:06:34 2024

   => Loading Basis Set <=

    Name: JUN-CC-PVDZ
    Role: ORBITAL
    Keyword: BASIS
    atoms 1     entry B          line   130 file /home/gridsan/tfroembgen/.conda/envs/psi4test/share/psi4/basis/jun-cc-pvdz.gbs 
    atoms 2-5   entry F          line   266 file /home/gridsan/tfroembgen/.conda/envs/psi4test/share/psi4/basis/jun-cc-pvdz.gbs 
    atoms 6-59  entry C          line   164 file /home/gridsan/tfroembgen/.conda/envs/psi4test/share/psi4/basis/jun-cc-pvdz.gbs 
    atoms 60-77 entry H          line    36 file /home/gridsan/tfroembgen/.conda/envs/psi4test/share/psi4/basis/jun-cc-pvdz.gbs 


         ---------------------------------------------------------
                                   SCF
               by Justin Turney, Rob Parrish, Andy Simmonett
                          and Daniel G. A. Smith
                              RHF Reference
                       12 Threads,  30517 MiB Core
         ---------------------------------------------------------

  ==> Geometry <==

    Molecular point group: c1
    Full point group: C1

    Geometry (in Angstrom), charge = -1, multiplicity = 1:

       Center              X                  Y                   Z               Mass       
    ------------   -----------------  -----------------  -----------------  -----------------
         B           -0.000198161052     0.000273808717    -6.722014312942    11.009305360000
         F           -0.000000401852    -0.000000464183    -5.309229312942    18.998403162730
         F            1.147859598148     0.675780735817    -7.193155312942    18.998403162730
         F            0.011917658148    -1.332011464183    -7.192953312942    18.998403162730
         F           -1.159666401852     0.656073035817    -7.192874312942    18.998403162730
      Gh(C)           1.225311973413     0.707538196736     0.884089314341    12.000000000000
      Gh(C)           1.225323934041    -0.707538986754     0.871758504771    12.000000000000
      Gh(C)          -0.000006075942     1.414965821907     0.871224881250    12.000000000000
      Gh(C)           2.456448831939     1.418327794995     0.886976171741    12.000000000000
      Gh(C)           0.000010905269    -1.414976590818     0.881424438575    12.000000000000
      Gh(C)          -1.225300870919     0.707545281801     0.886340834664    12.000000000000
      Gh(C)           2.456437833310    -1.418323396064     0.869513347914    12.000000000000
      Gh(C)          -0.000001254988     2.836800939098     0.868821331116    12.000000000000
      Gh(C)           3.681826775460     0.709317863818     0.869862137712    12.000000000000
      Gh(C)           2.455120126855     2.834223569306     0.869759580751    12.000000000000
      Gh(C)           3.681821183209    -0.709333931612     0.885934621730    12.000000000000
      Gh(C)          -1.225313520698    -0.707527607727     0.872831266198    12.000000000000
      Gh(C)           1.226699659192     3.543469391811     0.886118653661    12.000000000000
      Gh(C)           0.000004862847    -2.836782231419     0.886272606196    12.000000000000
      Gh(C)          -2.456435954859     1.418316826102     0.886376230510    12.000000000000
      Gh(C)           2.455123495769    -2.834230120772     0.885782713363    12.000000000000
      Gh(C)          -1.226714286599     3.543468971567     0.886221986880    12.000000000000
      Gh(C)           4.914517373191     1.427172780306     0.876342820742    12.000000000000
      Gh(C)           3.693150269466     3.542795200362     0.876392620378    12.000000000000
      Gh(C)          -2.456437522078    -1.418313373022     0.869488309790    12.000000000000
      Gh(C)           1.226704919933    -3.543474334090     0.870148522911    12.000000000000
      Gh(C)          -2.455125320518     2.834216570451     0.869765957098    12.000000000000
      Gh(C)           4.914524458772    -1.427187002127     0.879315563476    12.000000000000
      Gh(C)           1.221424691688     4.970133973077     0.879453997736    12.000000000000
      Gh(C)           4.893008307311     2.825187907843     0.877559489100    12.000000000000
      Gh(C)          -1.226696930499    -3.543471089260     0.870415727321    12.000000000000
      Gh(C)          -3.681818898536     0.709324874549     0.869874818192    12.000000000000
      Gh(C)           3.693147179140    -3.542801433574     0.879433454037    12.000000000000
      Gh(C)          -1.221432174004     4.970128205680     0.879637493109    12.000000000000
      Gh(C)           6.134771050916     0.680547854922     0.877112595291    12.000000000000
      Gh(C)           3.656788958600     4.972953151384     0.877301258160    12.000000000000
      Gh(C)          -2.455126829744    -2.834215185244     0.885538355565    12.000000000000
      Gh(C)          -3.681819101071    -0.709325795652     0.886052243309    12.000000000000
      Gh(C)           4.893012695903    -2.825200197815     0.878170640996    12.000000000000
      Gh(C)          -0.000000995123     5.650447273849     0.878406184402    12.000000000000
      Gh(C)           6.134775190322    -0.680554946258     0.878377915807    12.000000000000
      Gh(C)           2.478131560845     5.653576659148     0.878590037810    12.000000000000
      Gh(C)           1.221422482727    -4.970127147116     0.876654500713    12.000000000000
      Gh(C)          -3.693162305975     3.542796862009     0.876558127837    12.000000000000
      Gh(C)          -1.221428442955    -4.970118395779     0.876541738881    12.000000000000
      Gh(C)          -4.914521729952     1.427175354812     0.876419765749    12.000000000000
      Gh(C)           3.656787097669    -4.972955318422     0.878751758694    12.000000000000
      Gh(C)          -2.478138452116     5.653574330345     0.878874562819    12.000000000000
      Gh(C)          -3.693141660574    -3.542790311162     0.879317327881    12.000000000000
      Gh(C)          -4.914512405063    -1.427181092211     0.879350260650    12.000000000000
      Gh(C)          -0.000005930936    -5.650438379197     0.878010680280    12.000000000000
      Gh(C)          -4.893020406111     2.825188506736     0.877549407240    12.000000000000
      Gh(C)           2.478126071288    -5.653573636072     0.877661157902    12.000000000000
      Gh(C)          -3.656798632268     4.972956089858     0.877477938535    12.000000000000
      Gh(C)          -4.892999400866    -2.825191859243     0.878016605298    12.000000000000
      Gh(C)          -2.478128420093    -5.653566262190     0.877385970255    12.000000000000
      Gh(C)          -6.134770425341     0.680548674073     0.877087043589    12.000000000000
      Gh(C)          -3.656788755199    -4.972944115154     0.878537470878    12.000000000000
      Gh(C)          -6.134764964923    -0.680554007665     0.878357440012    12.000000000000
      Gh(H)           5.835288573806     3.369275802771     0.881918814763     1.007825032230
      Gh(H)           7.073859250737     1.228217156716     0.877574238685     1.007825032230
      Gh(H)           4.600663342164     5.512380710270     0.877806458912     1.007825032230
      Gh(H)           5.835283465295    -3.369306148912     0.873716173681     1.007825032230
      Gh(H)          -0.000012073316     6.738530581953     0.874056939394     1.007825032230
      Gh(H)           7.073861249820    -1.228227034927     0.877869177713     1.007825032230
      Gh(H)           2.473313809789     6.740684199211     0.878123316880     1.007825032230
      Gh(H)           4.600668569371    -5.512376221359     0.878341761526     1.007825032230
      Gh(H)          -2.473318602548     6.740681627423     0.878424663505     1.007825032230
      Gh(H)          -0.000010190238    -6.738528268635     0.882540365265     1.007825032230
      Gh(H)          -5.835301836354     3.369270858113     0.882054836911     1.007825032230
      Gh(H)           2.473308001821    -6.740685466612     0.878231488327     1.007825032230
      Gh(H)          -4.600674763218     5.512377934420     0.877971787236     1.007825032230
      Gh(H)          -5.835279428845    -3.369289055963     0.873436867800     1.007825032230
      Gh(H)          -2.473300269450    -6.740679170323     0.877782171783     1.007825032230
      Gh(H)          -7.073857688778     1.228220380657     0.877490247204     1.007825032230
      Gh(H)          -4.600673708095    -5.512362761970     0.878169453503     1.007825032230
      Gh(H)          -7.073856856419    -1.228220724160     0.877774321247     1.007825032230

  Running in c1 symmetry.

  Rotational constants: A =      0.00139  B =      0.00139  C =      0.00110 [cm^-1]
  Rotational constants: A =     41.60594  B =     41.60194  C =     33.02251 [MHz]
  Nuclear repulsion =  178.879455044809106

  Charge       = -1
  Multiplicity = 1
  Electrons    = 42
  Nalpha       = 21
  Nbeta        = 21

  ==> Algorithm <==

  SCF Algorithm Type is DF.
  DIIS enabled.
  MOM disabled.
  Fractional occupation disabled.
  Guess Type is SAD.
  Energy threshold   = 1.00e-08
  Density threshold  = 1.00e-08
  Integral threshold = 1.00e-12

  ==> Primary Basis <==

  Basis Set: JUN-CC-PVDZ
    Blend: JUN-CC-PVDZ
    Number of shells: 526
    Number of basis functions: 1152
    Number of Cartesian functions: 1211
    Spherical Harmonics?: true
    Max angular momentum: 2

   => Loading Basis Set <=

    Name: (JUN-CC-PVDZ AUX)
    Role: JKFIT
    Keyword: DF_BASIS_SCF
    atoms 1     entry B          line    90 file /home/gridsan/tfroembgen/.conda/envs/psi4test/share/psi4/basis/jun-cc-pvdz-jkfit.gbs 
    atoms 2-5   entry F          line   314 file /home/gridsan/tfroembgen/.conda/envs/psi4test/share/psi4/basis/jun-cc-pvdz-jkfit.gbs 
    atoms 6-59  entry C          line   146 file /home/gridsan/tfroembgen/.conda/envs/psi4test/share/psi4/basis/jun-cc-pvdz-jkfit.gbs 
    atoms 60-77 entry H          line    70 file /home/gridsan/tfroembgen/.conda/envs/psi4test/share/psi4/basis/jun-cc-pvdz-jkfit.gbs 

  ==> Integral Setup <==

  ==> DiskDFJK: Density-Fitted J/K Matrices <==

    J tasked:                  Yes
    K tasked:                  Yes
    wK tasked:                  No
    OpenMP threads:             12
    Integrals threads:          12
    Memory [MiB]:            22888
    Algorithm:                Core
    Integral Cache:           LOAD
    Schwarz Cutoff:          1E-12
    Fitting Condition:       1E-10

   => Auxiliary Basis Set <=

  Basis Set: (JUN-CC-PVDZ AUX)
    Blend: JUN-CC-PVDZ-JKFIT
    Number of shells: 1755
    Number of basis functions: 5075
    Number of Cartesian functions: 5819
    Spherical Harmonics?: true
    Max angular momentum: 3

  Minimum eigenvalue in the overlap matrix is 8.3997937293E-10.
  Reciprocal condition number of the overlap matrix is 3.7559835352E-11.
    Using canonical orthogonalization.
  Overall, 14 of 1152 possible MOs eliminated.


  ==> Pre-Iterations <==

  SCF Guess: Superposition of Atomic Densities via on-the-fly atomic UHF (no occupation information).

   -------------------------
    Irrep   Nso     Nmo    
   -------------------------
     A       1152    1138 
   -------------------------
    Total    1152    1138
   -------------------------

  ==> Iterations <==

                           Total Energy        Delta E     RMS |[F,P]|

   @DF-RHF iter SAD:  -421.23044338874780   -4.21230e+02   0.00000e+00 
   @DF-RHF iter   1:  -422.64974500467480   -1.41930e+00   5.29797e-04 ADIIS/DIIS
   @DF-RHF iter   2:  -422.73251368568407   -8.27687e-02   3.22857e-04 ADIIS/DIIS
   @DF-RHF iter   3:  -422.77108371704662   -3.85700e-02   1.73782e-05 DIIS
   @DF-RHF iter   4:  -422.77144409442406   -3.60377e-04   2.75061e-06 DIIS
   @DF-RHF iter   5:  -422.77145273125245   -8.63683e-06   7.00587e-07 DIIS
   @DF-RHF iter   6:  -422.77145328699135   -5.55739e-07   1.44571e-07 DIIS
   @DF-RHF iter   7:  -422.77145330788704   -2.08957e-08   1.42216e-08 DIIS
   @DF-RHF iter   8:  -422.77145330809503   -2.07990e-10   4.50232e-09 DIIS
  Energy and wave function converged.


  ==> Post-Iterations <==

    Orbital Energies [Eh]
    ---------------------

    Doubly Occupied:                                                      

       1A    -26.067091     2A    -26.067026     3A    -26.066995  
       4A    -26.066912     5A     -7.539296     6A     -1.410958  
       7A     -1.351246     8A     -1.351198     9A     -1.351058  
      10A     -0.602239    11A     -0.528444    12A     -0.528420  
      13A     -0.528357    14A     -0.447300    15A     -0.447258  
      16A     -0.408462    17A     -0.408433    18A     -0.408366  
      19A     -0.384987    20A     -0.384950    21A     -0.384902  

    Virtual:                                                              

      22A      0.075148    23A      0.077594    24A      0.077596  
      25A      0.086083    26A      0.086089    27A      0.097156  
      28A      0.099081    29A      0.099276    30A      0.115007  
      31A      0.115015    32A      0.115366    33A      0.115369  
      34A      0.122522    35A      0.130575    36A      0.130579  
      37A      0.133108    38A      0.133118    39A      0.133957  
      40A      0.133961    41A      0.140746    42A      0.143544  
      43A      0.143554    44A      0.153822    45A      0.154997  
      46A      0.155436    47A      0.155493    48A      0.160905  
      49A      0.164094    50A      0.167171    51A      0.167179  
      52A      0.167583    53A      0.173145    54A      0.173155  
      55A      0.176476    56A      0.176479    57A      0.178291  
      58A      0.178299    59A      0.183102    60A      0.184334  
      61A      0.184349    62A      0.186540    63A      0.186547  
      64A      0.190197    65A      0.190214    66A      0.196155  
      67A      0.196174    68A      0.197436    69A      0.200066  
      70A      0.200076    71A      0.202367    72A      0.202372  
      73A      0.204638    74A      0.205963    75A      0.207679  
      76A      0.207698    77A      0.209036    78A      0.211220  
      79A      0.213857    80A      0.213860    81A      0.219622  
      82A      0.219625    83A      0.221550    84A      0.223647  
      85A      0.231216    86A      0.232501    87A      0.232503  
      88A      0.232596    89A      0.233771    90A      0.234114  
      91A      0.234135    92A      0.242752    93A      0.243350  
      94A      0.243360    95A      0.245828    96A      0.247069  
      97A      0.250491    98A      0.250579    99A      0.252198  
     100A      0.256994   101A      0.256996   102A      0.258326  
     103A      0.258338   104A      0.261720   105A      0.261740  
     106A      0.262319   107A      0.262327   108A      0.271970  
     109A      0.271982   110A      0.273733   111A      0.277198  
     112A      0.277201   113A      0.281061   114A      0.282076  
     115A      0.282081   116A      0.283026   117A      0.288194  
     118A      0.288214   119A      0.289093   120A      0.289135  
     121A      0.292577   122A      0.298533   123A      0.299000  
     124A      0.302193   125A      0.302203   126A      0.305592  
     127A      0.308863   128A      0.308867   129A      0.312244  
     130A      0.312259   131A      0.317335   132A      0.317341  
     133A      0.317718   134A      0.317724   135A      0.318402  
     136A      0.330984   137A      0.330988   138A      0.334150  
     139A      0.335115   140A      0.335192   141A      0.335201  
     142A      0.338463   143A      0.338465   144A      0.340046  
     145A      0.340058   146A      0.340565   147A      0.341240  
     148A      0.347475   149A      0.351846   150A      0.354164  
     151A      0.354189   152A      0.355855   153A      0.360316  
     154A      0.360355   155A      0.366316   156A      0.374679  
     157A      0.374713   158A      0.376689   159A      0.377552  
     160A      0.377566   161A      0.381281   162A      0.382306  
     163A      0.382364   164A      0.383911   165A      0.386351  
     166A      0.386354   167A      0.390060   168A      0.390161  
     169A      0.395507   170A      0.398353   171A      0.399154  
     172A      0.399199   173A      0.406698   174A      0.411198  
     175A      0.411225   176A      0.413102   177A      0.413186  
     178A      0.417062   179A      0.418178   180A      0.420185  
     181A      0.421792   182A      0.422973   183A      0.423355  
     184A      0.423445   185A      0.427113   186A      0.427184  
     187A      0.427316   188A      0.429668   189A      0.429766  
     190A      0.435471   191A      0.436185   192A      0.436567  
     193A      0.436651   194A      0.438540   195A      0.438653  
     196A      0.438733   197A      0.451311   198A      0.451412  
     199A      0.457028   200A      0.457132   201A      0.461179  
     202A      0.461226   203A      0.463035   204A      0.464757  
     205A      0.464968   206A      0.465078   207A      0.473031  
     208A      0.473052   209A      0.473778   210A      0.474173  
     211A      0.476723   212A      0.476725   213A      0.483439  
     214A      0.484449   215A      0.487087   216A      0.487139  
     217A      0.487413   218A      0.490871   219A      0.490906  
     220A      0.493708   221A      0.495306   222A      0.495412  
     223A      0.497102   224A      0.502155   225A      0.502274  
     226A      0.502797   227A      0.502850   228A      0.503530  
     229A      0.507921   230A      0.507963   231A      0.511014  
     232A      0.511333   233A      0.511396   234A      0.517021  
     235A      0.518042   236A      0.518839   237A      0.519086  
     238A      0.524016   239A      0.527739   240A      0.527866  
     241A      0.528846   242A      0.534266   243A      0.534373  
     244A      0.537611   245A      0.537647   246A      0.542867  
     247A      0.543210   248A      0.545494   249A      0.545527  
     250A      0.545677   251A      0.549191   252A      0.549265  
     253A      0.551159   254A      0.551355   255A      0.555532  
     256A      0.555679   257A      0.560711   258A      0.561275  
     259A      0.564501   260A      0.564570   261A      0.571501  
     262A      0.571523   263A      0.571944   264A      0.575917  
     265A      0.575934   266A      0.579050   267A      0.581008  
     268A      0.584480   269A      0.586636   270A      0.586816  
     271A      0.587006   272A      0.587243   273A      0.587292  
     274A      0.589416   275A      0.593702   276A      0.603591  
     277A      0.603599   278A      0.605857   279A      0.607411  
     280A      0.614901   281A      0.614923   282A      0.618282  
     283A      0.623654   284A      0.623671   285A      0.627671  
     286A      0.627686   287A      0.627772   288A      0.634503  
     289A      0.635470   290A      0.637610   291A      0.637626  
     292A      0.639853   293A      0.639869   294A      0.644860  
     295A      0.654090   296A      0.654126   297A      0.654453  
     298A      0.664139   299A      0.664183   300A      0.667358  
     301A      0.667432   302A      0.668650   303A      0.668685  
     304A      0.670459   305A      0.671317   306A      0.671319  
     307A      0.677047   308A      0.677078   309A      0.685813  
     310A      0.693693   311A      0.696139   312A      0.696171  
     313A      0.699269   314A      0.699473   315A      0.701407  
     316A      0.701732   317A      0.702021   318A      0.702023  
     319A      0.705950   320A      0.710910   321A      0.710962  
     322A      0.719027   323A      0.720639   324A      0.724403  
     325A      0.729623   326A      0.734486   327A      0.734724  
     328A      0.734746   329A      0.735922   330A      0.735943  
     331A      0.738569   332A      0.738578   333A      0.743095  
     334A      0.751059   335A      0.751072   336A      0.755703  
     337A      0.755782   338A      0.757476   339A      0.764696  
     340A      0.766498   341A      0.766750   342A      0.770865  
     343A      0.770906   344A      0.772491   345A      0.772524  
     346A      0.775039   347A      0.784793   348A      0.784817  
     349A      0.786740   350A      0.787552   351A      0.787863  
     352A      0.799128   353A      0.801881   354A      0.801902  
     355A      0.816102   356A      0.816124   357A      0.817762  
     358A      0.822256   359A      0.826601   360A      0.827446  
     361A      0.827469   362A      0.829218   363A      0.830512  
     364A      0.830539   365A      0.835468   366A      0.835643  
     367A      0.836064   368A      0.841310   369A      0.841405  
     370A      0.847484   371A      0.848130   372A      0.851599  
     373A      0.851611   374A      0.853378   375A      0.856540  
     376A      0.856620   377A      0.860610   378A      0.860626  
     379A      0.862537   380A      0.865126   381A      0.872526  
     382A      0.894308   383A      0.894314   384A      0.905331  
     385A      0.905344   386A      0.926074   387A      0.927662  
     388A      0.927807   389A      0.928865   390A      0.928951  
     391A      0.932277   392A      0.938763   393A      0.938776  
     394A      0.939914   395A      0.946882   396A      0.946934  
     397A      0.955227   398A      0.955353   399A      0.955398  
     400A      0.960951   401A      0.986213   402A      0.989544  
     403A      0.989572   404A      1.006174   405A      1.015681  
     406A      1.015715   407A      1.025819   408A      1.025857  
     409A      1.033886   410A      1.042041   411A      1.050492  
     412A      1.050508   413A      1.064462   414A      1.068726  
     415A      1.091032   416A      1.091073   417A      1.110336  
     418A      1.110387   419A      1.117365   420A      1.120142  
     421A      1.120158   422A      1.128854   423A      1.128885  
     424A      1.154254   425A      1.157289   426A      1.157305  
     427A      1.164183   428A      1.216169   429A      1.216222  
     430A      1.220784   431A      1.220928   432A      1.227228  
     433A      1.234911   434A      1.238337   435A      1.238346  
     436A      1.256253   437A      1.256301   438A      1.272081  
     439A      1.278738   440A      1.278741   441A      1.284907  
     442A      1.291808   443A      1.344541   444A      1.344643  
     445A      1.349597   446A      1.356675   447A      1.356721  
     448A      1.361592   449A      1.365676   450A      1.365723  
     451A      1.379771   452A      1.379864   453A      1.385719  
     454A      1.388283   455A      1.391042   456A      1.420632  
     457A      1.431198   458A      1.431255   459A      1.478787  
     460A      1.505406   461A      1.505962   462A      1.523587  
     463A      1.523613   464A      1.528449   465A      1.530026  
     466A      1.530150   467A      1.533360   468A      1.543655  
     469A      1.544533   470A      1.607817   471A      1.616462  
     472A      1.616522   473A      1.619166   474A      1.620462  
     475A      1.632227   476A      1.632534   477A      1.632606  
     478A      1.638357   479A      1.686305   480A      1.698278  
     481A      1.700622   482A      1.710690   483A      1.713647  
     484A      1.721864   485A      1.727559   486A      1.727684  
     487A      1.745908   488A      1.746677   489A      1.748196  
     490A      1.750186   491A      1.762588   492A      1.802453  
     493A      1.803649   494A      1.804022   495A      1.804819  
     496A      1.805991   497A      1.812904   498A      1.816595  
     499A      1.816954   500A      1.818601   501A      1.825789  
     502A      1.825892   503A      1.839984   504A      1.849333  
     505A      1.850276   506A      1.854574   507A      1.855338  
     508A      1.860922   509A      1.873819   510A      1.884213  
     511A      1.885374   512A      1.885672   513A      1.888438  
     514A      1.888676   515A      1.888950   516A      1.890530  
     517A      1.893572   518A      1.894083   519A      1.898452  
     520A      1.898528   521A      1.900653   522A      1.900775  
     523A      1.911653   524A      1.918817   525A      1.919463  
     526A      1.927433   527A      1.927511   528A      1.934428  
     529A      1.940059   530A      1.942956   531A      1.943979  
     532A      1.944021   533A      1.947556   534A      1.948487  
     535A      1.951177   536A      1.951207   537A      1.966124  
     538A      1.967347   539A      1.967641   540A      1.968948  
     541A      1.968982   542A      1.972788   543A      1.979588  
     544A      1.979885   545A      1.987251   546A      1.988048  
     547A      1.992336   548A      1.992388   549A      1.992581  
     550A      1.994726   551A      1.996812   552A      1.999329  
     553A      1.999426   554A      2.008066   555A      2.009052  
     556A      2.009197   557A      2.025933   558A      2.029184  
     559A      2.029804   560A      2.030056   561A      2.031483  
     562A      2.031563   563A      2.040664   564A      2.040705  
     565A      2.047386   566A      2.047433   567A      2.052614  
     568A      2.055495   569A      2.057846   570A      2.057870  
     571A      2.061960   572A      2.062127   573A      2.062228  
     574A      2.068222   575A      2.079966   576A      2.080032  
     577A      2.089812   578A      2.090019   579A      2.118860  
     580A      2.127097   581A      2.127148   582A      2.131420  
     583A      2.137436   584A      2.137584   585A      2.139950  
     586A      2.140447   587A      2.142395   588A      2.142440  
     589A      2.143998   590A      2.154427   591A      2.154644  
     592A      2.159350   593A      2.159536   594A      2.175289  
     595A      2.175380   596A      2.180241   597A      2.180460  
     598A      2.181167   599A      2.188513   600A      2.188549  
     601A      2.198670   602A      2.198805   603A      2.199151  
     604A      2.201820   605A      2.201827   606A      2.206330  
     607A      2.206372   608A      2.208474   609A      2.209386  
     610A      2.209472   611A      2.209748   612A      2.209766  
     613A      2.214334   614A      2.214377   615A      2.220784  
     616A      2.220791   617A      2.221581   618A      2.224621  
     619A      2.224631   620A      2.227712   621A      2.229622  
     622A      2.229671   623A      2.229832   624A      2.231216  
     625A      2.232619   626A      2.234959   627A      2.235061  
     628A      2.236191   629A      2.236338   630A      2.238816  
     631A      2.238934   632A      2.242551   633A      2.242578  
     634A      2.244691   635A      2.247211   636A      2.247347  
     637A      2.251899   638A      2.252490   639A      2.252731  
     640A      2.252838   641A      2.254375   642A      2.275961  
     643A      2.275987   644A      2.297790   645A      2.299095  
     646A      2.302954   647A      2.302977   648A      2.307337  
     649A      2.307525   650A      2.309804   651A      2.312036  
     652A      2.312040   653A      2.326820   654A      2.327594  
     655A      2.327700   656A      2.334344   657A      2.334433  
     658A      2.335402   659A      2.346257   660A      2.346304  
     661A      2.352632   662A      2.352661   663A      2.358052  
     664A      2.369818   665A      2.369906   666A      2.377600  
     667A      2.386570   668A      2.386577   669A      2.388905  
     670A      2.388974   671A      2.394226   672A      2.401005  
     673A      2.404224   674A      2.404582   675A      2.404625  
     676A      2.418923   677A      2.420148   678A      2.423563  
     679A      2.423656   680A      2.427887   681A      2.427932  
     682A      2.429972   683A      2.430135   684A      2.430907  
     685A      2.432794   686A      2.439330   687A      2.440239  
     688A      2.440322   689A      2.442077   690A      2.442130  
     691A      2.448540   692A      2.455008   693A      2.455430  
     694A      2.468342   695A      2.468603   696A      2.470682  
     697A      2.470696   698A      2.477654   699A      2.477862  
     700A      2.478017   701A      2.481889   702A      2.483173  
     703A      2.483189   704A      2.492408   705A      2.495936  
     706A      2.498324   707A      2.498388   708A      2.508501  
     709A      2.508508   710A      2.515227   711A      2.515275  
     712A      2.524943   713A      2.527141   714A      2.530719  
     715A      2.530763   716A      2.536298   717A      2.545798  
     718A      2.546796   719A      2.546968   720A      2.562073  
     721A      2.562112   722A      2.566292   723A      2.566331  
     724A      2.575137   725A      2.584982   726A      2.587654  
     727A      2.595839   728A      2.595897   729A      2.600936  
     730A      2.603131   731A      2.607891   732A      2.607931  
     733A      2.608362   734A      2.608468   735A      2.615016  
     736A      2.620890   737A      2.620963   738A      2.625605  
     739A      2.633849   740A      2.640279   741A      2.640530  
     742A      2.641620   743A      2.665585   744A      2.665651  
     745A      2.681967   746A      2.685464   747A      2.685522  
     748A      2.692173   749A      2.692204   750A      2.693412  
     751A      2.693478   752A      2.694446   753A      2.708307  
     754A      2.708665   755A      2.709393   756A      2.713832  
     757A      2.717792   758A      2.718162   759A      2.718814  
     760A      2.718863   761A      2.736959   762A      2.737051  
     763A      2.753304   764A      2.753325   765A      2.761722  
     766A      2.762002   767A      2.769099   768A      2.769310  
     769A      2.772781   770A      2.774138   771A      2.774341  
     772A      2.780101   773A      2.780125   774A      2.785238  
     775A      2.785317   776A      2.803261   777A      2.803387  
     778A      2.805237   779A      2.805317   780A      2.807042  
     781A      2.811325   782A      2.818191   783A      2.818333  
     784A      2.820371   785A      2.820527   786A      2.826318  
[...]
     706A      1.360298   707A      1.360326   708A      1.365523  
     709A      1.365549   710A      1.380072   711A      1.391421  
     712A      1.399313   713A      1.404144   714A      1.404166  
     715A      1.408134   716A      1.408147   717A      1.412097  
     718A      1.412130   719A      1.420046   720A      1.421621  
     721A      1.426051   722A      1.426135   723A      1.428904  
     724A      1.429570   725A      1.431983   726A      1.436295  
     727A      1.436337   728A      1.439590   729A      1.439643  
     730A      1.439796   731A      1.447826   732A      1.447836  
     733A      1.450501   734A      1.463331   735A      1.463362  
     736A      1.472856   737A      1.473048   738A      1.516495  
     739A      1.516546   740A      1.521241   741A      1.521267  
     742A      1.529166   743A      1.552342   744A      1.573089  
     745A      1.589073   746A      1.599593   747A      1.600165  
     748A      1.601608   749A      1.608559   750A      1.608600  
     751A      1.609404   752A      1.612883   753A      1.613061  
     754A      1.616854   755A      1.621656   756A      1.621804  
     757A      1.629986   758A      1.630325   759A      1.634289  
     760A      1.634327   761A      1.640556   762A      1.640569  
     763A      1.643517   764A      1.643570   765A      1.643651  
     766A      1.643769   767A      1.649103   768A      1.659655  
     769A      1.661012   770A      1.661042   771A      1.667393  
     772A      1.676260   773A      1.676343   774A      1.676731  
     775A      1.676755   776A      1.677010   777A      1.684777  
     778A      1.686603   779A      1.686659   780A      1.696035  
     781A      1.697808   782A      1.699334   783A      1.699380  
     784A      1.701033   785A      1.704747   786A      1.704817  
     787A      1.715712   788A      1.715732   789A      1.739038  
     790A      1.739234   791A      1.741672   792A      1.751385  
     793A      1.760265   794A      1.760285   795A      1.761062  
     796A      1.761733   797A      1.776729   798A      1.776751  
     799A      1.791468   800A      1.791490   801A      1.816538  
     802A      1.816555   803A      1.816747   804A      1.818096  
     805A      1.824647   806A      1.824747   807A      1.827601  
     808A      1.830735   809A      1.830826   810A      1.837910  
     811A      1.842397   812A      1.842671   813A      1.860745  
     814A      1.860791   815A      1.861396   816A      1.861434  
     817A      1.864020   818A      1.868935   819A      1.872217  
     820A      1.880149   821A      1.880205   822A      1.896159  
     823A      1.896255   824A      1.899398   825A      1.902937  
     826A      1.903065   827A      1.908574   828A      1.908704  
     829A      1.913880   830A      1.914139   831A      1.917644  
     832A      1.917795   833A      1.919221   834A      1.921957  
     835A      1.922044   836A      1.940430   837A      1.940894  
     838A      1.941714   839A      1.941885   840A      1.946377  
     841A      1.946408   842A      1.954182   843A      1.954232  
     844A      1.954474   845A      1.954485   846A      1.957984  
     847A      1.970407   848A      1.982787   849A      1.982874  
     850A      1.989670   851A      1.997091   852A      1.998501  
     853A      1.998528   854A      2.004352   855A      2.007996  
     856A      2.012209   857A      2.012372   858A      2.027818  
     859A      2.028410   860A      2.030001   861A      2.030115  
     862A      2.030468   863A      2.031257   864A      2.031364  
     865A      2.047811   866A      2.051799   867A      2.052147  
     868A      2.057345   869A      2.058199   870A      2.059859  
     871A      2.059890   872A      2.068188   873A      2.070145  
     874A      2.071399   875A      2.071767   876A      2.075193  
     877A      2.075262   878A      2.082415   879A      2.084704  
     880A      2.084756   881A      2.092661   882A      2.094787  
     883A      2.095843   884A      2.096845   885A      2.100448  
     886A      2.100519   887A      2.107028   888A      2.108221  
     889A      2.108284   890A      2.109100   891A      2.109111  
     892A      2.111288   893A      2.115331   894A      2.119169  
     895A      2.119216   896A      2.120602   897A      2.120702  
     898A      2.126154   899A      2.126172   900A      2.134097  
     901A      2.134554   902A      2.135734   903A      2.135817  
     904A      2.143157   905A      2.143178   906A      2.155529  
     907A      2.159497   908A      2.159520   909A      2.162832  
     910A      2.162856   911A      2.171212   912A      2.178179  
     913A      2.178252   914A      2.190352   915A      2.190736  
     916A      2.192485   917A      2.193820   918A      2.195765  
     919A      2.195879   920A      2.198225   921A      2.219653  
     922A      2.220247   923A      2.220279   924A      2.227957  
     925A      2.228149   926A      2.228654   927A      2.229084  
     928A      2.243216   929A      2.243563   930A      2.243745  
     931A      2.244137   932A      2.247042   933A      2.260061  
     934A      2.260174   935A      2.270111   936A      2.270122  
     937A      2.272009   938A      2.272055   939A      2.281040  
     940A      2.300171   941A      2.306659   942A      2.310300  
     943A      2.312187   944A      2.320697   945A      2.322254  
     946A      2.330925   947A      2.330970   948A      2.331075  
     949A      2.333852   950A      2.350647   951A      2.351329  
     952A      2.352367   953A      2.352454   954A      2.366247  
     955A      2.366360   956A      2.374564   957A      2.379791  
     958A      2.415830   959A      2.423990   960A      2.424360  
     961A      2.424385   962A      2.436440   963A      2.441065  
     964A      2.441107   965A      2.469864   966A      2.472632  
     967A      2.472792   968A      2.485274   969A      2.485301  
     970A      2.502286   971A      2.519214   972A      2.529753  
     973A      2.529908   974A      2.543321   975A      2.545446  
     976A      2.545480   977A      2.554119   978A      2.554188  
     979A      2.554784   980A      2.559820   981A      2.559826  
     982A      2.572953   983A      2.572987   984A      2.574640  
     985A      2.575191   986A      2.586213   987A      2.586331  
     988A      2.587232   989A      2.589695   990A      2.591381  
     991A      2.605900   992A      2.623356   993A      2.623439  
     994A      2.625545   995A      2.631259   996A      2.631801  
     997A      2.641125   998A      2.641195   999A      2.650735  
    1000A      2.651091  1001A      2.656830  1002A      2.681814  
    1003A      2.682984  1004A      2.683951  1005A      2.686697  
    1006A      2.701857  1007A      2.702183  1008A      2.712990  
    1009A      2.712997  1010A      2.718623  1011A      2.718644  
    1012A      2.722382  1013A      2.722612  1014A      2.738174  
    1015A      2.752138  1016A      2.752538  1017A      2.776781  
    1018A      2.794266  1019A      2.794418  1020A      2.808354  
    1021A      2.808981  1022A      2.810747  1023A      2.816093  
    1024A      2.827075  1025A      2.827320  1026A      2.851891  
    1027A      2.852031  1028A      2.856006  1029A      2.858293  
    1030A      2.859234  1031A      2.859322  1032A      2.867483  
    1033A      2.916636  1034A      2.916658  1035A      2.923997  
    1036A      2.933508  1037A      2.933565  1038A      2.949531  
    1039A      2.949558  1040A      2.962660  1041A      3.006187  
    1042A      3.006417  1043A      3.011848  1044A      3.029311  
    1045A      3.064034  1046A      3.064075  1047A      3.070354  
    1048A      3.070442  1049A      3.109332  1050A      3.110147  
    1051A      3.127459  1052A      3.129465  1053A      3.129756  
    1054A      3.137436  1055A      3.146313  1056A      3.146355  
    1057A      3.146535  1058A      3.148833  1059A      3.148840  
    1060A      3.157499  1061A      3.157879  1062A      3.165459  
    1063A      3.165938  1064A      3.191568  1065A      3.211128  
    1066A      3.218421  1067A      3.237358  1068A      3.272709  
    1069A      3.276857  1070A      3.277005  1071A      3.281723  
    1072A      3.281906  1073A      3.416139  1074A      3.416612  
    1075A      3.442885  1076A      3.481405  1077A      3.484071  
    1078A      3.548927  1079A      3.576988  1080A      3.578961  
    1081A      3.593792  1082A      3.626436  1083A      3.628430  
    1084A      3.662973  1085A      3.668214  1086A      3.769206  
    1087A      3.782623  1088A      3.783579  1089A      3.870656  
    1090A      3.870668  1091A      3.913025  1092A      3.913139  
    1093A      3.976890  1094A      4.010852  1095A      4.032586  
    1096A      4.044477  1097A      4.081068  1098A      4.180716  
    1099A      4.180750  1100A      4.195750  1101A      4.319883  
    1102A      5.745923  1103A      5.746819  1104A      5.746822  
    1105A      5.750573  1106A      5.750573  1107A      5.755769  
    1108A      5.757317  1109A      5.757319  1110A      5.776294  
    1111A      5.776334  1112A      5.778758  1113A      6.017022  
    1114A      6.017932  1115A      6.018275  1116A      6.190356  
    1117A      6.324309  1118A      6.324639  1119A      6.370580  
    1120A      6.370926  1121A      6.372973  1122A      7.142043  
    1123A      7.142161  1124A      7.221199  1125A      7.221306  
    1126A      7.223066  1127A      7.236576  1128A      7.247202  
    1129A      7.247260  1130A      7.450144  1131A      7.450287  
    1132A      7.461017  1133A      7.583552  1134A     12.591746  
    1135A     42.905138  1136A     42.905191  1137A     42.909886  
    1138A     42.934736  

    Final Occupation by Irrep:
              A 
    DOCC [   171 ]
    NA   [   171 ]
    NB   [   171 ]

  @DF-RHF Final Energy: -2055.89164257171069

   => Energetics <=

    Nuclear Repulsion Energy =           6452.5568002797772351
    One-Electron Energy =              -15636.4255979834397294
    Two-Electron Energy =                7127.9771551319518039
    Total Energy =                      -2055.8916425717106904

Computation Completed


Properties will be evaluated at   0.000000,   0.000000,   0.000000 [a0]

Properties computed using the SCF density matrix


 Multipole Moments:

 ------------------------------------------------------------------------------------
     Multipole            Electronic (a.u.)      Nuclear  (a.u.)        Total (a.u.)
 ------------------------------------------------------------------------------------

 L = 1.  Multiply by 2.5417464519 to convert [e a0] to [Debye]
 Dipole X            :          0.0000530            0.0000419            0.0000949
 Dipole Y            :          0.0000284           -0.0000426           -0.0000141
 Dipole Z            :       -567.4057971          567.4067351            0.0009380
 Magnitude           :                                                    0.0009429

 ------------------------------------------------------------------------------------

*** tstop() called on d-18-8-4 at Mon Jan 22 08:11:56 2024
Module time:
	user time   =    2050.79 seconds =      34.18 minutes
	system time =      30.94 seconds =       0.52 minutes
	total time  =        215 seconds =       3.58 minutes
Total time:
	user time   =    6460.95 seconds =     107.68 minutes
	system time =     109.38 seconds =       1.82 minutes
	total time  =        734 seconds =      12.23 minutes
  Constructing Basis Sets for SAPT...

   => Loading Basis Set <=

    Name: (JUN-CC-PVDZ AUX)
    Role: RIFIT
    Keyword: DF_BASIS_SAPT
    atoms 1     entry B          line    56 file /home/gridsan/tfroembgen/.conda/envs/psi4test/share/psi4/basis/jun-cc-pvdz-ri.gbs 
    atoms 2-5   entry F          line   232 file /home/gridsan/tfroembgen/.conda/envs/psi4test/share/psi4/basis/jun-cc-pvdz-ri.gbs 
    atoms 6-59  entry C          line   100 file /home/gridsan/tfroembgen/.conda/envs/psi4test/share/psi4/basis/jun-cc-pvdz-ri.gbs 
    atoms 60-77 entry H          line    30 file /home/gridsan/tfroembgen/.conda/envs/psi4test/share/psi4/basis/jun-cc-pvdz-ri.gbs 

   => Loading Basis Set <=

    Name: (JUN-CC-PVDZ AUX)
    Role: JKFIT
    Keyword: DF_BASIS_ELST
    atoms 1     entry B          line    90 file /home/gridsan/tfroembgen/.conda/envs/psi4test/share/psi4/basis/jun-cc-pvdz-jkfit.gbs 
    atoms 2-5   entry F          line   314 file /home/gridsan/tfroembgen/.conda/envs/psi4test/share/psi4/basis/jun-cc-pvdz-jkfit.gbs 
    atoms 6-59  entry C          line   146 file /home/gridsan/tfroembgen/.conda/envs/psi4test/share/psi4/basis/jun-cc-pvdz-jkfit.gbs 
    atoms 60-77 entry H          line    70 file /home/gridsan/tfroembgen/.conda/envs/psi4test/share/psi4/basis/jun-cc-pvdz-jkfit.gbs 


  //>>>>>>>>>>>>>>>>>>>>>>>>>>>>>>>>>>>//
  //               SSAPT0              //
  //<<<<<<<<<<<<<<<<<<<<<<<<<<<<<<<<<<<//


*** tstart() called on d-18-8-4
*** at Mon Jan 22 08:11:57 2024

        SAPT0  
    Ed Hohenstein
     6 June 2009

      Orbital Information
  --------------------------
    NSO        =      1152
    NMO        =      1138
    NRI        =      4087
    NRI (Elst) =      5075
    NOCC A     =        21
    NOCC B     =       171
    FOCC A     =         5
    FOCC B     =        54
    NVIR A     =      1117
    NVIR B     =       967

    Elst10,r            =     0.006617199654 [Eh]
    Exch10              =    -0.000000172491 [Eh]
    Exch10 (S^2)        =    -0.000000172491 [Eh]

    Iter     Energy [mEh]          dE [mEh]         Residual      Time [s]
       1      -0.00415530       0.004155301       0.492727184           281
       2      -0.00491117       0.000755865       0.258537177           673
       3      -0.00525111       0.000339944       0.044729359           907
       4      -0.00525063      -0.000000478       0.010112119          1060
       5      -0.00524319      -0.000007444       0.001446815          1082
       6      -0.00524435       0.000001167       0.000271959          1095
       7      -0.00524433      -0.000000024       0.000080143          1107
       8      -0.00524431      -0.000000023       0.000020385          1119
       9      -0.00524430      -0.000000003       0.000003618          1131
      10      -0.00524431       0.000000001       0.000000896          1143

    CHF Iterations converged


    Iter     Energy [mEh]          dE [mEh]         Residual      Time [s]
       1      -2.64260738       2.642607376      26.920920098           303
       2      -1.79574662      -0.846860755       3.355621360           361
       3      -1.79775824       0.002011620       1.211097988           378
       4      -1.84058067       0.042822432       0.270843654           395
       5      -1.84245018       0.001869508       0.076818820           413
       6      -1.84158856      -0.000861624       0.036933220           429
       7      -1.84130133      -0.000287230       0.018339659           445
       8      -1.84148354       0.000182207       0.012717570           462
       9      -1.84153619       0.000052655       0.007864606           478
      10      -1.84148069      -0.000055499       0.003575757           495
      11      -1.84147680      -0.000003893       0.001324409           511
      12      -1.84148267       0.000005870       0.000549959           528
      13      -1.84148401       0.000001339       0.000201718           543
      14      -1.84148363      -0.000000374       0.000078204           560
      15      -1.84148319      -0.000000443       0.000023398           579
      16      -1.84148328       0.000000091       0.000012146           598
      17      -1.84148331       0.000000028       0.000005622           618
      18      -1.84148330      -0.000000007       0.000002127           638
      19      -1.84148329      -0.000000008       0.000000911           655

    CHF Iterations converged

    Ind20,r (A<-B)      =    -0.000005244305 [Eh]
    Ind20,r (B<-A)      =    -0.001841483295 [Eh]
    Ind20,r             =    -0.001846727600 [Eh]
    Exch-Ind20,r (A<-B) =     0.000000046321 [Eh]
    Exch-Ind20,r (B<-A) =     0.000000131900 [Eh]
    Exch-Ind20,r        =     0.000000178221 [Eh]
    Disp20              =    -0.000279366311 [Eh]
    Disp20 (SS)         =    -0.000139683155 [Eh]
    Disp20 (OS)         =    -0.000139683155 [Eh]
    Exch-Disp20         =     0.000000074368 [Eh]
    Exch-Disp20 (SS)    =     0.000000059035 [Eh]
    Exch-Disp20 (OS)    =     0.000000015333 [Eh]

    SAPT Results 
  --------------------------------------------------------------------------------------------------------
    Electrostatics                  6.61719965 [mEh]       4.15235547 [kcal/mol]      17.37345530 [kJ/mol]
      Elst10,r                      6.61719965 [mEh]       4.15235547 [kcal/mol]      17.37345530 [kJ/mol]

    Exchange                       -0.00017249 [mEh]      -0.00010824 [kcal/mol]      -0.00045287 [kJ/mol]
      Exch10                       -0.00017249 [mEh]      -0.00010824 [kcal/mol]      -0.00045287 [kJ/mol]
      Exch10(S^2)                  -0.00017249 [mEh]      -0.00010824 [kcal/mol]      -0.00045287 [kJ/mol]

    Induction                      -1.83543938 [mEh]      -1.15175560 [kcal/mol]      -4.81894544 [kJ/mol]
      Ind20,r                      -1.84672760 [mEh]      -1.15883906 [kcal/mol]      -4.84858265 [kJ/mol]
      Exch-Ind20,r                  0.00017822 [mEh]       0.00011184 [kcal/mol]       0.00046792 [kJ/mol]
      delta HF,r (2)                0.01110999 [mEh]       0.00697163 [kcal/mol]       0.02916929 [kJ/mol]

    Dispersion                     -0.27929194 [mEh]      -0.17525834 [kcal/mol]      -0.73328089 [kJ/mol]
      Disp20                       -0.27936631 [mEh]      -0.17530501 [kcal/mol]      -0.73347615 [kJ/mol]
      Exch-Disp20                   0.00007437 [mEh]       0.00004667 [kcal/mol]       0.00019525 [kJ/mol]
      Disp20 (SS)                  -0.13968316 [mEh]      -0.08765250 [kcal/mol]      -0.36673807 [kJ/mol]
      Disp20 (OS)                  -0.13968316 [mEh]      -0.08765250 [kcal/mol]      -0.36673807 [kJ/mol]
      Exch-Disp20 (SS)              0.00005903 [mEh]       0.00003704 [kcal/mol]       0.00015500 [kJ/mol]
      Exch-Disp20 (OS)              0.00001533 [mEh]       0.00000962 [kcal/mol]       0.00004026 [kJ/mol]

  Total HF                          4.78158778 [mEh]       3.00049163 [kcal/mol]      12.55405698 [kJ/mol]
  Total SAPT0                       4.50229584 [mEh]       2.82523329 [kcal/mol]      11.82077609 [kJ/mol]

  Special recipe for scaled SAPT0 (see Manual):
    Electrostatics sSAPT0           6.61719965 [mEh]       4.15235547 [kcal/mol]      17.37345530 [kJ/mol]
    Exchange sSAPT0                -0.00017249 [mEh]      -0.00010824 [kcal/mol]      -0.00045287 [kJ/mol]
    Induction sSAPT0               -1.83543938 [mEh]      -1.15175560 [kcal/mol]      -4.81894544 [kJ/mol]
    Dispersion sSAPT0              -0.27929194 [mEh]      -0.17525834 [kcal/mol]      -0.73328089 [kJ/mol]
  Total sSAPT0                      4.50229584 [mEh]       2.82523329 [kcal/mol]      11.82077609 [kJ/mol]
  --------------------------------------------------------------------------------------------------------

*** tstop() called on d-18-8-4 at Mon Jan 22 09:12:38 2024
Module time:
	user time   =    6728.50 seconds =     112.14 minutes
	system time =     564.96 seconds =       9.42 minutes
	total time  =       3641 seconds =      60.68 minutes
Total time:
	user time   =   13190.71 seconds =     219.85 minutes
	system time =     674.35 seconds =      11.24 minutes
	total time  =       4376 seconds =      72.93 minutes

    Psi4 stopped on: Monday, 22 January 2024 09:12AM
    Psi4 wall time for execution: 1:12:58.13

*** Psi4 exiting successfully. Buy a developer a beer!
