
    -----------------------------------------------------------------------
          Psi4: An Open-Source Ab Initio Electronic Structure Package
                               Psi4 1.9 release

                         Git: Rev {} zzzzzzz 


    D. G. A. Smith, L. A. Burns, A. C. Simmonett, R. M. Parrish,
    M. C. Schieber, R. Galvelis, P. Kraus, H. Kruse, R. Di Remigio,
    A. Alenaizan, A. M. James, S. Lehtola, J. P. Misiewicz, M. Scheurer,
    R. A. Shaw, J. B. Schriber, Y. Xie, Z. L. Glick, D. A. Sirianni,
    J. S. O'Brien, J. M. Waldrop, A. Kumar, E. G. Hohenstein,
    B. P. Pritchard, B. R. Brooks, H. F. Schaefer III, A. Yu. Sokolov,
    K. Patkowski, A. E. DePrince III, U. Bozkaya, R. A. King,
    F. A. Evangelista, J. M. Turney, T. D. Crawford, C. D. Sherrill,
    J. Chem. Phys. 152(18) 184108 (2020). https://doi.org/10.1063/5.0006002

                            Additional Code Authors
    E. T. Seidl, C. L. Janssen, E. F. Valeev, M. L. Leininger,
    J. F. Gonthier, R. M. Richard, H. R. McAlexander, M. Saitow, X. Wang,
    P. Verma, M. H. Lechner, A. Jiang, S. Behnle, A. G. Heide,
    M. F. Herbst, and D. L. Poole

             Previous Authors, Complete List of Code Contributors,
                       and Citations for Specific Modules
    https://github.com/psi4/psi4/blob/master/codemeta.json
    https://github.com/psi4/psi4/graphs/contributors
    http://psicode.org/psi4manual/master/introduction.html#citing-psifour

    -----------------------------------------------------------------------


    Psi4 started on: Saturday, 27 January 2024 10:41AM

    Process ID: 2271033
    Host:       n2cn0902
    PSIDATADIR: /opt/software/pc2/EB-SW/software/PSI4/1.9-foss-2022a/share/psi4
    Memory:     500.0 MiB
    Threads:    16
    
  ==> Input File <==

--------------------------------------------------------------------------
memory 64 GB # how much memory is available ! Depends on the nodes/cores !

molecule dimer {
# monomer A
-1 1    # Charge and multiplicity
B -1.977592e-04  2.742729e-04 -6.999966
F  1.123153e-16  1.430594e-17 -5.587181
F  1.147860e+00  6.757812e-01 -7.471107
F  1.191806e-02 -1.332011e+00 -7.470905
F -1.159666e+00  6.560735e-01 -7.470826
--
# monomer B
0 1     # Charge and multiplicity
C   -3.66844126402057      7.80375217008252      0.00190004133558
C   -4.84759871934653      7.13124183134024     -0.00046653359696
C   -4.89495929917518      5.69633040353158     -0.00103944469517
C   -3.65374067877320      4.98073034095895      0.00662099703436
C   -2.40942512149445      7.11398103667468      0.00209438359570
C   -2.42547734410473      5.68112195090346     -0.00491050527438
C   -1.19474401643570      7.78614419430947      0.00356656413763
C   0.03795902893699      7.09942164575698      0.00139585983271
C   0.03033258741920      5.66948955970466     -0.00408752508301
C   -1.20098450790502      4.96927034791531      0.00488220885047
C   1.27795782581485      7.77285944319479      0.00277170839332
C   2.48535808472416      7.08769688523756      0.00049722048857
C   2.48612868491717      5.65477081024076     -0.00644052849921
C   1.25408291964399      4.95607811366431      0.00518741308898
C   3.75171459140595      7.76391215098033      0.00062407186893
C   4.92356605618520      7.07878077698995     -0.00143240883900
C   4.95560727132542      5.64344746336949     -0.00159282164606
C   3.70680153420475      4.94121020833308      0.00349873852374
H   -3.65852113775815      8.89082741913536      0.00358502958574
H   -1.18921332975660      8.87412108735996      0.00753844057883
H   1.28429423888630      8.86083343548850      0.00693053253426
H   3.75354208679975      8.85103527897216      0.00214659618464
H   5.86995870320703      7.61379483465560     -0.00235777588134
H   -5.78823170750226      7.67630221293400     -0.00202638095293
C   -6.09197395869619      4.99326001364347     -0.00291168518608
C   -6.12866148031747      3.58258016879823     -0.00171050815740
C   -3.66457974004527      3.56418217974434     -0.00463560277484
C   -4.89429820469869      2.86108077590057      0.00453338221034
C   -2.43733499489796      2.84761165708481      0.00719617576166
C   -1.20922785759670      3.54788693497833     -0.00648285103018
C   1.24714157216223      3.53468075142962     -0.00729145743546
C   0.01517603956900      2.83311183930540      0.00439272578912
C   2.46764517244071      2.82128997725533      0.00449278391269
C   3.70254947457969      3.52466015442405     -0.00899517692985
C   6.14498038638375      4.92757236613191     -0.00282626685777
C   6.16658835886151      3.51658447594213     -0.00065971342101
C   4.92460995845939      2.80840792535402      0.00587903281610
H   7.08990550964105      5.46688776622306     -0.00658814770723
H   -7.03104175110130      5.54268795285765     -0.00714490013730
C   -7.33969804112295      2.85841153457957     -0.00333767559888
C   -7.36488195805880      1.47032337158330     -0.00157213747140
C   -4.90350460894690      1.44442681216000     -0.00628840166334
C   -6.13225715261081      0.73993935705394      0.00600164231964
C   -3.67687480051673      0.72669714267312      0.00433931473643
C   -2.44565658606518      1.42964113326212     -0.00597039546461
C   -1.22360068130162      0.71532450163492      0.00545886906656
C   0.00763786931376      1.41738314923765      0.00392452278437
C   1.23121980774686      0.70211669058719     -0.01490206287210
C   2.46082110053113      1.40329203612573      0.00460244601878
C   3.68443025419614      0.68719842821222      0.00377365974158
C   4.91870890153864      1.39173456118907     -0.00862816189375
C   7.36980207796101      2.77948220318441     -0.00242013321349
C   7.38016266612146      1.39121750785509     -0.00087345036788
C   6.13979953912259      0.67411862320065      0.00545489144369
H   -8.27919079934664      3.40711804112415     -0.00763522772059
H   8.31511347147953      3.31811809662368     -0.00663070901292
C   -8.59175593758115      0.72483255304480     -0.00123170985383
C   -8.59902460370342     -0.63263980622873      0.00089141472904
C   -6.13981313911873     -0.67413663715361     -0.00609792660607
C   -7.38018411213749     -1.39126618958160      0.00131813493501
C   -4.91868448025621     -1.39175501803000      0.00624257154343
C   -3.68443829568458     -0.68723731573599     -0.00478966852105
C   -2.46081704024768     -1.40334517882457      0.00575341766833
C   -1.23116201232071     -0.70217386488055     -0.00636696112346
C   -0.00756962538737     -1.41741884941102      0.00108956317991
C   1.22364771588843     -0.71527537726392      0.01109518512883
C   2.44567064933149     -1.42964328900682     -0.00065482763106
C   3.67686670284649     -0.72670743155550     -0.00479541202602
C   6.13224884641929     -0.73997883984993     -0.00632338623858
C   4.90351914550401     -1.44445752054090      0.00751768830159
C   8.59901484869081      0.63260386666793     -0.00101133422380
C   8.59174548810050     -0.72485086719319      0.00072504603735
C   7.36486276438985     -1.47033266560598      0.00049486934466
H   -9.52830597181814      1.27684744919284     -0.00270163681798
H   9.54141097460619      1.17457248844457     -0.00206336648518
C   -7.36983790976868     -2.77954514593389      0.00312634335708
C   -4.92459910905015     -2.80843725734101     -0.00460528907921
C   -6.16662249566744     -3.51665219282533      0.00169655107992
C   -3.70251035970491     -3.52468154912026      0.00571878010666
C   -2.46764698511392     -2.82132596280400     -0.00632585824990
C   -0.01513347410770     -2.83314164539971     -0.00604426974092
C   -1.24712184122656     -3.53473217556300      0.00551968366725
C   1.20924506964357     -3.54791467864352      0.00805871345849
C   2.43733602215464     -2.84764173817541     -0.00608104485234
C   4.89430234377080     -2.86112296828604     -0.00526030478103
C   3.66461525504104     -3.56421984553201      0.00761911515957
C   6.12863901474565     -3.58258405771778      0.00096495711699
C   7.33967266469532     -2.85841330737039      0.00248018319869
H   -9.54144911125902     -1.17456346666430      0.00226083090216
H   9.52826186807155     -1.27691907390448      0.00197485379837
H   -8.31516504384864     -3.31814985321231      0.00729857188773
H   8.27915514249207     -3.40714078989363      0.00681973918158
C   -6.14499418870218     -4.92764727278338      0.00302254913999
C   -3.70678334799751     -4.94126171411716     -0.00679841894792
C   -4.95559005800169     -5.64349397349412      0.00116871569699
C   -2.48612132622665     -5.65478557440947      0.00614125209662
C   -1.25405833548005     -4.95612205000132     -0.00503435388927
C   1.20101257386816     -4.96928038819302     -0.00385322963129
C   -0.03033667441341     -5.66952030313900      0.00398997003238
C   3.65375010132847     -4.98074377541453     -0.00309522988330
C   2.42549269587528     -5.68117463552727      0.00628170066869
C   6.09196561781097     -4.99325796338655      0.00325918379042
C   4.89497644461045     -5.69634842095790      0.00202298796027
H   -7.08989238804069     -5.46699984223871      0.00742531082125
H   7.03105520920009     -5.54265853633254      0.00683896355417
C   -4.92354532219813     -7.07882109967734      0.00061394679214
C   -2.48534208823777     -7.08772807792913     -0.00189594564379
C   -3.75168589177895     -7.76394715763627     -0.00170126671874
C   -0.03794895698805     -7.09946487446944     -0.00168022049625
C   -1.27795610040136     -7.77290438466689     -0.00366491325785
C   2.40944432072629     -7.11402201200282     -0.00081701968533
C   1.19474993715296     -7.78618536556242     -0.00296931056689
C   4.84762105249800     -7.13126211057943      0.00168979497423
C   3.66847160587561     -7.80378799294376     -0.00065863938960
H   -5.86994035041618     -7.61383059804164      0.00215798365757
H   5.78824962538815     -7.67633218931421      0.00281691445618
H   -3.75352693944918     -8.85107156923607     -0.00353718114765
H   -1.28430440589466     -8.86087539249706     -0.00809229711623
H   1.18922157469537     -8.87416062058945     -0.00706194725726
H   3.65854661482387     -8.89086063405326     -0.00231318081200

    units angstrom      # Angstroms are the default
    no_reorient         # Geometry fixed, default
    symmetry c1         # C1 symmetry, default
}

set {
    scf_type DF         # Density fitting, faster than exact integrals
    freeze_core True    # Freeze core electrons
    basis jun-cc-pVDZ   # Jun-cc-pVDZ basis set, recommended for sSAPT0 in https://doi.org/10.1063/1.4867135
}

energy('ssapt0')        # Compute sSAPT0 energy, includes also SAPT0
--------------------------------------------------------------------------

  Memory set to  59.605 GiB by Python driver.

Scratch directory: /tmp/
   => Loading Basis Set <=

    Name: JUN-CC-PVDZ
    Role: ORBITAL
    Keyword: BASIS
    atoms 1                                                   entry B          line   130 file /opt/software/pc2/EB-SW/software/PSI4/1.9-foss-2022a/share/psi4/basis/jun-cc-pvdz.gbs 
    atoms 2-5                                                 entry F          line   266 file /opt/software/pc2/EB-SW/software/PSI4/1.9-foss-2022a/share/psi4/basis/jun-cc-pvdz.gbs 
    atoms 6-23, 30-42, 45-59, 62-78, 81-93, 98-108, 111-119   entry C          line   164 file /opt/software/pc2/EB-SW/software/PSI4/1.9-foss-2022a/share/psi4/basis/jun-cc-pvdz.gbs 
    atoms 24-29, 43-44, 60-61, 79-80, 94-97, 109-110, 120-125 entry H          line    36 file /opt/software/pc2/EB-SW/software/PSI4/1.9-foss-2022a/share/psi4/basis/jun-cc-pvdz.gbs 

   => Loading Basis Set <=

    Name: JUN-CC-PVDZ
    Role: ORBITAL
    Keyword: BASIS
    atoms 1                                                   entry B          line   130 file /opt/software/pc2/EB-SW/software/PSI4/1.9-foss-2022a/share/psi4/basis/jun-cc-pvdz.gbs 
    atoms 2-5                                                 entry F          line   266 file /opt/software/pc2/EB-SW/software/PSI4/1.9-foss-2022a/share/psi4/basis/jun-cc-pvdz.gbs 
    atoms 6-23, 30-42, 45-59, 62-78, 81-93, 98-108, 111-119   entry C          line   164 file /opt/software/pc2/EB-SW/software/PSI4/1.9-foss-2022a/share/psi4/basis/jun-cc-pvdz.gbs 
    atoms 24-29, 43-44, 60-61, 79-80, 94-97, 109-110, 120-125 entry H          line    36 file /opt/software/pc2/EB-SW/software/PSI4/1.9-foss-2022a/share/psi4/basis/jun-cc-pvdz.gbs 


  //>>>>>>>>>>>>>>>>>>>>>>>>>>>>>>>>>>>//
  //              Dimer HF             //
  //<<<<<<<<<<<<<<<<<<<<<<<<<<<<<<<<<<<//

   => Libint2 <=

    Primary   basis highest AM E, G, H:  5, 4, 3
    Auxiliary basis highest AM E, G, H:  6, 5, 4
    Onebody   basis highest AM E, G, H:  6, 5, 4
    Solid Harmonics ordering:            gaussian

*** tstart() called on n2cn0902
*** at Sat Jan 27 10:41:46 2024

   => Loading Basis Set <=

    Name: JUN-CC-PVDZ
    Role: ORBITAL
    Keyword: BASIS
    atoms 1                                                   entry B          line   130 file /opt/software/pc2/EB-SW/software/PSI4/1.9-foss-2022a/share/psi4/basis/jun-cc-pvdz.gbs 
    atoms 2-5                                                 entry F          line   266 file /opt/software/pc2/EB-SW/software/PSI4/1.9-foss-2022a/share/psi4/basis/jun-cc-pvdz.gbs 
    atoms 6-23, 30-42, 45-59, 62-78, 81-93, 98-108, 111-119   entry C          line   164 file /opt/software/pc2/EB-SW/software/PSI4/1.9-foss-2022a/share/psi4/basis/jun-cc-pvdz.gbs 
    atoms 24-29, 43-44, 60-61, 79-80, 94-97, 109-110, 120-125 entry H          line    36 file /opt/software/pc2/EB-SW/software/PSI4/1.9-foss-2022a/share/psi4/basis/jun-cc-pvdz.gbs 


         ---------------------------------------------------------
                                   SCF
               by Justin Turney, Rob Parrish, Andy Simmonett
                          and Daniel G. A. Smith
                              RHF Reference
                       16 Threads,  61035 MiB Core
         ---------------------------------------------------------

  ==> Geometry <==

    Molecular point group: c1
    Full point group: C1

    Geometry (in Angstrom), charge = -1, multiplicity = 1:

       Center              X                  Y                   Z               Mass       
    ------------   -----------------  -----------------  -----------------  -----------------
         B           -0.000201921932     0.000288800891    -6.517840492221    11.009305360000
         F           -0.000004162732     0.000014527991    -5.105055492221    18.998403162730
         F            1.147855837268     0.675795727991    -6.988981492221    18.998403162730
         F            0.011913897268    -1.331996472009    -6.988779492221    18.998403162730
         F           -1.159670162732     0.656088027991    -6.988700492221    18.998403162730
         C           -3.668445426752     7.803766698073     0.484025549115    12.000000000000
         C           -4.847602882078     7.131256359331     0.481658974182    12.000000000000
         C           -4.894963461907     5.696344931522     0.481086063084    12.000000000000
         C           -3.653744841505     4.980744868950     0.488746504813    12.000000000000
         C           -2.409429284226     7.113995564665     0.484219891375    12.000000000000
         C           -2.425481506836     5.681136478894     0.477215002505    12.000000000000
         C           -1.194748179167     7.786158722300     0.485692071917    12.000000000000
         C            0.037954866205     7.099436173748     0.483521367612    12.000000000000
         C            0.030328424687     5.669504087695     0.478037982696    12.000000000000
         C           -1.200988670637     4.969284875906     0.487007716630    12.000000000000
         C            1.277953663083     7.772873971185     0.484897216172    12.000000000000
         C            2.485353921992     7.087711413228     0.482622728268    12.000000000000
         C            2.486124522185     5.654785338231     0.475684979280    12.000000000000
         C            1.254078756912     4.956092641655     0.487312920868    12.000000000000
         C            3.751710428674     7.763926678971     0.482749579648    12.000000000000
         C            4.923561893453     7.078795304981     0.480693098940    12.000000000000
         C            4.955603108594     5.643461991360     0.480532686133    12.000000000000
         C            3.706797371473     4.941224736324     0.485624246303    12.000000000000
         H           -3.658525300490     8.890841947126     0.485710537365     1.007825032230
         H           -1.189217492488     8.874135615351     0.489663948358     1.007825032230
         H            1.284290076155     8.860847963479     0.489056040313     1.007825032230
         H            3.753537924068     8.851049806963     0.484272103964     1.007825032230
         H            5.869954540475     7.613809362646     0.479767731898     1.007825032230
         H           -5.788235870234     7.676316740925     0.480099126826     1.007825032230
         C           -6.091978121428     4.993274541634     0.479213822593    12.000000000000
         C           -6.128665643049     3.582594696789     0.480414999622    12.000000000000
         C           -3.664583902777     3.564196707735     0.477489905004    12.000000000000
         C           -4.894302367430     2.861095303891     0.486658889989    12.000000000000
         C           -2.437339157630     2.847626185075     0.489321683541    12.000000000000
         C           -1.209232020328     3.547901462969     0.475642656749    12.000000000000
         C            1.247137409430     3.534695279420     0.474834050344    12.000000000000
         C            0.015171876837     2.833126367296     0.486518233568    12.000000000000
         C            2.467641009709     2.821304505246     0.486618291692    12.000000000000
         C            3.702545311848     3.524674682415     0.473130330849    12.000000000000
         C            6.144976223652     4.927586894122     0.479299240921    12.000000000000
         C            6.166584196130     3.516599003933     0.481465794358    12.000000000000
         C            4.924605795728     2.808422453345     0.488004540595    12.000000000000
         H            7.089901346909     5.466902294214     0.475537360072     1.007825032230
         H           -7.031045913833     5.542702480848     0.474980607642     1.007825032230
         C           -7.339702203855     2.858426062570     0.478787832180    12.000000000000
         C           -7.364886120791     1.470337899574     0.480553370308    12.000000000000
         C           -4.903508771679     1.444441340151     0.475837106116    12.000000000000
         C           -6.132261315343     0.739953885044     0.488127150099    12.000000000000
         C           -3.676878963248     0.726711670664     0.486464822516    12.000000000000
         C           -2.445660748797     1.429655661253     0.476155112315    12.000000000000
         C           -1.223604844033     0.715339029625     0.487584376846    12.000000000000
         C            0.007633706582     1.417397677228     0.486050030563    12.000000000000
         C            1.231215645015     0.702131218578     0.467223444907    12.000000000000
         C            2.460816937799     1.403306564116     0.486727953798    12.000000000000
         C            3.684426091464     0.687212956203     0.485899167521    12.000000000000
         C            4.918704738807     1.391749089180     0.473497345885    12.000000000000
         C            7.369797915229     2.779496731175     0.479705374566    12.000000000000
         C            7.380158503390     1.391232035846     0.481252057411    12.000000000000
         C            6.139795376391     0.674133151191     0.487580399223    12.000000000000
         H           -8.279194962078     3.407132569115     0.474490280059     1.007825032230
         H            8.315109308748     3.318132624614     0.475494798766     1.007825032230
         C           -8.591760100313     0.724847081035     0.480893797925    12.000000000000
         C           -8.599028766435    -0.632625278238     0.483016922508    12.000000000000
         C           -6.139817301850    -0.674122109163     0.476027581173    12.000000000000
         C           -7.380188274869    -1.391251661591     0.483443642714    12.000000000000
         C           -4.918688642988    -1.391740490039     0.488368079323    12.000000000000
         C           -3.684442458416    -0.687222787745     0.477335839258    12.000000000000
         C           -2.460821202979    -1.403330650834     0.487878925447    12.000000000000
         C           -1.231166175052    -0.702159336890     0.475758546656    12.000000000000
         C           -0.007573788119    -1.417404321420     0.483215070959    12.000000000000
         C            1.223643553157    -0.715260849273     0.493220692908    12.000000000000
         C            2.445666486600    -1.429628761016     0.481470680148    12.000000000000
         C            3.676862540115    -0.726692903565     0.477330095753    12.000000000000
         C            6.132244683688    -0.739964311859     0.475802121541    12.000000000000
         C            4.903514982772    -1.444442992550     0.489643196081    12.000000000000
         C            8.599010685959     0.632618394658     0.481114173555    12.000000000000
         C            8.591741325369    -0.724836339203     0.482850553816    12.000000000000
         C            7.364858601658    -1.470318137615     0.482620377124    12.000000000000
         H           -9.528310134550     1.276861977183     0.479423870961     1.007825032230
         H            9.541406811874     1.174587016435     0.480062141294     1.007825032230
         C           -7.369842072500    -2.779530617943     0.485251851136    12.000000000000
         C           -4.924603271782    -2.808422729350     0.477520218700    12.000000000000
         C           -6.166626658399    -3.516637664835     0.483822058859    12.000000000000
         C           -3.702514522437    -3.524667021130     0.487844287886    12.000000000000
         C           -2.467651147846    -2.821311434813     0.475799649529    12.000000000000
         C           -0.015137636839    -2.833127117409     0.476081238038    12.000000000000
         C           -1.247126003958    -3.534717647572     0.487645191446    12.000000000000
         C            1.209240906912    -3.547900150653     0.490184221238    12.000000000000
         C            2.437331859423    -2.847627210185     0.476044462927    12.000000000000
         C            4.894298181039    -2.861108440295     0.476865202998    12.000000000000
         C            3.664611092309    -3.564205317541     0.489744622939    12.000000000000
         C            6.128634852014    -3.582569529727     0.483090464896    12.000000000000
         C            7.339668501964    -2.858398779380     0.484605690978    12.000000000000
         H           -9.541453273991    -1.174548938674     0.484386338681     1.007825032230
         H            9.528257705340    -1.276904545914     0.484100361577     1.007825032230
         H           -8.315169206580    -3.318135325222     0.489424079667     1.007825032230
         H            8.279150979760    -3.407126261903     0.488945246961     1.007825032230
         C           -6.144998351434    -4.927632744793     0.485148056919    12.000000000000
         C           -3.706787510729    -4.941247186127     0.475327088831    12.000000000000
         C           -4.955594220733    -5.643479445504     0.483294223476    12.000000000000
         C           -2.486125488958    -5.654771046419     0.488266759876    12.000000000000
         C           -1.254062498212    -4.956107522011     0.477091153890    12.000000000000
         C            1.201008411136    -4.969265860202     0.478272278148    12.000000000000
         C           -0.030340837145    -5.669505775148     0.486115477811    12.000000000000
         C            3.653745938597    -4.980729247424     0.479030277896    12.000000000000
         C            2.425488533144    -5.681160107537     0.488407208448    12.000000000000
         C            6.091961455079    -4.993243435396     0.485384691570    12.000000000000
         C            4.894972281879    -5.696333892967     0.484148495739    12.000000000000
         H           -7.089896550772    -5.466985314248     0.489550818600     1.007825032230
         H            7.031051046468    -5.542644008342     0.488964471333     1.007825032230
         C           -4.923549484930    -7.078806571687     0.482739454571    12.000000000000
         C           -2.485346250970    -7.087713549939     0.480229562135    12.000000000000
         C           -3.751690054511    -7.763932629646     0.480424241060    12.000000000000
         C           -0.037953119720    -7.099450346479     0.480445287283    12.000000000000
         C           -1.277960263133    -7.772889856676     0.478460594521    12.000000000000
         C            2.409440157995    -7.114007484012     0.481308488094    12.000000000000
         C            1.194745774421    -7.786170837572     0.479156197212    12.000000000000
         C            4.847616889766    -7.131247582589     0.483815302753    12.000000000000
         C            3.668467443144    -7.803773464953     0.481466868390    12.000000000000
         H           -5.869944513148    -7.613816070051     0.484283491437     1.007825032230
         H            5.788245462656    -7.676317661324     0.484942422235     1.007825032230
         H           -3.753531102181    -8.851057041246     0.478588326631     1.007825032230
         H           -1.284308568626    -8.860860864507     0.474033210663     1.007825032230
         H            1.189217411964    -8.874146092599     0.475063560522     1.007825032230
         H            3.658542452092    -8.890846106063     0.479812326967     1.007825032230

  Running in c1 symmetry.

  Rotational constants: A =      0.00060  B =      0.00060  C =      0.00035 [cm^-1]
  Rotational constants: A =     18.07060  B =     18.06783  C =     10.55117 [MHz]
  Nuclear repulsion = 17198.912497974812140

  Charge       = -1
  Multiplicity = 1
  Electrons    = 642
  Nalpha       = 321
  Nbeta        = 321

  ==> Algorithm <==

  SCF Algorithm Type is DF.
  DIIS enabled.
  MOM disabled.
  Fractional occupation disabled.
  Guess Type is SAD.
  Energy threshold   = 1.00e-08
  Density threshold  = 1.00e-08
  Integral threshold = 1.00e-12

  ==> Primary Basis <==

  Basis Set: JUN-CC-PVDZ
    Blend: JUN-CC-PVDZ
    Number of shells: 880
    Number of basis functions: 1938
    Number of Cartesian functions: 2039
    Spherical Harmonics?: true
    Max angular momentum: 2

   => Loading Basis Set <=

    Name: (JUN-CC-PVDZ AUX)
    Role: JKFIT
    Keyword: DF_BASIS_SCF
    atoms 1                                                   entry B          line    90 file /opt/software/pc2/EB-SW/software/PSI4/1.9-foss-2022a/share/psi4/basis/jun-cc-pvdz-jkfit.gbs 
    atoms 2-5                                                 entry F          line   314 file /opt/software/pc2/EB-SW/software/PSI4/1.9-foss-2022a/share/psi4/basis/jun-cc-pvdz-jkfit.gbs 
    atoms 6-23, 30-42, 45-59, 62-78, 81-93, 98-108, 111-119   entry C          line   146 file /opt/software/pc2/EB-SW/software/PSI4/1.9-foss-2022a/share/psi4/basis/jun-cc-pvdz-jkfit.gbs 
    atoms 24-29, 43-44, 60-61, 79-80, 94-97, 109-110, 120-125 entry H          line    70 file /opt/software/pc2/EB-SW/software/PSI4/1.9-foss-2022a/share/psi4/basis/jun-cc-pvdz-jkfit.gbs 

  ==> Integral Setup <==

  ==> DiskDFJK: Density-Fitted J/K Matrices <==

    J tasked:                  Yes
    K tasked:                  Yes
    wK tasked:                  No
    OpenMP threads:             16
    Integrals threads:          16
    Memory [MiB]:            45776
    Algorithm:                Disk
    Integral Cache:           SAVE
    Schwarz Cutoff:          1E-12
    Fitting Condition:       1E-10

   => Auxiliary Basis Set <=

  Basis Set: (JUN-CC-PVDZ AUX)
    Blend: JUN-CC-PVDZ-JKFIT
    Number of shells: 2943
    Number of basis functions: 8531
    Number of Cartesian functions: 9791
    Spherical Harmonics?: true
    Max angular momentum: 3

  Minimum eigenvalue in the overlap matrix is 9.0452813635E-11.
  Reciprocal condition number of the overlap matrix is 3.9657384564E-12.
    Using canonical orthogonalization.
  Overall, 38 of 1938 possible MOs eliminated.


  ==> Pre-Iterations <==

  SCF Guess: Superposition of Atomic Densities via on-the-fly atomic UHF (no occupation information).

   -------------------------
    Irrep   Nso     Nmo    
   -------------------------
     A       1938    1900 
   -------------------------
    Total    1938    1900
   -------------------------

  ==> Iterations <==

                           Total Energy        Delta E     RMS |[F,P]|

   @DF-RHF iter SAD: -4084.99894023786510   -4.08500e+03   0.00000e+00 
   @DF-RHF iter   1: -4071.52459831338729    1.34743e+01   7.88239e-04 ADIIS/DIIS
   @DF-RHF iter   2: -4072.91700475076141   -1.39241e+00   3.07302e-04 ADIIS/DIIS
   @DF-RHF iter   3: -4073.07877838492641   -1.61774e-01   1.01626e-04 ADIIS/DIIS
   @DF-RHF iter   4: -4073.10029926163679   -2.15209e-02   3.66492e-05 DIIS
   @DF-RHF iter   5: -4073.10346814341392   -3.16888e-03   1.06457e-05 DIIS
   @DF-RHF iter   6: -4073.10388678491063   -4.18641e-04   4.16978e-06 DIIS
   @DF-RHF iter   7: -4073.10406273534227   -1.75950e-04   2.11352e-06 DIIS
   @DF-RHF iter   8: -4073.10411466654250   -5.19312e-05   1.14810e-06 DIIS
   @DF-RHF iter   9: -4073.10412976544740   -1.50989e-05   3.46965e-07 DIIS
   @DF-RHF iter  10: -4073.10413069807555   -9.32628e-07   1.69023e-07 DIIS
   @DF-RHF iter  11: -4073.10413085902655   -1.60951e-07   6.17977e-08 DIIS
   @DF-RHF iter  12: -4073.10413089242593   -3.33994e-08   3.14698e-08 DIIS
   @DF-RHF iter  13: -4073.10413089938675   -6.96082e-09   1.04071e-08 DIIS
   @DF-RHF iter  14: -4073.10413089994881   -5.62068e-10   4.37535e-09 DIIS
  Energy and wave function converged.


  ==> Post-Iterations <==

    Orbital Energies [Eh]
    ---------------------

    Doubly Occupied:                                                      

       1A    -26.065566     2A    -26.065242     3A    -26.065148  
       4A    -26.065062     5A    -11.210456     6A    -11.210454  
       7A    -11.210449     8A    -11.210443     9A    -11.210442  
      10A    -11.210439    11A    -11.210434    12A    -11.210430  
      13A    -11.210425    14A    -11.210421    15A    -11.210420  
      16A    -11.210413    17A    -11.210236    18A    -11.210230  
      19A    -11.210220    20A    -11.210216    21A    -11.210214  
      22A    -11.210206    23A    -11.208975    24A    -11.208955  
      25A    -11.208951    26A    -11.208892    27A    -11.208891  
      28A    -11.208823    29A    -11.208778    30A    -11.208703  
      31A    -11.208701    32A    -11.208624    33A    -11.208621  
      34A    -11.208589    35A    -11.208046    36A    -11.207983  
      37A    -11.207974    38A    -11.207837    39A    -11.207831  
      40A    -11.207726    41A    -11.207460    42A    -11.207429  
      43A    -11.207425    44A    -11.207403    45A    -11.207384  
      46A    -11.207382    47A    -11.207244    48A    -11.207187  
      49A    -11.207095    50A    -11.207090    51A    -11.206993  
      52A    -11.206988    53A    -11.206710    54A    -11.206663  
      55A    -11.206660    56A    -11.206650    57A    -11.206644  
      58A    -11.206629    59A    -11.206544    60A    -11.206543  
      61A    -11.206476    62A    -11.206371    63A    -11.206367  
      64A    -11.206337    65A    -11.206333    66A    -11.206308  
      67A    -11.206303    68A    -11.206040    69A    -11.206038  
      70A    -11.205969    71A    -11.205920    72A    -11.205798  
      73A    -11.205796    74A    -11.205593    75A    -11.205590  
      76A    -11.205585    77A    -11.205583    78A    -11.205580  
      79A    -11.205578    80A    -11.205246    81A    -11.205223  
      82A    -11.204803    83A    -11.204133    84A    -11.204130  
      85A    -11.204125    86A    -11.204123    87A    -11.204120  
      88A    -11.204119    89A    -11.202768    90A    -11.202767  
      91A    -11.202760    92A    -11.202704    93A    -11.202701  
      94A    -11.202698    95A    -11.202677    96A    -11.202675  
      97A    -11.202669    98A    -11.202614    99A    -11.202611  
     100A    -11.202608   101A     -7.537543   102A     -1.409197  
     103A     -1.349654   104A     -1.349376   105A     -1.349211  
     106A     -1.199119   107A     -1.185464   108A     -1.185461  
     109A     -1.167722   110A     -1.167716   111A     -1.161576  
     112A     -1.149016   113A     -1.143172   114A     -1.134628  
     115A     -1.134625   116A     -1.121932   117A     -1.121929  
     118A     -1.102430   119A     -1.102428   120A     -1.099395  
     121A     -1.093113   122A     -1.093110   123A     -1.076067  
     124A     -1.061617   125A     -1.061600   126A     -1.060209  
     127A     -1.059357   128A     -1.059343   129A     -1.036066  
     130A     -1.036051   131A     -1.025515   132A     -1.025514  
     133A     -1.014837   134A     -1.014807   135A     -1.011867  
     136A     -0.994694   137A     -0.994686   138A     -0.988376  
     139A     -0.987284   140A     -0.987283   141A     -0.972164  
     142A     -0.967504   143A     -0.967454   144A     -0.955434  
     145A     -0.954135   146A     -0.951597   147A     -0.947822  
     148A     -0.947775   149A     -0.939934   150A     -0.918492  
     151A     -0.918446   152A     -0.904150   153A     -0.904095  
     154A     -0.854560   155A     -0.854519   156A     -0.852207  
     157A     -0.852165   158A     -0.850523   159A     -0.838833  
     160A     -0.838774   161A     -0.837244   162A     -0.837186  
     163A     -0.836755   164A     -0.820810   165A     -0.818655  
     166A     -0.800026   167A     -0.795084   168A     -0.795063  
     169A     -0.792534   170A     -0.790455   171A     -0.782637  
     172A     -0.782624   173A     -0.777082   174A     -0.777079  
     175A     -0.733508   176A     -0.733492   177A     -0.730725  
     178A     -0.730704   179A     -0.730140   180A     -0.730120  
     181A     -0.729271   182A     -0.714867   183A     -0.707686  
     184A     -0.698014   185A     -0.682423   186A     -0.675021  
     187A     -0.675007   188A     -0.672945   189A     -0.672459  
     190A     -0.672439   191A     -0.665548   192A     -0.661173  
     193A     -0.661168   194A     -0.648097   195A     -0.648085  
     196A     -0.634477   197A     -0.634474   198A     -0.633457  
     199A     -0.630358   200A     -0.630347   201A     -0.626903  
     202A     -0.602312   203A     -0.600492   204A     -0.599281  
     205A     -0.599252   206A     -0.598169   207A     -0.597238  
     208A     -0.597223   209A     -0.588579   210A     -0.588551  
     211A     -0.588444   212A     -0.587643   213A     -0.583870  
     214A     -0.583842   215A     -0.577207   216A     -0.564137  
     217A     -0.564110   218A     -0.562012   219A     -0.557237  
     220A     -0.557231   221A     -0.546929   222A     -0.546151  
     223A     -0.546140   224A     -0.545885   225A     -0.545172  
     226A     -0.545139   227A     -0.543712   228A     -0.543700  
     229A     -0.543174   230A     -0.540827   231A     -0.539829  
     232A     -0.539826   233A     -0.534375   234A     -0.527258  
     235A     -0.527248   236A     -0.526756   237A     -0.526642  
     238A     -0.526557   239A     -0.522786   240A     -0.522784  
     241A     -0.521854   242A     -0.516089   243A     -0.516076  
     244A     -0.515061   245A     -0.514610   246A     -0.514575  
     247A     -0.510382   248A     -0.507573   249A     -0.506502  
     250A     -0.506483   251A     -0.502237   252A     -0.498567  
     253A     -0.497300   254A     -0.491799   255A     -0.482078  
     256A     -0.482068   257A     -0.480957   258A     -0.480937  
     259A     -0.476565   260A     -0.476547   261A     -0.474953  
     262A     -0.465233   263A     -0.465201   264A     -0.463627  
     265A     -0.463621   266A     -0.458460   267A     -0.458442  
     268A     -0.446101   269A     -0.445539   270A     -0.445497  
     271A     -0.444325   272A     -0.444298   273A     -0.440293  
     274A     -0.440284   275A     -0.435581   276A     -0.430266  
     277A     -0.425990   278A     -0.425987   279A     -0.422384  
     280A     -0.416677   281A     -0.414340   282A     -0.414335  
     283A     -0.406758   284A     -0.406674   285A     -0.406589  
     286A     -0.406196   287A     -0.393243   288A     -0.393182  
     289A     -0.387682   290A     -0.387194   291A     -0.387180  
     292A     -0.383553   293A     -0.383275   294A     -0.383213  
     295A     -0.383075   296A     -0.382565   297A     -0.354862  
     298A     -0.354837   299A     -0.334612   300A     -0.334609  
     301A     -0.333160   302A     -0.333112   303A     -0.330180  
     304A     -0.302035   305A     -0.302020   306A     -0.298291  
     307A     -0.283425   308A     -0.281592   309A     -0.281587  
     310A     -0.280455   311A     -0.280372   312A     -0.253622  
     313A     -0.248883   314A     -0.248511   315A     -0.248445  
     316A     -0.234160   317A     -0.206048   318A     -0.200185  
     319A     -0.200126   320A     -0.152101   321A     -0.152011  

    Virtual:                                                              

     322A      0.040529   323A      0.040609   324A      0.087373  
     325A      0.087625   326A      0.087633   327A      0.088298  
     328A      0.088361   329A      0.089714   330A      0.090127  
     331A      0.090148   332A      0.095495   333A      0.098106  
     334A      0.103563   335A      0.103574   336A      0.114847  
     337A      0.114852   338A      0.118319   339A      0.119027  
     340A      0.123165   341A      0.123229   342A      0.123989  
     343A      0.126183   344A      0.126562   345A      0.126902  
     346A      0.128470   347A      0.128848   348A      0.128943  
     349A      0.130259   350A      0.134421   351A      0.134450  
     352A      0.135135   353A      0.139269   354A      0.139284  
     355A      0.140244   356A      0.142290   357A      0.142345  
     358A      0.147079   359A      0.150886   360A      0.150934  
     361A      0.152158   362A      0.153853   363A      0.155325  
     364A      0.156688   365A      0.156771   366A      0.157506  
     367A      0.157586   368A      0.160514   369A      0.162136  
     370A      0.162767   371A      0.162783   372A      0.163326  
     373A      0.163467   374A      0.169606   375A      0.170133  
     376A      0.170216   377A      0.171223   378A      0.172843  
     379A      0.173054   380A      0.177303   381A      0.177346  
     382A      0.182488   383A      0.184510   384A      0.184643  
     385A      0.189309   386A      0.189692   387A      0.189946  
     388A      0.190054   389A      0.190159   390A      0.196093  
     391A      0.196162   392A      0.197340   393A      0.200137  
     394A      0.203610   395A      0.203752   396A      0.204945  
     397A      0.205043   398A      0.205336   399A      0.205696  
     400A      0.206109   401A      0.208473   402A      0.208496  
     403A      0.210286   404A      0.210398   405A      0.213742  
     406A      0.214038   407A      0.214225   408A      0.214981  
     409A      0.215126   410A      0.216055   411A      0.217750  
     412A      0.217831   413A      0.223153   414A      0.224149  
     415A      0.226971   416A      0.226982   417A      0.232489  
     418A      0.232567   419A      0.235111   420A      0.235308  
     421A      0.235479   422A      0.237253   423A      0.239947  
     424A      0.240687   425A      0.242242   426A      0.242600  
     427A      0.243035   428A      0.243071   429A      0.248259  
     430A      0.248636   431A      0.248737   432A      0.249531  
     433A      0.249844   434A      0.249980   435A      0.250680  
     436A      0.250855   437A      0.254097   438A      0.254445  
     439A      0.259391   440A      0.259458   441A      0.260079  
     442A      0.260183   443A      0.261359   444A      0.261579  
     445A      0.262367   446A      0.263969   447A      0.264429  
     448A      0.264456   449A      0.265645   450A      0.265732  
     451A      0.267523   452A      0.267550   453A      0.268357  
     454A      0.268377   455A      0.271896   456A      0.272014  
     457A      0.273808   458A      0.275457   459A      0.276322  
     460A      0.278175   461A      0.279580   462A      0.281709  
     463A      0.282741   464A      0.282804   465A      0.283578  
     466A      0.285358   467A      0.286004   468A      0.286057  
     469A      0.288374   470A      0.288454   471A      0.291849  
     472A      0.293197   473A      0.296144   474A      0.299650  
     475A      0.300386   476A      0.300502   477A      0.302546  
     478A      0.303428   479A      0.304390   480A      0.305280  
     481A      0.305760   482A      0.306980   483A      0.307609  
     484A      0.307655   485A      0.308531   486A      0.309182  
     487A      0.310699   488A      0.310720   489A      0.315022  
     490A      0.315104   491A      0.316107   492A      0.316653  
     493A      0.316764   494A      0.320160   495A      0.320210  
     496A      0.326490   497A      0.327500   498A      0.327549  
     499A      0.329442   500A      0.329622   501A      0.331623  
     502A      0.333239   503A      0.333328   504A      0.333629  
     505A      0.334411   506A      0.336178   507A      0.336709  
     508A      0.336767   509A      0.338142   510A      0.342170  
     511A      0.344147   512A      0.344447   513A      0.345978  
     514A      0.348378   515A      0.348456   516A      0.349902  
     517A      0.350792   518A      0.352315   519A      0.353693  
     520A      0.353755   521A      0.355019   522A      0.355070  
     523A      0.356907   524A      0.357072   525A      0.357488  
     526A      0.358355   527A      0.360399   528A      0.360456  
     529A      0.361805   530A      0.362342   531A      0.362386  
     532A      0.364341   533A      0.364411   534A      0.365107  
     535A      0.369671   536A      0.369795   537A      0.369936  
     538A      0.374293   539A      0.374548   540A      0.375910  
     541A      0.376003   542A      0.377735   543A      0.377950  
     544A      0.377982   545A      0.378354   546A      0.378713  
     547A      0.379339   548A      0.379708   549A      0.380460  
     550A      0.380545   551A      0.385187   552A      0.385821  
     553A      0.387888   554A      0.387988   555A      0.388616  
     556A      0.390951   557A      0.390967   558A      0.392668  
     559A      0.394271   560A      0.394376   561A      0.394767  
     562A      0.397138   563A      0.401093   564A      0.401139  
     565A      0.401946   566A      0.402435   567A      0.403496  
     568A      0.405111   569A      0.405139   570A      0.406531  
     571A      0.407520   572A      0.408739   573A      0.409090  
     574A      0.410182   575A      0.410811   576A      0.412403  
     577A      0.412886   578A      0.413162   579A      0.415732  
     580A      0.416766   581A      0.416800   582A      0.420211  
     583A      0.420831   584A      0.420880   585A      0.427206  
     586A      0.427246   587A      0.428427   588A      0.429859  
     589A      0.430053   590A      0.431626   591A      0.431638  
     592A      0.436571   593A      0.436804   594A      0.436869  
     595A      0.437172   596A      0.437232   597A      0.441058  
     598A      0.441382   599A      0.442487   600A      0.443140  
     601A      0.443643   602A      0.443837   603A      0.445456  
     604A      0.446029   605A      0.446068   606A      0.447294  
     607A      0.448800   608A      0.448850   609A      0.449084  
     610A      0.449142   611A      0.450273   612A      0.451721  
     613A      0.452743   614A      0.452953   615A      0.453748  
     616A      0.456802   617A      0.456974   618A      0.457020  
     619A      0.457221   620A      0.457414   621A      0.458383  
     622A      0.461190   623A      0.461222   624A      0.461719  
     625A      0.462187   626A      0.462451   627A      0.465050  
     628A      0.465169   629A      0.466235   630A      0.466363  
     631A      0.467848   632A      0.468431   633A      0.468904  
     634A      0.469185   635A      0.470300   636A      0.470684  
     637A      0.471987   638A      0.472044   639A      0.473999  
     640A      0.474156   641A      0.474269   642A      0.475663  
     643A      0.476173   644A      0.478402   645A      0.479465  
     646A      0.479602   647A      0.481627   648A      0.482767  
     649A      0.483547   650A      0.484065   651A      0.484416  
     652A      0.485242   653A      0.485409   654A      0.486606  
     655A      0.487690   656A      0.488441   657A      0.490296  
     658A      0.491562   659A      0.492103   660A      0.492463  
     661A      0.492716   662A      0.493416   663A      0.495688  
     664A      0.496673   665A      0.497102   666A      0.499084  
     667A      0.499278   668A      0.503960   669A      0.504278  
     670A      0.504515   671A      0.505376   672A      0.506089  
     673A      0.506263   674A      0.506476   675A      0.509654  
     676A      0.511001   677A      0.511859   678A      0.512806  
     679A      0.513312   680A      0.513420   681A      0.514578  
     682A      0.517781   683A      0.517969   684A      0.518108  
     685A      0.518463   686A      0.519271   687A      0.524621  
     688A      0.525081   689A      0.525386   690A      0.527217  
     691A      0.527271   692A      0.528074   693A      0.528187  
     694A      0.530788   695A      0.531278   696A      0.532174  
     697A      0.533264   698A      0.534293   699A      0.534325  
     700A      0.534935   701A      0.536157   702A      0.536657  
     703A      0.537939   704A      0.538559   705A      0.539567  
     706A      0.540846   707A      0.541249   708A      0.541821  
     709A      0.542524   710A      0.545232   711A      0.545512  
     712A      0.547053   713A      0.547706   714A      0.547738  
     715A      0.548432   716A      0.550138   717A      0.551825  
     718A      0.553397   719A      0.553816   720A      0.555627  
     721A      0.556558   722A      0.557839   723A      0.559221  
     724A      0.559718   725A      0.561218   726A      0.561556  
     727A      0.561705   728A      0.565088   729A      0.565243  
     730A      0.568713   731A      0.569512   732A      0.569552  
     733A      0.570684   734A      0.572404   735A      0.572891  
     736A      0.573799   737A      0.576889   738A      0.576974  
     739A      0.578805   740A      0.580920   741A      0.581361  
     742A      0.582939   743A      0.585253   744A      0.586597  
     745A      0.588742   746A      0.589003   747A      0.589166  
     748A      0.589340   749A      0.598431   750A      0.598905  
     751A      0.602053   752A      0.602461   753A      0.609137  
     754A      0.610957   755A      0.611020   756A      0.615480  
     757A      0.615707   758A      0.616077   759A      0.616358  
     760A      0.616780   761A      0.619086   762A      0.619270  
     763A      0.624317   764A      0.626047   765A      0.626728  
     766A      0.631037   767A      0.631675   768A      0.631789  
     769A      0.634664   770A      0.636766   771A      0.637181  
     772A      0.638007   773A      0.638863   774A      0.639917  
     775A      0.640262   776A      0.640519   777A      0.640676  
     778A      0.644726   779A      0.645179   780A      0.648882  
     781A      0.650983   782A      0.653154   783A      0.655718  
     784A      0.657314   785A      0.657558   786A      0.658290  
     787A      0.659465   788A      0.659744   789A      0.659829  
     790A      0.669745   791A      0.670209   792A      0.672131  
     793A      0.672959   794A      0.673203   795A      0.673424  
     796A      0.678439   797A      0.680002   798A      0.683034  
     799A      0.684876   800A      0.687547   801A      0.688181  
     802A      0.690444   803A      0.695607   804A      0.696706  
     805A      0.699028   806A      0.702267   807A      0.703803  
     808A      0.704505   809A      0.710579   810A      0.710918  
     811A      0.713016   812A      0.713264   813A      0.713325  
     814A      0.717372   815A      0.717638   816A      0.719163  
     817A      0.725064   818A      0.725528   819A      0.729182  
     820A      0.731420   821A      0.737576   822A      0.738641  
     823A      0.740362   824A      0.740868   825A      0.742460  
     826A      0.742549   827A      0.744257   828A      0.746020  
     829A      0.746358   830A      0.746806   831A      0.747326  
     832A      0.754381   833A      0.757429   834A      0.757592  
     835A      0.763404   836A      0.764615   837A      0.765504  
     838A      0.766230   839A      0.766549   840A      0.774762  
     841A      0.779326   842A      0.782075   843A      0.785049  
     844A      0.785455   845A      0.791424   846A      0.793977  
     847A      0.794294   848A      0.797110   849A      0.800676  
     850A      0.800905   851A      0.804669   852A      0.804760  
     853A      0.807047   854A      0.824736   855A      0.827667  
     856A      0.835493   857A      0.836765   858A      0.840493  
     859A      0.840674   860A      0.844546   861A      0.846175  
     862A      0.848120   863A      0.851330   864A      0.852988  
     865A      0.854378   866A      0.856484   867A      0.857571  
     868A      0.859194   869A      0.860283   870A      0.865374  
     871A      0.865927   872A      0.866850   873A      0.867712  
     874A      0.868725   875A      0.869399   876A      0.878068  
     877A      0.879149   878A      0.879590   879A      0.884462  
     880A      0.886993   881A      0.887993   882A      0.888184  
     883A      0.889115   884A      0.890057   885A      0.890328  
     886A      0.895114   887A      0.895828   888A      0.896602  
     889A      0.900115   890A      0.903755   891A      0.905181  
     892A      0.907592   893A      0.908155   894A      0.911100  
     895A      0.911640   896A      0.912292   897A      0.913642  
     898A      0.914953   899A      0.917361   900A      0.919073  
     901A      0.921505   902A      0.922750   903A      0.923310  
     904A      0.923471   905A      0.926253   906A      0.926655  
     907A      0.926987   908A      0.928696   909A      0.929218  
     910A      0.933588   911A      0.934022   912A      0.936238  
     913A      0.939171   914A      0.941332   915A      0.943434  
     916A      0.944419   917A      0.945339   918A      0.946547  
     919A      0.946886   920A      0.947777   921A      0.948220  
     922A      0.949004   923A      0.953589   924A      0.954508  
     925A      0.956066   926A      0.956917   927A      0.958179  
     928A      0.961813   929A      0.965104   930A      0.970610  
     931A      0.971567   932A      0.972036   933A      0.972162  
     934A      0.972707   935A      0.972829   936A      0.974150  
     937A      0.974729   938A      0.978607   939A      0.980722  
     940A      0.982199   941A      0.982830   942A      0.984270  
     943A      0.984529   944A      0.984751   945A      0.989247  
     946A      0.992608   947A      0.992754   948A      0.993775  
     949A      0.995991   950A      0.999865   951A      1.000847  
     952A      1.000956   953A      1.001678   954A      1.002374  
     955A      1.002622   956A      1.003048   957A      1.004812  
     958A      1.007305   959A      1.007573   960A      1.007782  
     961A      1.007806   962A      1.015619   963A      1.015807  
     964A      1.018947   965A      1.019442   966A      1.023432  
     967A      1.023726   968A      1.026817   969A      1.033545  
     970A      1.034343   971A      1.035372   972A      1.036282  
     973A      1.043737   974A      1.044148   975A      1.045281  
     976A      1.045300   977A      1.051049   978A      1.054323  
     979A      1.054485   980A      1.056202   981A      1.056551  
     982A      1.057063   983A      1.057558   984A      1.057689  
     985A      1.065576   986A      1.065609   987A      1.067682  
     988A      1.070144   989A      1.070254   990A      1.072740  
     991A      1.073439   992A      1.073474   993A      1.080976  
     994A      1.082619   995A      1.082903   996A      1.083173  
     997A      1.087980   998A      1.088188   999A      1.094870  
    1000A      1.096934  1001A      1.097105  1002A      1.098349  
    1003A      1.099063  1004A      1.099711  1005A      1.100686  
    1006A      1.101533  1007A      1.101646  1008A      1.102603  
    1009A      1.105036  1010A      1.105384  1011A      1.109414  
    1012A      1.109464  1013A      1.112432  1014A      1.112845  
    1015A      1.113066  1016A      1.115157  1017A      1.116800  
    1018A      1.120567  1019A      1.120781  1020A      1.120994  
    1021A      1.121160  1022A      1.122571  1023A      1.123039  
    1024A      1.123103  1025A      1.125063  1026A      1.125348  
    1027A      1.125594  1028A      1.126076  1029A      1.126492  
    1030A      1.126842  1031A      1.127264  1032A      1.127882  
    1033A      1.129566  1034A      1.129730  1035A      1.130729  
    1036A      1.131834  1037A      1.132681  1038A      1.133279  
    1039A      1.133731  1040A      1.134145  1041A      1.134671  
    1042A      1.135116  1043A      1.135491  1044A      1.136247  
    1045A      1.136731  1046A      1.137307  1047A      1.137750  
    1048A      1.137760  1049A      1.140169  1050A      1.140665  
    1051A      1.140777  1052A      1.148512  1053A      1.149394  
    1054A      1.150570  1055A      1.151007  1056A      1.151293  
    1057A      1.151733  1058A      1.154317  1059A      1.154453  
    1060A      1.155977  1061A      1.156435  1062A      1.156798  
    1063A      1.163243  1064A      1.163984  1065A      1.164943  
    1066A      1.167565  1067A      1.175299  1068A      1.175479  
    1069A      1.176605  1070A      1.177227  1071A      1.182799  
    1072A      1.183294  1073A      1.183575  1074A      1.185150  
    1075A      1.185767  1076A      1.187260  1077A      1.188890  
    1078A      1.191268  1079A      1.191557  1080A      1.194329  
    1081A      1.195045  1082A      1.197579  1083A      1.199284  
    1084A      1.201767  1085A      1.202716  1086A      1.203999  
    1087A      1.204117  1088A      1.205627  1089A      1.207267  
    1090A      1.209692  1091A      1.209802  1092A      1.214862  
    1093A      1.218288  1094A      1.219233  1095A      1.221732  
    1096A      1.223590  1097A      1.224341  1098A      1.229674  
    1099A      1.229938  1100A      1.234270  1101A      1.237678  
    1102A      1.239699  1103A      1.240634  1104A      1.241519  
    1105A      1.241818  1106A      1.246141  1107A      1.247111  
    1108A      1.255606  1109A      1.255892  1110A      1.256079  
    1111A      1.256741  1112A      1.257074  1113A      1.263113  
    1114A      1.263802  1115A      1.265075  1116A      1.265955  
    1117A      1.266288  1118A      1.269364  1119A      1.270407  
    1120A      1.271060  1121A      1.271366  1122A      1.274872  
    1123A      1.277526  1124A      1.285918  1125A      1.286751  
    1126A      1.298518  1127A      1.303016  1128A      1.303488  
    1129A      1.303608  1130A      1.304636  1131A      1.304823  
    1132A      1.311021  1133A      1.313503  1134A      1.313738  
    1135A      1.316847  1136A      1.319409  1137A      1.320028  
    1138A      1.321539  1139A      1.321576  1140A      1.332071  
    1141A      1.334100  1142A      1.334194  1143A      1.340011  
    1144A      1.342632  1145A      1.343050  1146A      1.345581  
    1147A      1.345639  1148A      1.346522  1149A      1.346628  
    1150A      1.348987  1151A      1.349139  1152A      1.352921  
    1153A      1.355122  1154A      1.355698  1155A      1.356110  
    1156A      1.362573  1157A      1.363589  1158A      1.364071  
    1159A      1.365996  1160A      1.369161  1161A      1.369475  
    1162A      1.369757  1163A      1.371033  1164A      1.372402  
    1165A      1.373323  1166A      1.377867  1167A      1.377930  
    1168A      1.381301  1169A      1.381348  1170A      1.385297  
    1171A      1.386286  1172A      1.386330  1173A      1.389919  
    1174A      1.392815  1175A      1.393015  1176A      1.400831  
    1177A      1.401004  1178A      1.404226  1179A      1.408719  
    1180A      1.408989  1181A      1.410904  1182A      1.411067  
    1183A      1.412565  1184A      1.414773  1185A      1.414937  
    1186A      1.417086  1187A      1.420879  1188A      1.422659  
    1189A      1.424194  1190A      1.426832  1191A      1.427037  
    1192A      1.428734  1193A      1.439607  1194A      1.439847  
    1195A      1.440610  1196A      1.444358  1197A      1.444702  
    1198A      1.446686  1199A      1.447110  1200A      1.456943  
    1201A      1.458768  1202A      1.459512  1203A      1.459708  
    1204A      1.460699  1205A      1.460895  1206A      1.461706  
    1207A      1.463170  1208A      1.466996  1209A      1.467792  
    1210A      1.472400  1211A      1.472758  1212A      1.475543  
    1213A      1.475930  1214A      1.479504  1215A      1.480100  
    1216A      1.480319  1217A      1.480519  1218A      1.485069  
    1219A      1.485723  1220A      1.486799  1221A      1.487972  
    1222A      1.488045  1223A      1.492649  1224A      1.492789  
    1225A      1.495131  1226A      1.503075  1227A      1.503292  
    1228A      1.504279  1229A      1.504436  1230A      1.504814  
    1231A      1.505200  1232A      1.505236  1233A      1.518910  
    1234A      1.520763  1235A      1.521207  1236A      1.522450  
    1237A      1.522940  1238A      1.524443  1239A      1.525216  
    1240A      1.532070  1241A      1.535995  1242A      1.536283  
    1243A      1.537071  1244A      1.544531  1245A      1.550801  
    1246A      1.550945  1247A      1.555046  1248A      1.555948  
    1249A      1.558327  1250A      1.558791  1251A      1.569577  
    1252A      1.570329  1253A      1.590281  1254A      1.590553  
    1255A      1.592556  1256A      1.596481  1257A      1.606893  
    1258A      1.606954  1259A      1.637770  1260A      1.638361  
    1261A      1.638422  1262A      1.642744  1263A      1.647899  
    1264A      1.652138  1265A      1.654717  1266A      1.657620  
    1267A      1.659956  1268A      1.660371  1269A      1.660854  
    1270A      1.661609  1271A      1.662254  1272A      1.663772  
    1273A      1.664720  1274A      1.667377  1275A      1.668971  
    1276A      1.669664  1277A      1.669760  1278A      1.672237  
    1279A      1.672983  1280A      1.673184  1281A      1.674936  
    1282A      1.676122  1283A      1.676576  1284A      1.679507  
    1285A      1.679721  1286A      1.680484  1287A      1.684669  
    1288A      1.685369  1289A      1.688228  1290A      1.688723  
    1291A      1.689029  1292A      1.689715  1293A      1.690856  
    1294A      1.691731  1295A      1.692426  1296A      1.693706  
    1297A      1.693942  1298A      1.694088  1299A      1.696330  
    1300A      1.699365  1301A      1.703257  1302A      1.703521  
    1303A      1.707741  1304A      1.707972  1305A      1.708162  
    1306A      1.708336  1307A      1.717618  1308A      1.718196  
    1309A      1.721977  1310A      1.722066  1311A      1.722262  
    1312A      1.722460  1313A      1.722777  1314A      1.725485  
    1315A      1.727816  1316A      1.728837  1317A      1.731337  
    1318A      1.731869  1319A      1.739650  1320A      1.741235  
    1321A      1.745683  1322A      1.747048  1323A      1.749279  
    1324A      1.749411  1325A      1.750251  1326A      1.752098  
    1327A      1.760424  1328A      1.760515  1329A      1.762733  
    1330A      1.767211  1331A      1.767269  1332A      1.767701  
    1333A      1.770956  1334A      1.772799  1335A      1.776043  
    1336A      1.776670  1337A      1.777072  1338A      1.777107  
    1339A      1.784109  1340A      1.789703  1341A      1.799365  
    1342A      1.800220  1343A      1.800672  1344A      1.800883  
    1345A      1.801706  1346A      1.816412  1347A      1.818088  
    1348A      1.819770  1349A      1.832337  1350A      1.835031  
    1351A      1.836853  1352A      1.837540  1353A      1.857202  
    1354A      1.857401  1355A      1.861643  1356A      1.869227  
    1357A      1.875125  1358A      1.876672  1359A      1.878312  
    1360A      1.878478  1361A      1.878774  1362A      1.880216  
    1363A      1.884251  1364A      1.884612  1365A      1.885111  
    1366A      1.889584  1367A      1.890066  1368A      1.890416  
    1369A      1.891452  1370A      1.898930  1371A      1.900081  
    1372A      1.906258  1373A      1.906342  1374A      1.912341  
    1375A      1.912748  1376A      1.916143  1377A      1.916324  
    1378A      1.917797  1379A      1.918079  1380A      1.921935  
    1381A      1.922678  1382A      1.923051  1383A      1.923227  
    1384A      1.925277  1385A      1.931540  1386A      1.931989  
    1387A      1.932884  1388A      1.934995  1389A      1.935910  
    1390A      1.936473  1391A      1.937441  1392A      1.938950  
    1393A      1.942364  1394A      1.944158  1395A      1.945388  
    1396A      1.946768  1397A      1.954962  1398A      1.955170  
    1399A      1.956065  1400A      1.956463  1401A      1.962598  
    1402A      1.963613  1403A      1.968828  1404A      1.969867  
    1405A      1.974285  1406A      1.975911  1407A      1.975998  
    1408A      1.978266  1409A      1.979062  1410A      1.979253  
    1411A      1.986604  1412A      1.987366  1413A      1.987571  
    1414A      1.988802  1415A      1.990221  1416A      1.991127  
    1417A      1.993452  1418A      1.995620  1419A      1.995786  
    1420A      1.997272  1421A      1.997469  1422A      2.002349  
    1423A      2.003486  1424A      2.004278  1425A      2.005805  
    1426A      2.006744  1427A      2.010753  1428A      2.011311  
    1429A      2.011705  1430A      2.012348  1431A      2.012906  
    1432A      2.016786  1433A      2.018337  1434A      2.021398  
    1435A      2.022010  1436A      2.022878  1437A      2.023908  
    1438A      2.027086  1439A      2.028052  1440A      2.035066  
    1441A      2.035407  1442A      2.038789  1443A      2.040770  
    1444A      2.041517  1445A      2.041667  1446A      2.044986  
    1447A      2.047067  1448A      2.047318  1449A      2.047919  
    1450A      2.048299  1451A      2.056239  1452A      2.059434  
    1453A      2.063455  1454A      2.064790  1455A      2.065195  
    1456A      2.068101  1457A      2.068222  1458A      2.070210  
    1459A      2.070925  1460A      2.072424  1461A      2.073071  
    1462A      2.074343  1463A      2.074836  1464A      2.075804  
    1465A      2.081266  1466A      2.083152  1467A      2.085154  
    1468A      2.085783  1469A      2.087756  1470A      2.089256  
    1471A      2.090836  1472A      2.091979  1473A      2.100268  
    1474A      2.101691  1475A      2.104478  1476A      2.106348  
    1477A      2.108516  1478A      2.109364  1479A      2.111835  
    1480A      2.112332  1481A      2.113258  1482A      2.113433  
    1483A      2.119474  1484A      2.120364  1485A      2.121851  
    1486A      2.122011  1487A      2.126411  1488A      2.129150  
    1489A      2.130545  1490A      2.130847  1491A      2.131614  
    1492A      2.133031  1493A      2.134157  1494A      2.134281  
    1495A      2.135451  1496A      2.135793  1497A      2.137799  
    1498A      2.139598  1499A      2.140365  1500A      2.140670  
    1501A      2.140831  1502A      2.140967  1503A      2.141453  
    1504A      2.142118  1505A      2.145310  1506A      2.145619  
    1507A      2.146198  1508A      2.150362  1509A      2.150613  
    1510A      2.152117  1511A      2.152571  1512A      2.152800  
    1513A      2.155245  1514A      2.155799  1515A      2.158929  
    1516A      2.160563  1517A      2.164081  1518A      2.164961  
    1519A      2.165131  1520A      2.165665  1521A      2.166231  
    1522A      2.167535  1523A      2.168898  1524A      2.170247  
    1525A      2.172321  1526A      2.178104  1527A      2.178491  
    1528A      2.178972  1529A      2.180296  1530A      2.180539  
    1531A      2.180769  1532A      2.183913  1533A      2.184523  
    1534A      2.187980  1535A      2.188108  1536A      2.191564  
    1537A      2.194613  1538A      2.194761  1539A      2.195418  
    1540A      2.195778  1541A      2.196342  1542A      2.202023  
    1543A      2.207248  1544A      2.207773  1545A      2.210554  
    1546A      2.210746  1547A      2.211907  1548A      2.212064  
    1549A      2.212450  1550A      2.212615  1551A      2.213353  
    1552A      2.214110  1553A      2.223285  1554A      2.223646  
    1555A      2.232131  1556A      2.232519  1557A      2.233209  
    1558A      2.234141  1559A      2.240785  1560A      2.241636  
    1561A      2.243809  1562A      2.245486  1563A      2.246312  
    1564A      2.248603  1565A      2.250688  1566A      2.251253  
    1567A      2.252512  1568A      2.253533  1569A      2.254607  
    1570A      2.255113  1571A      2.255753  1572A      2.256326  
    1573A      2.257276  1574A      2.261640  1575A      2.265840  
    1576A      2.266240  1577A      2.272833  1578A      2.273089  
    1579A      2.273852  1580A      2.275002  1581A      2.278021  
    1582A      2.278236  1583A      2.280871  1584A      2.281779  
    1585A      2.283527  1586A      2.284080  1587A      2.292044  
    1588A      2.292440  1589A      2.293078  1590A      2.294824  
    1591A      2.298254  1592A      2.298756  1593A      2.302426  
    1594A      2.303325  1595A      2.310312  1596A      2.311572  
    1597A      2.314400  1598A      2.315679  1599A      2.317717  
    1600A      2.319406  1601A      2.328359  1602A      2.334536  
    1603A      2.336135  1604A      2.341495  1605A      2.341928  
    1606A      2.347207  1607A      2.349966  1608A      2.355237  
    1609A      2.355631  1610A      2.360903  1611A      2.370061  
    1612A      2.376759  1613A      2.377146  1614A      2.377670  
    1615A      2.379385  1616A      2.381489  1617A      2.382079  
    1618A      2.383714  1619A      2.386132  1620A      2.387243  
    1621A      2.387798  1622A      2.392295  1623A      2.394028  
    1624A      2.394535  1625A      2.394744  1626A      2.397195  
    1627A      2.397885  1628A      2.398156  1629A      2.403308  
    1630A      2.403540  1631A      2.422681  1632A      2.426846  
    1633A      2.427405  1634A      2.435106  1635A      2.440094  
    1636A      2.443718  1637A      2.444699  1638A      2.446052  
    1639A      2.450258  1640A      2.470247  1641A      2.471600  
    1642A      2.476134  1643A      2.479424  1644A      2.485335  
    1645A      2.493737  1646A      2.495714  1647A      2.504921  
    1648A      2.505821  1649A      2.516085  1650A      2.516200  
    1651A      2.519534  1652A      2.519870  1653A      2.523513  
    1654A      2.523793  1655A      2.541976  1656A      2.542350  
    1657A      2.547705  1658A      2.552922  1659A      2.557059  
    1660A      2.557831  1661A      2.562202  1662A      2.567646  
    1663A      2.591511  1664A      2.591519  1665A      2.591754  
    1666A      2.593621  1667A      2.594386  1668A      2.597652  
    1669A      2.598318  1670A      2.599839  1671A      2.601308  
    1672A      2.602964  1673A      2.610090  1674A      2.610276  
    1675A      2.616503  1676A      2.621951  1677A      2.622964  
    1678A      2.630201  1679A      2.633616  1680A      2.634073  
    1681A      2.636750  1682A      2.637791  1683A      2.638475  
    1684A      2.638770  1685A      2.643152  1686A      2.645015  
    1687A      2.652762  1688A      2.652944  1689A      2.664328  
    1690A      2.664481  1691A      2.664787  1692A      2.665360  
    1693A      2.668255  1694A      2.669124  1695A      2.684777  
    1696A      2.692647  1697A      2.693425  1698A      2.695623  
    1699A      2.697709  1700A      2.698648  1701A      2.700954  
    1702A      2.701873  1703A      2.703418  1704A      2.706799  
    1705A      2.707192  1706A      2.718235  1707A      2.718763  
    1708A      2.719694  1709A      2.721014  1710A      2.721216  
    1711A      2.726949  1712A      2.728043  1713A      2.728178  
    1714A      2.736266  1715A      2.738062  1716A      2.739456  
    1717A      2.743007  1718A      2.743522  1719A      2.743930  
    1720A      2.744480  1721A      2.748351  1722A      2.749499  
    1723A      2.756825  1724A      2.771812  1725A      2.781578  
    1726A      2.781975  1727A      2.782588  1728A      2.782899  
    1729A      2.782987  1730A      2.804611  1731A      2.814158  
    1732A      2.814721  1733A      2.827278  1734A      2.829800  
    1735A      2.832898  1736A      2.833210  1737A      2.852555  
    1738A      2.853081  1739A      2.855218  1740A      2.855317  
    1741A      2.855526  1742A      2.862459  1743A      2.865203  
    1744A      2.867699  1745A      2.868107  1746A      2.868500  
    1747A      2.870522  1748A      2.881784  1749A      2.882016  
    1750A      2.892786  1751A      2.893499  1752A      2.894155  
    1753A      2.894411  1754A      2.898155  1755A      2.914434  
    1756A      2.917850  1757A      2.918337  1758A      2.921898  
    1759A      2.923048  1760A      2.926596  1761A      2.950488  
    1762A      2.951344  1763A      2.951643  1764A      2.952488  
    1765A      2.967035  1766A      2.968308  1767A      2.968410  
    1768A      2.973295  1769A      2.977898  1770A      2.980503  
    1771A      2.986032  1772A      2.986048  1773A      3.014650  
    1774A      3.015792  1775A      3.016288  1776A      3.027382  
    1777A      3.043316  1778A      3.044050  1779A      3.081230  
    1780A      3.082083  1781A      3.086285  1782A      3.089538  
    1783A      3.098681  1784A      3.099303  1785A      3.099904  
    1786A      3.110143  1787A      3.110212  1788A      3.112624  
    1789A      3.124994  1790A      3.158962  1791A      3.163601  
    1792A      3.163895  1793A      3.174331  1794A      3.179478  
    1795A      3.179981  1796A      3.184470  1797A      3.186131  
    1798A      3.192965  1799A      3.193840  1800A      3.200200  
    1801A      3.200488  1802A      3.201033  1803A      3.201495  
    1804A      3.204151  1805A      3.212486  1806A      3.221360  
    1807A      3.223786  1808A      3.225642  1809A      3.225941  
    1810A      3.243877  1811A      3.244532  1812A      3.270427  
    1813A      3.274820  1814A      3.304462  1815A      3.309811  
    1816A      3.313179  1817A      3.313751  1818A      3.314307  
    1819A      3.316202  1820A      3.319776  1821A      3.322879  
    1822A      3.326320  1823A      3.327019  1824A      3.344830  
    1825A      3.346507  1826A      3.347937  1827A      3.354546  
    1828A      3.414400  1829A      3.415272  1830A      3.423051  
    1831A      3.469178  1832A      3.482868  1833A      3.486132  
    1834A      3.493585  1835A      3.500287  1836A      3.503522  
    1837A      3.515371  1838A      3.517795  1839A      3.519475  
    1840A      3.524469  1841A      3.527488  1842A      3.534737  
    1843A      3.538889  1844A      3.547516  1845A      3.562583  
    1846A      3.593391  1847A      3.627481  1848A      3.629230  
    1849A      3.635714  1850A      3.642141  1851A      3.689120  
    1852A      3.692366  1853A      3.717300  1854A      3.719358  
    1855A      3.758113  1856A      3.800852  1857A      3.801445  
    1858A      3.803305  1859A      3.817292  1860A      3.830334  
    1861A      3.833621  1862A      3.893703  1863A      3.895519  
    1864A      3.923594  1865A      3.926801  1866A      3.957096  
    1867A      3.965738  1868A      3.992217  1869A      3.994705  
    1870A      4.000639  1871A      4.001577  1872A      4.011745  
    1873A      4.019445  1874A      4.024953  1875A      4.078395  
    1876A      4.081396  1877A      4.125499  1878A      4.174264  
    1879A      4.174495  1880A      4.174553  1881A      4.202064  
    1882A      4.202091  1883A      4.202727  1884A      4.203015  
    1885A      4.203110  1886A      4.235024  1887A      4.235070  
    1888A      4.241045  1889A      4.284858  1890A      4.357873  
    1891A      4.448924  1892A      4.449534  1893A      4.449868  
    1894A      4.450077  1895A      4.650498  1896A      4.651139  
    1897A      4.651252  1898A      4.751020  1899A      4.786582  
    1900A      4.786962  

    Final Occupation by Irrep:
              A 
    DOCC [   321 ]
    NA   [   321 ]
    NB   [   321 ]

  @DF-RHF Final Energy: -4073.10413089994881

   => Energetics <=

    Nuclear Repulsion Energy =          17198.9124979748121405
    One-Electron Energy =              -39878.6870508794963825
    Two-Electron Energy =               18606.6704220047358831
    Total Energy =                      -4073.1041308999483590

Computation Completed


Properties will be evaluated at   0.000000,   0.000000,   0.000000 [a0]

Properties computed using the SCF density matrix


 Multipole Moments:

 ------------------------------------------------------------------------------------
     Multipole            Electronic (a.u.)      Nuclear  (a.u.)        Total (a.u.)
 ------------------------------------------------------------------------------------

 L = 1.  Multiply by 2.5417464519 to convert [e a0] to [Debye]
 Dipole X            :         -0.0007222           -0.0000548           -0.0007770
 Dipole Y            :          0.0009288           -0.0002464            0.0006824
 Dipole Z            :        -30.3060656           41.6575846           11.3515189
 Magnitude           :                                                   11.3515190

 ------------------------------------------------------------------------------------

*** tstop() called on n2cn0902 at Sat Jan 27 14:33:47 2024
Module time:
	user time   =   24433.39 seconds =     407.22 minutes
	system time =    1428.29 seconds =      23.80 minutes
	total time  =      13921 seconds =     232.02 minutes
Total time:
	user time   =   24433.39 seconds =     407.22 minutes
	system time =    1428.29 seconds =      23.80 minutes
	total time  =      13921 seconds =     232.02 minutes

  //>>>>>>>>>>>>>>>>>>>>>>>>>>>>>>>>>>>//
  //            Monomer A HF           //
  //<<<<<<<<<<<<<<<<<<<<<<<<<<<<<<<<<<<//

   => Libint2 <=

    Primary   basis highest AM E, G, H:  5, 4, 3
    Auxiliary basis highest AM E, G, H:  6, 5, 4
    Onebody   basis highest AM E, G, H:  6, 5, 4
    Solid Harmonics ordering:            gaussian

*** tstart() called on n2cn0902
*** at Sat Jan 27 14:33:47 2024

   => Loading Basis Set <=

    Name: JUN-CC-PVDZ
    Role: ORBITAL
    Keyword: BASIS
    atoms 1                                                   entry B          line   130 file /opt/software/pc2/EB-SW/software/PSI4/1.9-foss-2022a/share/psi4/basis/jun-cc-pvdz.gbs 
    atoms 2-5                                                 entry F          line   266 file /opt/software/pc2/EB-SW/software/PSI4/1.9-foss-2022a/share/psi4/basis/jun-cc-pvdz.gbs 
    atoms 6-23, 30-42, 45-59, 62-78, 81-93, 98-108, 111-119   entry C          line   164 file /opt/software/pc2/EB-SW/software/PSI4/1.9-foss-2022a/share/psi4/basis/jun-cc-pvdz.gbs 
    atoms 24-29, 43-44, 60-61, 79-80, 94-97, 109-110, 120-125 entry H          line    36 file /opt/software/pc2/EB-SW/software/PSI4/1.9-foss-2022a/share/psi4/basis/jun-cc-pvdz.gbs 


         ---------------------------------------------------------
                                   SCF
               by Justin Turney, Rob Parrish, Andy Simmonett
                          and Daniel G. A. Smith
                              RHF Reference
                       16 Threads,  61035 MiB Core
         ---------------------------------------------------------

  ==> Geometry <==

    Molecular point group: c1
    Full point group: C1

    Geometry (in Angstrom), charge = -1, multiplicity = 1:

       Center              X                  Y                   Z               Mass       
    ------------   -----------------  -----------------  -----------------  -----------------
         B           -0.000201921932     0.000288800891    -6.517840492221    11.009305360000
         F           -0.000004162732     0.000014527991    -5.105055492221    18.998403162730
         F            1.147855837268     0.675795727991    -6.988981492221    18.998403162730
         F            0.011913897268    -1.331996472009    -6.988779492221    18.998403162730
         F           -1.159670162732     0.656088027991    -6.988700492221    18.998403162730
      Gh(C)          -3.668445426752     7.803766698073     0.484025549115    12.000000000000
      Gh(C)          -4.847602882078     7.131256359331     0.481658974182    12.000000000000
      Gh(C)          -4.894963461907     5.696344931522     0.481086063084    12.000000000000
      Gh(C)          -3.653744841505     4.980744868950     0.488746504813    12.000000000000
      Gh(C)          -2.409429284226     7.113995564665     0.484219891375    12.000000000000
      Gh(C)          -2.425481506836     5.681136478894     0.477215002505    12.000000000000
      Gh(C)          -1.194748179167     7.786158722300     0.485692071917    12.000000000000
      Gh(C)           0.037954866205     7.099436173748     0.483521367612    12.000000000000
      Gh(C)           0.030328424687     5.669504087695     0.478037982696    12.000000000000
      Gh(C)          -1.200988670637     4.969284875906     0.487007716630    12.000000000000
      Gh(C)           1.277953663083     7.772873971185     0.484897216172    12.000000000000
      Gh(C)           2.485353921992     7.087711413228     0.482622728268    12.000000000000
      Gh(C)           2.486124522185     5.654785338231     0.475684979280    12.000000000000
      Gh(C)           1.254078756912     4.956092641655     0.487312920868    12.000000000000
      Gh(C)           3.751710428674     7.763926678971     0.482749579648    12.000000000000
      Gh(C)           4.923561893453     7.078795304981     0.480693098940    12.000000000000
      Gh(C)           4.955603108594     5.643461991360     0.480532686133    12.000000000000
      Gh(C)           3.706797371473     4.941224736324     0.485624246303    12.000000000000
      Gh(H)          -3.658525300490     8.890841947126     0.485710537365     1.007825032230
      Gh(H)          -1.189217492488     8.874135615351     0.489663948358     1.007825032230
      Gh(H)           1.284290076155     8.860847963479     0.489056040313     1.007825032230
      Gh(H)           3.753537924068     8.851049806963     0.484272103964     1.007825032230
      Gh(H)           5.869954540475     7.613809362646     0.479767731898     1.007825032230
      Gh(H)          -5.788235870234     7.676316740925     0.480099126826     1.007825032230
[...]
    1498A      2.111566  1499A      2.111783  1500A      2.111906  
    1501A      2.112989  1502A      2.114704  1503A      2.116724  
    1504A      2.117785  1505A      2.119698  1506A      2.126149  
    1507A      2.126537  1508A      2.126825  1509A      2.127122  
    1510A      2.127564  1511A      2.127620  1512A      2.129372  
    1513A      2.130780  1514A      2.134675  1515A      2.135146  
    1516A      2.137478  1517A      2.138154  1518A      2.142946  
    1519A      2.143098  1520A      2.143157  1521A      2.143854  
    1522A      2.144308  1523A      2.154346  1524A      2.154900  
    1525A      2.157204  1526A      2.157684  1527A      2.158745  
    1528A      2.159381  1529A      2.159790  1530A      2.160004  
    1531A      2.162462  1532A      2.162840  1533A      2.171170  
    1534A      2.171458  1535A      2.179876  1536A      2.180848  
    1537A      2.181160  1538A      2.182278  1539A      2.188313  
    1540A      2.188917  1541A      2.190759  1542A      2.191507  
    1543A      2.192557  1544A      2.194962  1545A      2.197188  
    1546A      2.198025  1547A      2.200235  1548A      2.200545  
    1549A      2.200752  1550A      2.201412  1551A      2.202996  
    1552A      2.204119  1553A      2.205519  1554A      2.209208  
    1555A      2.213613  1556A      2.213901  1557A      2.220135  
    1558A      2.222160  1559A      2.222689  1560A      2.224172  
    1561A      2.224736  1562A      2.224783  1563A      2.228771  
    1564A      2.231989  1565A      2.232282  1566A      2.233120  
    1567A      2.238662  1568A      2.238818  1569A      2.239401  
    1570A      2.241363  1571A      2.247477  1572A      2.248022  
    1573A      2.248423  1574A      2.249147  1575A      2.260318  
    1576A      2.261476  1577A      2.263405  1578A      2.264874  
    1579A      2.266516  1580A      2.269512  1581A      2.275188  
    1582A      2.282795  1583A      2.284236  1584A      2.290376  
    1585A      2.290983  1586A      2.296263  1587A      2.296744  
    1588A      2.303713  1589A      2.304116  1590A      2.309051  
    1591A      2.315307  1592A      2.324428  1593A      2.324879  
    1594A      2.325166  1595A      2.327095  1596A      2.329370  
    1597A      2.330534  1598A      2.331079  1599A      2.332949  
    1600A      2.334259  1601A      2.334997  1602A      2.339616  
    1603A      2.341350  1604A      2.342126  1605A      2.342300  
    1606A      2.344761  1607A      2.345784  1608A      2.346281  
    1609A      2.349044  1610A      2.349392  1611A      2.367968  
    1612A      2.372194  1613A      2.372866  1614A      2.383565  
    1615A      2.387920  1616A      2.390323  1617A      2.391569  
    1618A      2.392657  1619A      2.396916  1620A      2.418290  
    1621A      2.419465  1622A      2.423546  1623A      2.427512  
    1624A      2.431994  1625A      2.441597  1626A      2.443573  
    1627A      2.451971  1628A      2.453056  1629A      2.464273  
    1630A      2.464327  1631A      2.467706  1632A      2.467984  
    1633A      2.471894  1634A      2.472152  1635A      2.490941  
    1636A      2.491328  1637A      2.494776  1638A      2.501673  
    1639A      2.506001  1640A      2.506949  1641A      2.511428  
    1642A      2.516147  1643A      2.539100  1644A      2.539180  
    1645A      2.539952  1646A      2.541863  1647A      2.542640  
    1648A      2.544766  1649A      2.547515  1650A      2.548434  
    1651A      2.549121  1652A      2.551112  1653A      2.556507  
    1654A      2.556663  1655A      2.564181  1656A      2.571119  
    1657A      2.571444  1658A      2.579951  1659A      2.583641  
    1660A      2.584115  1661A      2.585078  1662A      2.586226  
    1663A      2.588448  1664A      2.588719  1665A      2.593187  
    1666A      2.593475  1667A      2.601280  1668A      2.601414  
    1669A      2.612635  1670A      2.612880  1671A      2.613212  
    1672A      2.613642  1673A      2.616490  1674A      2.617359  
    1675A      2.632510  1676A      2.640534  1677A      2.641478  
    1678A      2.643649  1679A      2.645368  1680A      2.647300  
    1681A      2.648591  1682A      2.649201  1683A      2.652714  
    1684A      2.655665  1685A      2.656030  1686A      2.665963  
    1687A      2.666046  1688A      2.667538  1689A      2.670323  
    1690A      2.670536  1691A      2.673545  1692A      2.677122  
    1693A      2.677537  1694A      2.684210  1695A      2.685517  
    1696A      2.687034  1697A      2.691045  1698A      2.691203  
    1699A      2.691527  1700A      2.692335  1701A      2.696023  
    1702A      2.697251  1703A      2.703936  1704A      2.720585  
    1705A      2.730665  1706A      2.730814  1707A      2.730944  
    1708A      2.731203  1709A      2.731868  1710A      2.752712  
    1711A      2.760121  1712A      2.760671  1713A      2.772841  
    1714A      2.775838  1715A      2.779873  1716A      2.780396  
    1717A      2.799024  1718A      2.799844  1719A      2.801393  
    1720A      2.802152  1721A      2.802202  1722A      2.807826  
    1723A      2.809856  1724A      2.811570  1725A      2.812537  
    1726A      2.814670  1727A      2.814972  1728A      2.815730  
    1729A      2.815964  1730A      2.816080  1731A      2.827958  
    1732A      2.828167  1733A      2.840102  1734A      2.840910  
    1735A      2.841534  1736A      2.841732  1737A      2.845754  
    1738A      2.862328  1739A      2.864911  1740A      2.865336  
    1741A      2.869868  1742A      2.870998  1743A      2.874081  
    1744A      2.895885  1745A      2.896771  1746A      2.912398  
    1747A      2.917638  1748A      2.917746  1749A      2.927394  
    1750A      2.929638  1751A      2.934733  1752A      2.934766  
    1753A      2.962966  1754A      2.964778  1755A      2.965290  
    1756A      2.976073  1757A      2.991698  1758A      2.992438  
    1759A      3.029127  1760A      3.029876  1761A      3.035291  
    1762A      3.038499  1763A      3.046742  1764A      3.047403  
    1765A      3.047951  1766A      3.057464  1767A      3.057507  
    1768A      3.063222  1769A      3.072809  1770A      3.108354  
    1771A      3.112733  1772A      3.113023  1773A      3.122440  
    1774A      3.127022  1775A      3.127678  1776A      3.132401  
    1777A      3.134006  1778A      3.141847  1779A      3.142875  
    1780A      3.148056  1781A      3.148587  1782A      3.149421  
    1783A      3.150009  1784A      3.153506  1785A      3.162059  
    1786A      3.167721  1787A      3.173105  1788A      3.174847  
    1789A      3.175145  1790A      3.193013  1791A      3.193716  
    1792A      3.220000  1793A      3.252826  1794A      3.259372  
    1795A      3.260841  1796A      3.261357  1797A      3.261997  
    1798A      3.264237  1799A      3.268091  1800A      3.271192  
    1801A      3.274581  1802A      3.275291  1803A      3.292668  
    1804A      3.294005  1805A      3.295307  1806A      3.302495  
    1807A      3.361125  1808A      3.362042  1809A      3.369552  
    1810A      3.415689  1811A      3.429603  1812A      3.432018  
    1813A      3.436856  1814A      3.445512  1815A      3.448686  
    1816A      3.460794  1817A      3.464416  1818A      3.465294  
    1819A      3.470927  1820A      3.473886  1821A      3.481038  
    1822A      3.484397  1823A      3.493453  1824A      3.509079  
    1825A      3.539147  1826A      3.574245  1827A      3.575929  
    1828A      3.582406  1829A      3.589953  1830A      3.635520  
    1831A      3.638717  1832A      3.664481  1833A      3.666645  
    1834A      3.704907  1835A      3.747238  1836A      3.749192  
    1837A      3.750430  1838A      3.763017  1839A      3.778559  
    1840A      3.779021  1841A      3.841814  1842A      3.843147  
    1843A      3.871416  1844A      3.874560  1845A      3.904568  
    1846A      3.912892  1847A      3.937798  1848A      3.939890  
    1849A      3.948222  1850A      3.949156  1851A      3.958417  
    1852A      3.964691  1853A      3.970739  1854A      4.024604  
    1855A      4.027409  1856A      4.070678  1857A      4.186230  
    1858A      4.186813  1859A      4.206726  1860A      4.228971  
    1861A      4.301332  1862A      4.327716  1863A      4.392857  
    1864A      5.747742  1865A      5.748689  1866A      5.748707  
    1867A      5.752442  1868A      5.752460  1869A      5.757621  
    1870A      5.759487  1871A      5.759498  1872A      5.778487  
    1873A      5.778535  1874A      5.784268  1875A      6.018922  
    1876A      6.019698  1877A      6.020042  1878A      6.192499  
    1879A      6.326101  1880A      6.326425  1881A      6.373375  
    1882A      6.373729  1883A      6.374853  1884A      7.151716  
    1885A      7.153014  1886A      7.225500  1887A      7.225619  
    1888A      7.228064  1889A      7.238895  1890A      7.259545  
    1891A      7.259716  1892A      7.454796  1893A      7.455058  
    1894A      7.476960  1895A      7.592340  1896A     12.597033  
    1897A     42.907582  1898A     42.907710  1899A     42.913192  
    1900A     42.937582  

    Final Occupation by Irrep:
              A 
    DOCC [   300 ]
    NA   [   300 ]
    NB   [   300 ]

  @DF-RHF Final Energy: -3650.33762890653406

   => Energetics <=

    Nuclear Repulsion Energy =          15611.4211649754324753
    One-Electron Energy =              -36072.0766474645206472
    Two-Electron Energy =               16810.3178535825536528
    Total Energy =                      -3650.3376289065345190

Computation Completed


Properties will be evaluated at   0.000000,   0.000000,   0.000000 [a0]

Properties computed using the SCF density matrix


 Multipole Moments:

 ------------------------------------------------------------------------------------
     Multipole            Electronic (a.u.)      Nuclear  (a.u.)        Total (a.u.)
 ------------------------------------------------------------------------------------

 L = 1.  Multiply by 2.5417464519 to convert [e a0] to [Debye]
 Dipole X            :         -0.0009163            0.0002304           -0.0006858
 Dipole Y            :          0.0010764           -0.0013052           -0.0002289
 Dipole Z            :       -546.6522786          546.6544926            0.0022140
 Magnitude           :                                                    0.0023291

 ------------------------------------------------------------------------------------

*** tstop() called on n2cn0902 at Sat Jan 27 17:23:50 2024
Module time:
	user time   =   16362.49 seconds =     272.71 minutes
	system time =     888.18 seconds =      14.80 minutes
	total time  =       6237 seconds =     103.95 minutes
Total time:
	user time   =   44693.90 seconds =     744.90 minutes
	system time =    2605.74 seconds =      43.43 minutes
	total time  =      24124 seconds =     402.07 minutes
  Constructing Basis Sets for SAPT...

   => Loading Basis Set <=

    Name: (JUN-CC-PVDZ AUX)
    Role: RIFIT
    Keyword: DF_BASIS_SAPT
    atoms 1                                                   entry B          line    56 file /opt/software/pc2/EB-SW/software/PSI4/1.9-foss-2022a/share/psi4/basis/jun-cc-pvdz-ri.gbs 
    atoms 2-5                                                 entry F          line   232 file /opt/software/pc2/EB-SW/software/PSI4/1.9-foss-2022a/share/psi4/basis/jun-cc-pvdz-ri.gbs 
    atoms 6-23, 30-42, 45-59, 62-78, 81-93, 98-108, 111-119   entry C          line   100 file /opt/software/pc2/EB-SW/software/PSI4/1.9-foss-2022a/share/psi4/basis/jun-cc-pvdz-ri.gbs 
    atoms 24-29, 43-44, 60-61, 79-80, 94-97, 109-110, 120-125 entry H          line    30 file /opt/software/pc2/EB-SW/software/PSI4/1.9-foss-2022a/share/psi4/basis/jun-cc-pvdz-ri.gbs 

   => Loading Basis Set <=

    Name: (JUN-CC-PVDZ AUX)
    Role: JKFIT
    Keyword: DF_BASIS_ELST
    atoms 1                                                   entry B          line    90 file /opt/software/pc2/EB-SW/software/PSI4/1.9-foss-2022a/share/psi4/basis/jun-cc-pvdz-jkfit.gbs 
    atoms 2-5                                                 entry F          line   314 file /opt/software/pc2/EB-SW/software/PSI4/1.9-foss-2022a/share/psi4/basis/jun-cc-pvdz-jkfit.gbs 
    atoms 6-23, 30-42, 45-59, 62-78, 81-93, 98-108, 111-119   entry C          line   146 file /opt/software/pc2/EB-SW/software/PSI4/1.9-foss-2022a/share/psi4/basis/jun-cc-pvdz-jkfit.gbs 
    atoms 24-29, 43-44, 60-61, 79-80, 94-97, 109-110, 120-125 entry H          line    70 file /opt/software/pc2/EB-SW/software/PSI4/1.9-foss-2022a/share/psi4/basis/jun-cc-pvdz-jkfit.gbs 


  //>>>>>>>>>>>>>>>>>>>>>>>>>>>>>>>>>>>//
  //               SSAPT0              //
  //<<<<<<<<<<<<<<<<<<<<<<<<<<<<<<<<<<<//


*** tstart() called on n2cn0902
*** at Sat Jan 27 17:23:52 2024

        SAPT0  
    Ed Hohenstein
     6 June 2009

      Orbital Information
  --------------------------
    NSO        =      1938
    NMO        =      1900
    NRI        =      6901
    NRI (Elst) =      8531
    NOCC A     =        21
    NOCC B     =       300
    FOCC A     =         5
    FOCC B     =        96
    NVIR A     =      1879
    NVIR B     =      1600

    Elst10,r            =     0.008333733047 [Eh]
    Exch10              =    -0.000000239514 [Eh]
    Exch10 (S^2)        =    -0.000000239513 [Eh]

    Iter     Energy [mEh]          dE [mEh]         Residual      Time [s]
       1      -0.00365828       0.003658285       0.442730620           809
       2      -0.00428632       0.000628035       0.231703443          1539
       3      -0.00455829       0.000271973       0.041607189          2106
       4      -0.00455872       0.000000428       0.009123763          2900
       5      -0.00455213      -0.000006588       0.001301172          3509
       6      -0.00455312       0.000000989       0.000271276          4078
       7      -0.00455311      -0.000000015       0.000095282          4850
       8      -0.00455308      -0.000000028       0.000019845          5502
       9      -0.00455308      -0.000000003       0.000002993          6201
      10      -0.00455308       0.000000001       0.000000539          6852

    CHF Iterations converged


    Iter     Energy [mEh]          dE [mEh]         Residual      Time [s]
       1      -5.11423595       5.114235952      39.312191410           748
       2      -3.28334545      -1.830890505       4.617875273          1476
       3      -3.26721474      -0.016130711       1.546302426          2058
       4      -3.32596025       0.058745513       0.481914141          2727
       5      -3.33367482       0.007714574       0.165191026          3613
       6      -3.33297399      -0.000700835       0.107063506          4630
       7      -3.33132507      -0.001648917       0.045187021          5312
       8      -3.33144335       0.000118278       0.022716494          6057
       9      -3.33178839       0.000345042       0.012746072          6848
      10      -3.33171973      -0.000068660       0.011986115          7645
      11      -3.33165017      -0.000069559       0.005295258          8327
      12      -3.33165621       0.000006032       0.002367308          8925
      13      -3.33167001       0.000013801       0.000879065          9797
      14      -3.33167320       0.000003188       0.000295918         11193
      15      -3.33167167      -0.000001528       0.000175649         12636
      16      -3.33167015      -0.000001514       0.000101639         14352
      17      -3.33167089       0.000000739       0.000054881         15594
      18      -3.33167116       0.000000264       0.000019097         16797
      19      -3.33167102      -0.000000134       0.000009255         17923
      20      -3.33167099      -0.000000030       0.000003948         19561
      21      -3.33167101       0.000000016       0.000002038         20832
      22      -3.33167102       0.000000009       0.000001066         22033
      23      -3.33167102      -0.000000002       0.000000453         23285

    CHF Iterations converged

    Ind20,r (A<-B)      =    -0.000004553078 [Eh]
    Ind20,r (B<-A)      =    -0.003331671015 [Eh]
    Ind20,r             =    -0.003336224094 [Eh]
    Exch-Ind20,r (A<-B) =     0.000000123882 [Eh]
    Exch-Ind20,r (B<-A) =     0.000000660554 [Eh]
    Exch-Ind20,r        =     0.000000784436 [Eh]
    Disp20              =    -0.000508021772 [Eh]
    Disp20 (SS)         =    -0.000254010886 [Eh]
    Disp20 (OS)         =    -0.000254010886 [Eh]
    Exch-Disp20         =     0.000000327213 [Eh]
    Exch-Disp20 (SS)    =     0.000000252969 [Eh]
    Exch-Disp20 (OS)    =     0.000000074245 [Eh]

    SAPT Results 
  --------------------------------------------------------------------------------------------------------
    Electrostatics                  8.33373305 [mEh]       5.22949644 [kcal/mol]      21.88021310 [kJ/mol]
      Elst10,r                      8.33373305 [mEh]       5.22949644 [kcal/mol]      21.88021310 [kJ/mol]

    Exchange                       -0.00023951 [mEh]      -0.00015030 [kcal/mol]      -0.00062884 [kJ/mol]
      Exch10                       -0.00023951 [mEh]      -0.00015030 [kcal/mol]      -0.00062884 [kJ/mol]
      Exch10(S^2)                  -0.00023951 [mEh]      -0.00015030 [kcal/mol]      -0.00062884 [kJ/mol]

    Induction                      -3.31760427 [mEh]      -2.08182811 [kcal/mol]      -8.71036882 [kJ/mol]
      Ind20,r                      -3.33622409 [mEh]      -2.09351223 [kcal/mol]      -8.75925515 [kJ/mol]
      Exch-Ind20,r                  0.00078444 [mEh]       0.00049224 [kcal/mol]       0.00205954 [kJ/mol]
      delta HF,r (2)                0.01783538 [mEh]       0.01119187 [kcal/mol]       0.04682679 [kJ/mol]

    Dispersion                     -0.50769456 [mEh]      -0.31858315 [kcal/mol]      -1.33295188 [kJ/mol]
      Disp20                       -0.50802177 [mEh]      -0.31878848 [kcal/mol]      -1.33381098 [kJ/mol]
      Exch-Disp20                   0.00032721 [mEh]       0.00020533 [kcal/mol]       0.00085910 [kJ/mol]
      Disp20 (SS)                  -0.25401089 [mEh]      -0.15939424 [kcal/mol]      -0.66690549 [kJ/mol]
      Disp20 (OS)                  -0.25401089 [mEh]      -0.15939424 [kcal/mol]      -0.66690549 [kJ/mol]
      Exch-Disp20 (SS)              0.00025297 [mEh]       0.00015874 [kcal/mol]       0.00066417 [kJ/mol]
      Exch-Disp20 (OS)              0.00007424 [mEh]       0.00004659 [kcal/mol]       0.00019493 [kJ/mol]

  Total HF                          5.01588926 [mEh]       3.14751803 [kcal/mol]      13.16921544 [kJ/mol]
  Total SAPT0                       4.50819470 [mEh]       2.82893488 [kcal/mol]      11.83626355 [kJ/mol]

  Special recipe for scaled SAPT0 (see Manual):
    Electrostatics sSAPT0           8.33373305 [mEh]       5.22949644 [kcal/mol]      21.88021310 [kJ/mol]
    Exchange sSAPT0                -0.00023951 [mEh]      -0.00015030 [kcal/mol]      -0.00062884 [kJ/mol]
    Induction sSAPT0               -3.31760427 [mEh]      -2.08182811 [kcal/mol]      -8.71036882 [kJ/mol]
    Dispersion sSAPT0              -0.50769456 [mEh]      -0.31858315 [kcal/mol]      -1.33295188 [kJ/mol]
  Total sSAPT0                      4.50819470 [mEh]       2.82893488 [kcal/mol]      11.83626355 [kJ/mol]
  --------------------------------------------------------------------------------------------------------

*** tstop() called on n2cn0902 at Mon Jan 29 12:52:44 2024
Module time:
	user time   =   62397.52 seconds =    1039.96 minutes
	system time =    3513.38 seconds =      58.56 minutes
	total time  =     156532 seconds =    2608.87 minutes
Total time:
	user time   =  107092.87 seconds =    1784.88 minutes
	system time =    6119.12 seconds =     101.99 minutes
	total time  =     180658 seconds =    3010.97 minutes

    Psi4 stopped on: Monday, 29 January 2024 12:52PM
    Psi4 wall time for execution: 2 days, 2:11:00.71

*** Psi4 exiting successfully. Buy a developer a beer!
