
    -----------------------------------------------------------------------
          Psi4: An Open-Source Ab Initio Electronic Structure Package
                               Psi4 1.9 release

                         Git: Rev {} zzzzzzz 


    D. G. A. Smith, L. A. Burns, A. C. Simmonett, R. M. Parrish,
    M. C. Schieber, R. Galvelis, P. Kraus, H. Kruse, R. Di Remigio,
    A. Alenaizan, A. M. James, S. Lehtola, J. P. Misiewicz, M. Scheurer,
    R. A. Shaw, J. B. Schriber, Y. Xie, Z. L. Glick, D. A. Sirianni,
    J. S. O'Brien, J. M. Waldrop, A. Kumar, E. G. Hohenstein,
    B. P. Pritchard, B. R. Brooks, H. F. Schaefer III, A. Yu. Sokolov,
    K. Patkowski, A. E. DePrince III, U. Bozkaya, R. A. King,
    F. A. Evangelista, J. M. Turney, T. D. Crawford, C. D. Sherrill,
    J. Chem. Phys. 152(18) 184108 (2020). https://doi.org/10.1063/5.0006002

                            Additional Code Authors
    E. T. Seidl, C. L. Janssen, E. F. Valeev, M. L. Leininger,
    J. F. Gonthier, R. M. Richard, H. R. McAlexander, M. Saitow, X. Wang,
    P. Verma, M. H. Lechner, A. Jiang, S. Behnle, A. G. Heide,
    M. F. Herbst, and D. L. Poole

             Previous Authors, Complete List of Code Contributors,
                       and Citations for Specific Modules
    https://github.com/psi4/psi4/blob/master/codemeta.json
    https://github.com/psi4/psi4/graphs/contributors
    http://psicode.org/psi4manual/master/introduction.html#citing-psifour

    -----------------------------------------------------------------------


    Psi4 started on: Saturday, 27 January 2024 12:12AM

    Process ID: 284431
    Host:       n2cn0973
    PSIDATADIR: /opt/software/pc2/EB-SW/software/PSI4/1.9-foss-2022a/share/psi4
    Memory:     500.0 MiB
    Threads:    16
    
  ==> Input File <==

--------------------------------------------------------------------------
memory 64 GB # how much memory is available ! Depends on the nodes/cores !

molecule dimer {
# monomer A
+1 1    # Charge and multiplicity
C  0.680067 -0.008042 -7.615929
C -0.680504 -0.006014 -7.615545
N -1.085635 -0.005016 -6.297221
C  0.000108 -0.001740 -5.515820
C -2.477365  0.044390 -5.829242
N  1.085222 -0.005016 -6.297221
H  1.385146 -0.015870 -8.433368
H -1.385302 -0.006204 -8.433214
H -0.000009  0.000007 -4.434731
C  2.478117 -0.021908 -5.832123
H  2.490592  0.005437 -4.741870
H  2.967028 -0.935354 -6.179299
H  3.001428  0.853575 -6.223595
H -2.857359  1.066461 -5.909201
H -3.082679 -0.625694 -6.442306
H -2.518128 -0.282594 -4.789294
--
# monomer B
0 1     # Charge and multiplicity
C   -3.66844126402057      7.80375217008252      0.00190004133558
C   -4.84759871934653      7.13124183134024     -0.00046653359696
C   -4.89495929917518      5.69633040353158     -0.00103944469517
C   -3.65374067877320      4.98073034095895      0.00662099703436
C   -2.40942512149445      7.11398103667468      0.00209438359570
C   -2.42547734410473      5.68112195090346     -0.00491050527438
C   -1.19474401643570      7.78614419430947      0.00356656413763
C   0.03795902893699      7.09942164575698      0.00139585983271
C   0.03033258741920      5.66948955970466     -0.00408752508301
C   -1.20098450790502      4.96927034791531      0.00488220885047
C   1.27795782581485      7.77285944319479      0.00277170839332
C   2.48535808472416      7.08769688523756      0.00049722048857
C   2.48612868491717      5.65477081024076     -0.00644052849921
C   1.25408291964399      4.95607811366431      0.00518741308898
C   3.75171459140595      7.76391215098033      0.00062407186893
C   4.92356605618520      7.07878077698995     -0.00143240883900
C   4.95560727132542      5.64344746336949     -0.00159282164606
C   3.70680153420475      4.94121020833308      0.00349873852374
H   -3.65852113775815      8.89082741913536      0.00358502958574
H   -1.18921332975660      8.87412108735996      0.00753844057883
H   1.28429423888630      8.86083343548850      0.00693053253426
H   3.75354208679975      8.85103527897216      0.00214659618464
H   5.86995870320703      7.61379483465560     -0.00235777588134
H   -5.78823170750226      7.67630221293400     -0.00202638095293
C   -6.09197395869619      4.99326001364347     -0.00291168518608
C   -6.12866148031747      3.58258016879823     -0.00171050815740
C   -3.66457974004527      3.56418217974434     -0.00463560277484
C   -4.89429820469869      2.86108077590057      0.00453338221034
C   -2.43733499489796      2.84761165708481      0.00719617576166
C   -1.20922785759670      3.54788693497833     -0.00648285103018
C   1.24714157216223      3.53468075142962     -0.00729145743546
C   0.01517603956900      2.83311183930540      0.00439272578912
C   2.46764517244071      2.82128997725533      0.00449278391269
C   3.70254947457969      3.52466015442405     -0.00899517692985
C   6.14498038638375      4.92757236613191     -0.00282626685777
C   6.16658835886151      3.51658447594213     -0.00065971342101
C   4.92460995845939      2.80840792535402      0.00587903281610
H   7.08990550964105      5.46688776622306     -0.00658814770723
H   -7.03104175110130      5.54268795285765     -0.00714490013730
C   -7.33969804112295      2.85841153457957     -0.00333767559888
C   -7.36488195805880      1.47032337158330     -0.00157213747140
C   -4.90350460894690      1.44442681216000     -0.00628840166334
C   -6.13225715261081      0.73993935705394      0.00600164231964
C   -3.67687480051673      0.72669714267312      0.00433931473643
C   -2.44565658606518      1.42964113326212     -0.00597039546461
C   -1.22360068130162      0.71532450163492      0.00545886906656
C   0.00763786931376      1.41738314923765      0.00392452278437
C   1.23121980774686      0.70211669058719     -0.01490206287210
C   2.46082110053113      1.40329203612573      0.00460244601878
C   3.68443025419614      0.68719842821222      0.00377365974158
C   4.91870890153864      1.39173456118907     -0.00862816189375
C   7.36980207796101      2.77948220318441     -0.00242013321349
C   7.38016266612146      1.39121750785509     -0.00087345036788
C   6.13979953912259      0.67411862320065      0.00545489144369
H   -8.27919079934664      3.40711804112415     -0.00763522772059
H   8.31511347147953      3.31811809662368     -0.00663070901292
C   -8.59175593758115      0.72483255304480     -0.00123170985383
C   -8.59902460370342     -0.63263980622873      0.00089141472904
C   -6.13981313911873     -0.67413663715361     -0.00609792660607
C   -7.38018411213749     -1.39126618958160      0.00131813493501
C   -4.91868448025621     -1.39175501803000      0.00624257154343
C   -3.68443829568458     -0.68723731573599     -0.00478966852105
C   -2.46081704024768     -1.40334517882457      0.00575341766833
C   -1.23116201232071     -0.70217386488055     -0.00636696112346
C   -0.00756962538737     -1.41741884941102      0.00108956317991
C   1.22364771588843     -0.71527537726392      0.01109518512883
C   2.44567064933149     -1.42964328900682     -0.00065482763106
C   3.67686670284649     -0.72670743155550     -0.00479541202602
C   6.13224884641929     -0.73997883984993     -0.00632338623858
C   4.90351914550401     -1.44445752054090      0.00751768830159
C   8.59901484869081      0.63260386666793     -0.00101133422380
C   8.59174548810050     -0.72485086719319      0.00072504603735
C   7.36486276438985     -1.47033266560598      0.00049486934466
H   -9.52830597181814      1.27684744919284     -0.00270163681798
H   9.54141097460619      1.17457248844457     -0.00206336648518
C   -7.36983790976868     -2.77954514593389      0.00312634335708
C   -4.92459910905015     -2.80843725734101     -0.00460528907921
C   -6.16662249566744     -3.51665219282533      0.00169655107992
C   -3.70251035970491     -3.52468154912026      0.00571878010666
C   -2.46764698511392     -2.82132596280400     -0.00632585824990
C   -0.01513347410770     -2.83314164539971     -0.00604426974092
C   -1.24712184122656     -3.53473217556300      0.00551968366725
C   1.20924506964357     -3.54791467864352      0.00805871345849
C   2.43733602215464     -2.84764173817541     -0.00608104485234
C   4.89430234377080     -2.86112296828604     -0.00526030478103
C   3.66461525504104     -3.56421984553201      0.00761911515957
C   6.12863901474565     -3.58258405771778      0.00096495711699
C   7.33967266469532     -2.85841330737039      0.00248018319869
H   -9.54144911125902     -1.17456346666430      0.00226083090216
H   9.52826186807155     -1.27691907390448      0.00197485379837
H   -8.31516504384864     -3.31814985321231      0.00729857188773
H   8.27915514249207     -3.40714078989363      0.00681973918158
C   -6.14499418870218     -4.92764727278338      0.00302254913999
C   -3.70678334799751     -4.94126171411716     -0.00679841894792
C   -4.95559005800169     -5.64349397349412      0.00116871569699
C   -2.48612132622665     -5.65478557440947      0.00614125209662
C   -1.25405833548005     -4.95612205000132     -0.00503435388927
C   1.20101257386816     -4.96928038819302     -0.00385322963129
C   -0.03033667441341     -5.66952030313900      0.00398997003238
C   3.65375010132847     -4.98074377541453     -0.00309522988330
C   2.42549269587528     -5.68117463552727      0.00628170066869
C   6.09196561781097     -4.99325796338655      0.00325918379042
C   4.89497644461045     -5.69634842095790      0.00202298796027
H   -7.08989238804069     -5.46699984223871      0.00742531082125
H   7.03105520920009     -5.54265853633254      0.00683896355417
C   -4.92354532219813     -7.07882109967734      0.00061394679214
C   -2.48534208823777     -7.08772807792913     -0.00189594564379
C   -3.75168589177895     -7.76394715763627     -0.00170126671874
C   -0.03794895698805     -7.09946487446944     -0.00168022049625
C   -1.27795610040136     -7.77290438466689     -0.00366491325785
C   2.40944432072629     -7.11402201200282     -0.00081701968533
C   1.19474993715296     -7.78618536556242     -0.00296931056689
C   4.84762105249800     -7.13126211057943      0.00168979497423
C   3.66847160587561     -7.80378799294376     -0.00065863938960
H   -5.86994035041618     -7.61383059804164      0.00215798365757
H   5.78824962538815     -7.67633218931421      0.00281691445618
H   -3.75352693944918     -8.85107156923607     -0.00353718114765
H   -1.28430440589466     -8.86087539249706     -0.00809229711623
H   1.18922157469537     -8.87416062058945     -0.00706194725726
H   3.65854661482387     -8.89086063405326     -0.00231318081200

    units angstrom      # Angstroms are the default
    no_reorient         # Geometry fixed, default
    symmetry c1         # C1 symmetry, default
}

set {
    scf_type DF         # Density fitting, faster than exact integrals
    freeze_core True    # Freeze core electrons
    basis jun-cc-pVDZ   # Jun-cc-pVDZ basis set, recommended for sSAPT0 in https://doi.org/10.1063/1.4867135
}

energy('ssapt0')        # Compute sSAPT0 energy, includes also SAPT0
--------------------------------------------------------------------------

  Memory set to  59.605 GiB by Python driver.

Scratch directory: /tmp/
   => Loading Basis Set <=

    Name: JUN-CC-PVDZ
    Role: ORBITAL
    Keyword: BASIS
    atoms 1-2, 4-5, 10, 17-34, 41-53, 56-70, 73-89, 92-104, 109-119, 122-130 entry C          line   164 file /opt/software/pc2/EB-SW/software/PSI4/1.9-foss-2022a/share/psi4/basis/jun-cc-pvdz.gbs 
    atoms 3, 6                                                               entry N          line   198 file /opt/software/pc2/EB-SW/software/PSI4/1.9-foss-2022a/share/psi4/basis/jun-cc-pvdz.gbs 
    atoms 7-9, 11-16, 35-40, 54-55, 71-72, 90-91, 105-108, 120-121, 131-136  entry H          line    36 file /opt/software/pc2/EB-SW/software/PSI4/1.9-foss-2022a/share/psi4/basis/jun-cc-pvdz.gbs 

   => Loading Basis Set <=

    Name: JUN-CC-PVDZ
    Role: ORBITAL
    Keyword: BASIS
    atoms 1-2, 4-5, 10, 17-34, 41-53, 56-70, 73-89, 92-104, 109-119, 122-130 entry C          line   164 file /opt/software/pc2/EB-SW/software/PSI4/1.9-foss-2022a/share/psi4/basis/jun-cc-pvdz.gbs 
    atoms 3, 6                                                               entry N          line   198 file /opt/software/pc2/EB-SW/software/PSI4/1.9-foss-2022a/share/psi4/basis/jun-cc-pvdz.gbs 
    atoms 7-9, 11-16, 35-40, 54-55, 71-72, 90-91, 105-108, 120-121, 131-136  entry H          line    36 file /opt/software/pc2/EB-SW/software/PSI4/1.9-foss-2022a/share/psi4/basis/jun-cc-pvdz.gbs 


  //>>>>>>>>>>>>>>>>>>>>>>>>>>>>>>>>>>>//
  //              Dimer HF             //
  //<<<<<<<<<<<<<<<<<<<<<<<<<<<<<<<<<<<//

   => Libint2 <=

    Primary   basis highest AM E, G, H:  5, 4, 3
    Auxiliary basis highest AM E, G, H:  6, 5, 4
    Onebody   basis highest AM E, G, H:  6, 5, 4
    Solid Harmonics ordering:            gaussian

*** tstart() called on n2cn0973
*** at Sat Jan 27 00:12:14 2024

   => Loading Basis Set <=

    Name: JUN-CC-PVDZ
    Role: ORBITAL
    Keyword: BASIS
    atoms 1-2, 4-5, 10, 17-34, 41-53, 56-70, 73-89, 92-104, 109-119, 122-130 entry C          line   164 file /opt/software/pc2/EB-SW/software/PSI4/1.9-foss-2022a/share/psi4/basis/jun-cc-pvdz.gbs 
    atoms 3, 6                                                               entry N          line   198 file /opt/software/pc2/EB-SW/software/PSI4/1.9-foss-2022a/share/psi4/basis/jun-cc-pvdz.gbs 
    atoms 7-9, 11-16, 35-40, 54-55, 71-72, 90-91, 105-108, 120-121, 131-136  entry H          line    36 file /opt/software/pc2/EB-SW/software/PSI4/1.9-foss-2022a/share/psi4/basis/jun-cc-pvdz.gbs 


         ---------------------------------------------------------
                                   SCF
               by Justin Turney, Rob Parrish, Andy Simmonett
                          and Daniel G. A. Smith
                              RHF Reference
                       16 Threads,  61035 MiB Core
         ---------------------------------------------------------

  ==> Geometry <==

    Molecular point group: c1
    Full point group: C1

    Geometry (in Angstrom), charge = 1, multiplicity = 1:

       Center              X                  Y                   Z               Mass       
    ------------   -----------------  -----------------  -----------------  -----------------
         C            0.680062820275    -0.008027535675    -7.127984214047    12.000000000000
         C           -0.680508179725    -0.005999535675    -7.127600214047    12.000000000000
         N           -1.085639179725    -0.005001535675    -5.809276214047    14.003074004430
         C            0.000103820275    -0.001725535675    -5.027875214047    12.000000000000
         C           -2.477369179725     0.044404464325    -5.341297214047    12.000000000000
         N            1.085217820275    -0.005001535675    -5.809276214047    14.003074004430
         H            1.385141820275    -0.015855535675    -7.945423214047     1.007825032230
         H           -1.385306179725    -0.006189535675    -7.945269214047     1.007825032230
         H           -0.000013179725     0.000021464325    -3.946786214047     1.007825032230
         C            2.478112820275    -0.021893535675    -5.344178214047    12.000000000000
         H            2.490587820275     0.005451464325    -4.253925214047     1.007825032230
         H            2.967023820275    -0.935339535675    -5.691354214047     1.007825032230
         H            3.001423820275     0.853589464325    -5.735650214047     1.007825032230
         H           -2.857363179725     1.066475464325    -5.421256214047     1.007825032230
         H           -3.082683179725    -0.625679535675    -5.954361214047     1.007825032230
         H           -2.518132179725    -0.282579535675    -4.301349214047     1.007825032230
         C           -3.668445443746     7.803766634408     0.489844827289    12.000000000000
         C           -4.847602899072     7.131256295665     0.487478252356    12.000000000000
         C           -4.894963478901     5.696344867857     0.486905341258    12.000000000000
         C           -3.653744858499     4.980744805284     0.494565782987    12.000000000000
         C           -2.409429301220     7.113995501000     0.490039169549    12.000000000000
         C           -2.425481523830     5.681136415228     0.483034280679    12.000000000000
         C           -1.194748196161     7.786158658634     0.491511350091    12.000000000000
         C            0.037954849212     7.099436110082     0.489340645786    12.000000000000
         C            0.030328407694     5.669504024030     0.483857260870    12.000000000000
         C           -1.200988687630     4.969284812240     0.492826994804    12.000000000000
         C            1.277953646089     7.772873907520     0.490716494346    12.000000000000
         C            2.485353904999     7.087711349563     0.488442006442    12.000000000000
         C            2.486124505192     5.654785274566     0.481504257454    12.000000000000
         C            1.254078739919     4.956092577989     0.493132199042    12.000000000000
         C            3.751710411681     7.763926615305     0.488568857822    12.000000000000
         C            4.923561876460     7.078795241315     0.486512377114    12.000000000000
         C            4.955603091600     5.643461927694     0.486351964307    12.000000000000
         C            3.706797354479     4.941224672658     0.491443524477    12.000000000000
         H           -3.658525317484     8.890841883460     0.491529815539     1.007825032230
         H           -1.189217509482     8.874135551685     0.495483226532     1.007825032230
         H            1.284290059161     8.860847899813     0.494875318487     1.007825032230
         H            3.753537907074     8.851049743297     0.490091382138     1.007825032230
         H            5.869954523482     7.613809298981     0.485587010072     1.007825032230
         H           -5.788235887228     7.676316677259     0.485918405000     1.007825032230
         C           -6.091978138422     4.993274477968     0.485033100767    12.000000000000
         C           -6.128665660043     3.582594633123     0.486234277796    12.000000000000
         C           -3.664583919771     3.564196644069     0.483309183178    12.000000000000
         C           -4.894302384424     2.861095240226     0.492478168163    12.000000000000
         C           -2.437339174623     2.847626121410     0.495140961715    12.000000000000
         C           -1.209232037322     3.547901399303     0.481461934923    12.000000000000
         C            1.247137392437     3.534695215755     0.480653328518    12.000000000000
         C            0.015171859844     2.833126303630     0.492337511742    12.000000000000
         C            2.467640992715     2.821304441580     0.492437569866    12.000000000000
         C            3.702545294854     3.524674618749     0.478949609023    12.000000000000
         C            6.144976206658     4.927586830457     0.485118519095    12.000000000000
         C            6.166584179136     3.516598940267     0.487285072532    12.000000000000
         C            4.924605778734     2.808422389679     0.493823818769    12.000000000000
         H            7.089901329916     5.466902230548     0.481356638246     1.007825032230
         H           -7.031045930827     5.542702417183     0.480799885816     1.007825032230
         C           -7.339702220848     2.858425998905     0.484607110354    12.000000000000
         C           -7.364886137784     1.470337835908     0.486372648482    12.000000000000
         C           -4.903508788672     1.444441276485     0.481656384290    12.000000000000
         C           -6.132261332336     0.739953821379     0.493946428273    12.000000000000
         C           -3.676878980242     0.726711606998     0.492284100690    12.000000000000
         C           -2.445660765791     1.429655597587     0.481974390489    12.000000000000
         C           -1.223604861027     0.715338965960     0.493403655020    12.000000000000
         C            0.007633689588     1.417397613563     0.491869308737    12.000000000000
         C            1.231215628021     0.702131154912     0.473042723081    12.000000000000
         C            2.460816920806     1.403306500451     0.492547231972    12.000000000000
         C            3.684426074471     0.687212892537     0.491718445695    12.000000000000
         C            4.918704721813     1.391749025514     0.479316624059    12.000000000000
         C            7.369797898236     2.779496667509     0.485524652740    12.000000000000
         C            7.380158486396     1.391231972180     0.487071335585    12.000000000000
         C            6.139795359397     0.674133087526     0.493399677397    12.000000000000
         H           -8.279194979072     3.407132505449     0.480309558233     1.007825032230
         H            8.315109291754     3.318132560949     0.481314076940     1.007825032230
         C           -8.591760117307     0.724847017370     0.486713076099    12.000000000000
         C           -8.599028783429    -0.632625341904     0.488836200682    12.000000000000
         C           -6.139817318844    -0.674122172829     0.481846859347    12.000000000000
         C           -7.380188291863    -1.391251725257     0.489262920888    12.000000000000
         C           -4.918688659982    -1.391740553705     0.494187357497    12.000000000000
         C           -3.684442475410    -0.687222851411     0.483155117432    12.000000000000
         C           -2.460821219973    -1.403330714500     0.493698203621    12.000000000000
         C           -1.231166192046    -0.702159400556     0.481577824830    12.000000000000
         C           -0.007573805113    -1.417404385086     0.489034349133    12.000000000000
         C            1.223643536163    -0.715260912939     0.499039971082    12.000000000000
         C            2.445666469606    -1.429628824682     0.487289958322    12.000000000000
         C            3.676862523121    -0.726692967231     0.483149373927    12.000000000000
         C            6.132244666694    -0.739964375525     0.481621399715    12.000000000000
         C            4.903514965779    -1.444443056216     0.495462474255    12.000000000000
         C            8.599010668965     0.632618330993     0.486933451729    12.000000000000
         C            8.591741308375    -0.724836402868     0.488669831990    12.000000000000
         C            7.364858584664    -1.470318201281     0.488439655298    12.000000000000
         H           -9.528310151544     1.276861913518     0.485243149135     1.007825032230
         H            9.541406794881     1.174586952770     0.485881419468     1.007825032230
         C           -7.369842089494    -2.779530681609     0.491071129310    12.000000000000
         C           -4.924603288776    -2.808422793016     0.483339496874    12.000000000000
         C           -6.166626675393    -3.516637728500     0.489641337033    12.000000000000
         C           -3.702514539430    -3.524667084795     0.493663566060    12.000000000000
         C           -2.467651164839    -2.821311498479     0.481618927703    12.000000000000
         C           -0.015137653833    -2.833127181075     0.481900516212    12.000000000000
         C           -1.247126020952    -3.534717711238     0.493464469620    12.000000000000
         C            1.209240889918    -3.547900214319     0.496003499412    12.000000000000
         C            2.437331842429    -2.847627273850     0.481863741101    12.000000000000
         C            4.894298164045    -2.861108503961     0.482684481172    12.000000000000
         C            3.664611075316    -3.564205381207     0.495563901113    12.000000000000
         C            6.128634835020    -3.582569593393     0.488909743070    12.000000000000
         C            7.339668484970    -2.858398843045     0.490424969152    12.000000000000
         H           -9.541453290984    -1.174549002339     0.490205616855     1.007825032230
         H            9.528257688346    -1.276904609579     0.489919639751     1.007825032230
         H           -8.315169223574    -3.318135388887     0.495243357841     1.007825032230
         H            8.279150962767    -3.407126325569     0.494764525135     1.007825032230
         C           -6.144998368428    -4.927632808458     0.490967335093    12.000000000000
         C           -3.706787527723    -4.941247249792     0.481146367005    12.000000000000
         C           -4.955594237727    -5.643479509169     0.489113501650    12.000000000000
         C           -2.486125505952    -5.654771110084     0.494086038050    12.000000000000
         C           -1.254062515205    -4.956107585676     0.482910432064    12.000000000000
         C            1.201008394143    -4.969265923868     0.484091556322    12.000000000000
         C           -0.030340854139    -5.669505838814     0.491934755985    12.000000000000
         C            3.653745921603    -4.980729311090     0.484849556070    12.000000000000
         C            2.425488516150    -5.681160171202     0.494226486622    12.000000000000
         C            6.091961438086    -4.993243499062     0.491203969744    12.000000000000
         C            4.894972264885    -5.696333956633     0.489967773913    12.000000000000
         H           -7.089896567766    -5.466985377914     0.495370096774     1.007825032230
         H            7.031051029475    -5.542644072008     0.494783749507     1.007825032230
         C           -4.923549501924    -7.078806635352     0.488558732745    12.000000000000
         C           -2.485346267963    -7.087713613604     0.486048840309    12.000000000000
         C           -3.751690071504    -7.763932693311     0.486243519234    12.000000000000
         C           -0.037953136713    -7.099450410144     0.486264565457    12.000000000000
         C           -1.277960280127    -7.772889920342     0.484279872695    12.000000000000
         C            2.409440141001    -7.114007547678     0.487127766268    12.000000000000
         C            1.194745757428    -7.786170901237     0.484975475386    12.000000000000
         C            4.847616872773    -7.131247646254     0.489634580927    12.000000000000
         C            3.668467426150    -7.803773528619     0.487286146564    12.000000000000
         H           -5.869944530142    -7.613816133717     0.490102769611     1.007825032230
         H            5.788245445663    -7.676317724989     0.490761700409     1.007825032230
         H           -3.753531119175    -8.851057104911     0.484407604805     1.007825032230
         H           -1.284308585620    -8.860860928172     0.479852488837     1.007825032230
         H            1.189217394970    -8.874146156264     0.480882838696     1.007825032230
         H            3.658542435098    -8.890846169728     0.485631605141     1.007825032230

  Running in c1 symmetry.

  Rotational constants: A =      0.00061  B =      0.00060  C =      0.00035 [cm^-1]
  Rotational constants: A =     18.27926  B =     18.12435  C =     10.51914 [MHz]
  Nuclear repulsion = 17832.346903096993628

  Charge       = 1
  Multiplicity = 1
  Electrons    = 652
  Nalpha       = 326
  Nbeta        = 326

  ==> Algorithm <==

  SCF Algorithm Type is DF.
  DIIS enabled.
  MOM disabled.
  Fractional occupation disabled.
  Guess Type is SAD.
  Energy threshold   = 1.00e-08
  Density threshold  = 1.00e-08
  Integral threshold = 1.00e-12

  ==> Primary Basis <==

  Basis Set: JUN-CC-PVDZ
    Blend: JUN-CC-PVDZ
    Number of shells: 923
    Number of basis functions: 2019
    Number of Cartesian functions: 2122
    Spherical Harmonics?: true
    Max angular momentum: 2

   => Loading Basis Set <=

    Name: (JUN-CC-PVDZ AUX)
    Role: JKFIT
    Keyword: DF_BASIS_SCF
    atoms 1-2, 4-5, 10, 17-34, 41-53, 56-70, 73-89, 92-104, 109-119, 122-130 entry C          line   146 file /opt/software/pc2/EB-SW/software/PSI4/1.9-foss-2022a/share/psi4/basis/jun-cc-pvdz-jkfit.gbs 
    atoms 3, 6                                                               entry N          line   202 file /opt/software/pc2/EB-SW/software/PSI4/1.9-foss-2022a/share/psi4/basis/jun-cc-pvdz-jkfit.gbs 
    atoms 7-9, 11-16, 35-40, 54-55, 71-72, 90-91, 105-108, 120-121, 131-136  entry H          line    70 file /opt/software/pc2/EB-SW/software/PSI4/1.9-foss-2022a/share/psi4/basis/jun-cc-pvdz-jkfit.gbs 

  ==> Integral Setup <==

  ==> DiskDFJK: Density-Fitted J/K Matrices <==

    J tasked:                  Yes
    K tasked:                  Yes
    wK tasked:                  No
    OpenMP threads:             16
    Integrals threads:          16
    Memory [MiB]:            45776
    Algorithm:                Disk
    Integral Cache:           SAVE
    Schwarz Cutoff:          1E-12
    Fitting Condition:       1E-10

   => Auxiliary Basis Set <=

  Basis Set: (JUN-CC-PVDZ AUX)
    Blend: JUN-CC-PVDZ-JKFIT
    Number of shells: 3078
    Number of basis functions: 8896
    Number of Cartesian functions: 10198
    Spherical Harmonics?: true
    Max angular momentum: 3

  Minimum eigenvalue in the overlap matrix is 8.9310773161E-11.
  Reciprocal condition number of the overlap matrix is 3.9037803600E-12.
    Using canonical orthogonalization.
  Overall, 38 of 2019 possible MOs eliminated.


  ==> Pre-Iterations <==

  SCF Guess: Superposition of Atomic Densities via on-the-fly atomic UHF (no occupation information).

   -------------------------
    Irrep   Nso     Nmo    
   -------------------------
     A       2019    1981 
   -------------------------
    Total    2019    1981
   -------------------------

  ==> Iterations <==

                           Total Energy        Delta E     RMS |[F,P]|

   @DF-RHF iter SAD: -3967.13854452280475   -3.96714e+03   0.00000e+00 
   @DF-RHF iter   1: -3952.10823301389473    1.50303e+01   7.15594e-04 DIIS/ADIIS
   @DF-RHF iter   2: -3953.49831338197055   -1.39008e+00   2.34574e-04 DIIS/ADIIS
   @DF-RHF iter   3: -3953.62114166879155   -1.22828e-01   1.03718e-04 DIIS/ADIIS
   @DF-RHF iter   4: -3953.64455799162170   -2.34163e-02   4.40885e-05 DIIS
   @DF-RHF iter   5: -3953.64951166708806   -4.95368e-03   1.08127e-05 DIIS
   @DF-RHF iter   6: -3953.64997961367317   -4.67947e-04   4.61726e-06 DIIS
   @DF-RHF iter   7: -3953.65016686963872   -1.87256e-04   2.21029e-06 DIIS
   @DF-RHF iter   8: -3953.65022951961737   -6.26500e-05   1.10104e-06 DIIS
   @DF-RHF iter   9: -3953.65024700645608   -1.74868e-05   3.54124e-07 DIIS
   @DF-RHF iter  10: -3953.65024818646680   -1.18001e-06   1.44690e-07 DIIS
   @DF-RHF iter  11: -3953.65024833564803   -1.49181e-07   5.91120e-08 DIIS
   @DF-RHF iter  12: -3953.65024836803514   -3.23871e-08   2.95351e-08 DIIS
   @DF-RHF iter  13: -3953.65024837482588   -6.79074e-09   1.00504e-08 DIIS
   @DF-RHF iter  14: -3953.65024837527244   -4.46562e-10   4.74959e-09 DIIS
  Energy and wave function converged.


  ==> Post-Iterations <==

    Orbital Energies [Eh]
    ---------------------

    Doubly Occupied:                                                      

       1A    -15.816181     2A    -15.815669     3A    -11.510706  
       4A    -11.443174     5A    -11.441618     6A    -11.430782  
       7A    -11.430686     8A    -11.325697     9A    -11.325283  
      10A    -11.325187    11A    -11.324407    12A    -11.324288  
      13A    -11.324035    14A    -11.323603    15A    -11.323573  
      16A    -11.323391    17A    -11.323309    18A    -11.323126  
      19A    -11.322962    20A    -11.322437    21A    -11.322401  
      22A    -11.322079    23A    -11.322001    24A    -11.321900  
      25A    -11.321824    26A    -11.321438    27A    -11.321403  
      28A    -11.321046    29A    -11.321030    30A    -11.320903  
      31A    -11.320880    32A    -11.319233    33A    -11.319226  
      34A    -11.319160    35A    -11.319146    36A    -11.318843  
      37A    -11.318836    38A    -11.318801    39A    -11.318789  
      40A    -11.318637    41A    -11.318599    42A    -11.318460  
      43A    -11.318414    44A    -11.317181    45A    -11.317169  
      46A    -11.317162    47A    -11.317148    48A    -11.317027  
      49A    -11.317022    50A    -11.316699    51A    -11.316696  
      52A    -11.316560    53A    -11.316552    54A    -11.316546  
      55A    -11.316537    56A    -11.316337    57A    -11.316329  
      58A    -11.315945    59A    -11.315936    60A    -11.315922  
      61A    -11.315912    62A    -11.315833    63A    -11.315826  
      64A    -11.315815    65A    -11.315813    66A    -11.315657  
      67A    -11.315644    68A    -11.315418    69A    -11.315391  
      70A    -11.315349    71A    -11.315341    72A    -11.315223  
      73A    -11.315208    74A    -11.315203    75A    -11.315200  
      76A    -11.314834    77A    -11.314831    78A    -11.314826  
      79A    -11.314825    80A    -11.308409    81A    -11.308381  
      82A    -11.308329    83A    -11.308326    84A    -11.308073  
      85A    -11.308049    86A    -11.307992    87A    -11.307990  
      88A    -11.307927    89A    -11.307871    90A    -11.307847  
      91A    -11.307791    92A    -11.306927    93A    -11.306912  
      94A    -11.306367    95A    -11.306351    96A    -11.306348  
      97A    -11.306347    98A    -11.305459    99A    -11.305444  
     100A    -11.304897   101A    -11.304878   102A    -11.304876  
     103A    -11.304874   104A     -1.560063   105A     -1.415506  
     106A     -1.313821   107A     -1.297183   108A     -1.296811  
     109A     -1.277372   110A     -1.277317   111A     -1.273718  
     112A     -1.256976   113A     -1.252007   114A     -1.246185  
     115A     -1.245861   116A     -1.229422   117A     -1.229397  
     118A     -1.220887   119A     -1.213092   120A     -1.213067  
     121A     -1.210429   122A     -1.200062   123A     -1.200042  
     124A     -1.185125   125A     -1.172037   126A     -1.170792  
     127A     -1.170069   128A     -1.169821   129A     -1.168386  
     130A     -1.166697   131A     -1.144872   132A     -1.144760  
     133A     -1.132059   134A     -1.132030   135A     -1.124572  
     136A     -1.124468   137A     -1.122292   138A     -1.102798  
     139A     -1.102784   140A     -1.100308   141A     -1.096520  
     142A     -1.093822   143A     -1.093751   144A     -1.082754  
     145A     -1.079814   146A     -1.079671   147A     -1.063493  
     148A     -1.062649   149A     -1.059633   150A     -1.057339  
     151A     -1.057251   152A     -1.045740   153A     -1.027465  
     154A     -1.027378   155A     -1.011292   156A     -1.011252  
     157A     -1.004788   158A     -0.978542   159A     -0.963612  
     160A     -0.963481   161A     -0.962715   162A     -0.960108  
     163A     -0.960039   164A     -0.950335   165A     -0.950198  
     166A     -0.947581   167A     -0.947455   168A     -0.946251  
     169A     -0.927271   170A     -0.922901   171A     -0.907164  
     172A     -0.904960   173A     -0.904763   174A     -0.902568  
     175A     -0.899644   176A     -0.898652   177A     -0.890381  
     178A     -0.890340   179A     -0.882720   180A     -0.882690  
     181A     -0.841661   182A     -0.841426   183A     -0.838942  
     184A     -0.838478   185A     -0.838447   186A     -0.838424  
     187A     -0.838310   188A     -0.832271   189A     -0.823232  
     190A     -0.818291   191A     -0.807155   192A     -0.798678  
     193A     -0.794142   194A     -0.788360   195A     -0.783219  
     196A     -0.782969   197A     -0.781180   198A     -0.780655  
     199A     -0.780473   200A     -0.775492   201A     -0.772227  
     202A     -0.770558   203A     -0.770454   204A     -0.767804  
     205A     -0.764576   206A     -0.754884   207A     -0.754823  
     208A     -0.742994   209A     -0.741263   210A     -0.741205  
     211A     -0.737828   212A     -0.737816   213A     -0.734753  
     214A     -0.710681   215A     -0.708681   216A     -0.706878  
     217A     -0.706680   218A     -0.706490   219A     -0.706329  
     220A     -0.706316   221A     -0.704713   222A     -0.698780  
     223A     -0.697586   224A     -0.697433   225A     -0.695558  
     226A     -0.694379   227A     -0.692238   228A     -0.692130  
     229A     -0.684945   230A     -0.678360   231A     -0.670002  
     232A     -0.669898   233A     -0.664430   234A     -0.664366  
     235A     -0.657643   236A     -0.657111   237A     -0.655388  
     238A     -0.655247   239A     -0.655114   240A     -0.654364  
     241A     -0.650883   242A     -0.650547   243A     -0.650445  
     244A     -0.650179   245A     -0.647271   246A     -0.647204  
     247A     -0.644672   248A     -0.632637   249A     -0.632545  
     250A     -0.631816   251A     -0.631701   252A     -0.628713  
     253A     -0.628347   254A     -0.625075   255A     -0.625028  
     256A     -0.621999   257A     -0.621835   258A     -0.614979  
     259A     -0.614727   260A     -0.614708   261A     -0.612772  
     262A     -0.610177   263A     -0.606352   264A     -0.601022  
     265A     -0.600592   266A     -0.593464   267A     -0.593000  
     268A     -0.589002   269A     -0.588893   270A     -0.584799  
     271A     -0.583174   272A     -0.583125   273A     -0.578304  
     274A     -0.573109   275A     -0.572880   276A     -0.570771  
     277A     -0.570761   278A     -0.564415   279A     -0.564401  
     280A     -0.553719   281A     -0.552374   282A     -0.552203  
     283A     -0.551404   284A     -0.551340   285A     -0.547580  
     286A     -0.536159   287A     -0.532441   288A     -0.532421  
     289A     -0.529259   290A     -0.526129   291A     -0.522514  
     292A     -0.522443   293A     -0.515342   294A     -0.506713  
     295A     -0.504346   296A     -0.504165   297A     -0.498763  
     298A     -0.498518   299A     -0.498314   300A     -0.489337  
     301A     -0.488776   302A     -0.463855   303A     -0.463740  
     304A     -0.443705   305A     -0.443566   306A     -0.441408  
     307A     -0.440345   308A     -0.440316   309A     -0.410379  
     310A     -0.410364   311A     -0.406833   312A     -0.397230  
     313A     -0.395367   314A     -0.395172   315A     -0.387376  
     316A     -0.387183   317A     -0.364566   318A     -0.359554  
     319A     -0.359436   320A     -0.356378   321A     -0.341754  
     322A     -0.310849   323A     -0.310709   324A     -0.310073  
     325A     -0.260121   326A     -0.259988  

    Virtual:                                                              

     327A     -0.067393   328A     -0.067109   329A     -0.050199  
     330A     -0.046413   331A     -0.038951   332A     -0.030212  
     333A     -0.022186   334A     -0.021994   335A     -0.017114  
     336A     -0.014585   337A     -0.013878   338A     -0.012417  
     339A     -0.004975   340A     -0.001028   341A      0.000307  
     342A      0.001680   343A      0.002033   344A      0.003863  
     345A      0.007754   346A      0.008822   347A      0.010082  
     348A      0.010427   349A      0.011349   350A      0.011571  
     351A      0.013057   352A      0.013200   353A      0.015867  
     354A      0.016552   355A      0.017806   356A      0.018422  
     357A      0.018498   358A      0.022694   359A      0.022763  
     360A      0.023848   361A      0.025889   362A      0.028702  
     363A      0.029066   364A      0.029720   365A      0.029769  
     366A      0.035736   367A      0.036827   368A      0.038393  
     369A      0.039165   370A      0.039691   371A      0.040878  
     372A      0.044207   373A      0.044287   374A      0.045602  
     375A      0.047366   376A      0.047809   377A      0.051140  
     378A      0.051541   379A      0.052338   380A      0.053461  
     381A      0.056994   382A      0.057071   383A      0.059325  
     384A      0.059814   385A      0.060419   386A      0.060513  
     387A      0.060705   388A      0.060907   389A      0.061333  
     390A      0.064376   391A      0.066114   392A      0.067493  
     393A      0.069477   394A      0.069724   395A      0.070602  
     396A      0.072514   397A      0.073473   398A      0.077149  
     399A      0.080384   400A      0.081406   401A      0.082069  
     402A      0.082713   403A      0.085107   404A      0.085428  
     405A      0.086073   406A      0.087568   407A      0.090645  
     408A      0.091754   409A      0.092002   410A      0.092420  
     411A      0.092561   412A      0.095855   413A      0.096911  
     414A      0.097279   415A      0.098392   416A      0.101161  
     417A      0.102397   418A      0.104022   419A      0.106806  
     420A      0.107226   421A      0.109251   422A      0.110895  
     423A      0.111028   424A      0.111361   425A      0.112149  
     426A      0.112607   427A      0.113644   428A      0.117748  
     429A      0.118309   430A      0.118642   431A      0.119680  
     432A      0.120097   433A      0.121518   434A      0.122571  
     435A      0.124622   436A      0.124747   437A      0.126589  
     438A      0.127063   439A      0.130611   440A      0.130975  
     441A      0.131394   442A      0.131491   443A      0.136869  
     444A      0.138086   445A      0.139387   446A      0.139575  
     447A      0.140512   448A      0.140575   449A      0.142459  
     450A      0.148388   451A      0.149184   452A      0.150111  
     453A      0.150748   454A      0.150854   455A      0.151417  
     456A      0.151889   457A      0.153107   458A      0.153344  
     459A      0.155177   460A      0.155667   461A      0.156240  
     462A      0.156703   463A      0.157352   464A      0.157713  
     465A      0.158213   466A      0.159166   467A      0.159571  
     468A      0.161484   469A      0.161793   470A      0.162854  
     471A      0.163298   472A      0.164684   473A      0.165151  
     474A      0.166793   475A      0.167515   476A      0.169041  
     477A      0.169473   478A      0.170924   479A      0.171082  
     480A      0.171934   481A      0.172680   482A      0.173792  
     483A      0.174945   484A      0.175039   485A      0.176635  
     486A      0.177720   487A      0.179405   488A      0.179763  
     489A      0.179844   490A      0.180811   491A      0.181890  
     492A      0.183198   493A      0.183994   494A      0.186105  
     495A      0.186457   496A      0.187999   497A      0.188819  
     498A      0.189038   499A      0.190749   500A      0.191657  
     501A      0.193626   502A      0.196253   503A      0.196640  
     504A      0.196972   505A      0.199013   506A      0.199914  
     507A      0.200120   508A      0.202836   509A      0.203675  
     510A      0.203991   511A      0.205417   512A      0.207023  
     513A      0.208214   514A      0.208942   515A      0.210764  
     516A      0.212198   517A      0.213211   518A      0.213252  
     519A      0.214669   520A      0.215053   521A      0.217130  
     522A      0.217363   523A      0.218485   524A      0.218693  
     525A      0.220223   526A      0.222378   527A      0.224475  
     528A      0.225211   529A      0.225411   530A      0.225620  
     531A      0.226816   532A      0.227604   533A      0.228016  
     534A      0.230091   535A      0.231251   536A      0.232054  
     537A      0.233278   538A      0.234359   539A      0.235194  
     540A      0.235451   541A      0.237204   542A      0.237855  
     543A      0.239383   544A      0.240049   545A      0.241035  
     546A      0.241881   547A      0.242066   548A      0.244337  
     549A      0.245595   550A      0.247189   551A      0.247947  
     552A      0.249153   553A      0.250422   554A      0.251850  
     555A      0.252801   556A      0.253860   557A      0.254035  
     558A      0.254615   559A      0.254804   560A      0.254904  
     561A      0.258196   562A      0.259474   563A      0.261341  
     564A      0.261810   565A      0.262264   566A      0.262613  
     567A      0.264414   568A      0.264718   569A      0.265873  
     570A      0.267006   571A      0.267338   572A      0.267865  
     573A      0.268376   574A      0.268930   575A      0.269957  
     576A      0.271864   577A      0.272660   578A      0.273738  
     579A      0.274642   580A      0.274921   581A      0.276606  
     582A      0.276954   583A      0.277840   584A      0.279599  
     585A      0.279807   586A      0.280272   587A      0.280671  
     588A      0.282591   589A      0.282985   590A      0.283952  
     591A      0.285526   592A      0.286052   593A      0.286729  
     594A      0.288738   595A      0.289224   596A      0.290163  
     597A      0.292333   598A      0.292600   599A      0.293978  
     600A      0.294245   601A      0.294612   602A      0.296019  
     603A      0.296086   604A      0.296453   605A      0.298152  
     606A      0.299760   607A      0.301464   608A      0.302207  
     609A      0.302535   610A      0.304693   611A      0.306470  
     612A      0.308091   613A      0.309391   614A      0.309766  
     615A      0.310936   616A      0.313221   617A      0.314757  
     618A      0.314832   619A      0.315589   620A      0.316497  
     621A      0.316584   622A      0.317533   623A      0.318135  
     624A      0.320017   625A      0.321743   626A      0.323744  
     627A      0.326190   628A      0.326411   629A      0.327054  
     630A      0.327472   631A      0.328546   632A      0.329377  
     633A      0.329478   634A      0.330508   635A      0.331645  
     636A      0.331758   637A      0.333614   638A      0.336282  
     639A      0.337553   640A      0.338637   641A      0.340015  
     642A      0.340340   643A      0.340393   644A      0.341544  
     645A      0.341720   646A      0.342160   647A      0.342754  
     648A      0.343349   649A      0.344138   650A      0.344342  
     651A      0.344916   652A      0.346122   653A      0.347126  
     654A      0.348259   655A      0.348852   656A      0.350446  
     657A      0.350544   658A      0.351247   659A      0.351897  
     660A      0.353439   661A      0.354020   662A      0.354649  
     663A      0.354904   664A      0.356168   665A      0.358229  
     666A      0.358565   667A      0.359307   668A      0.359750  
     669A      0.360791   670A      0.361878   671A      0.361993  
     672A      0.362394   673A      0.363874   674A      0.365221  
     675A      0.365938   676A      0.367246   677A      0.367988  
     678A      0.369408   679A      0.370980   680A      0.372503  
     681A      0.373119   682A      0.373272   683A      0.375474  
     684A      0.375790   685A      0.376245   686A      0.376412  
     687A      0.377577   688A      0.378233   689A      0.378742  
     690A      0.379329   691A      0.380022   692A      0.383133  
     693A      0.383896   694A      0.385313   695A      0.385467  
     696A      0.386225   697A      0.388278   698A      0.388863  
     699A      0.392134   700A      0.395346   701A      0.396330  
     702A      0.397369   703A      0.398198   704A      0.398852  
     705A      0.398996   706A      0.399487   707A      0.400316  
     708A      0.401309   709A      0.402055   710A      0.403160  
     711A      0.403614   712A      0.404050   713A      0.405625  
     714A      0.406926   715A      0.408532   716A      0.409594  
     717A      0.410014   718A      0.410862   719A      0.411987  
     720A      0.412306   721A      0.412541   722A      0.414515  
     723A      0.415339   724A      0.417028   725A      0.417334  
     726A      0.418331   727A      0.419911   728A      0.420502  
     729A      0.420824   730A      0.421433   731A      0.422208  
     732A      0.422943   733A      0.423878   734A      0.424493  
     735A      0.425183   736A      0.425293   737A      0.428069  
     738A      0.430281   739A      0.431172   740A      0.433215  
     741A      0.433412   742A      0.434874   743A      0.435334  
     744A      0.436485   745A      0.438065   746A      0.438955  
     747A      0.439650   748A      0.441093   749A      0.442858  
     750A      0.443814   751A      0.447891   752A      0.449342  
     753A      0.449823   754A      0.450033   755A      0.450507  
     756A      0.451846   757A      0.452815   758A      0.456542  
     759A      0.458113   760A      0.458367   761A      0.460767  
     762A      0.461287   763A      0.461740   764A      0.461900  
     765A      0.462363   766A      0.464185   767A      0.465056  
     768A      0.466490   769A      0.468280   770A      0.468813  
     771A      0.470830   772A      0.471562   773A      0.474968  
     774A      0.476396   775A      0.478035   776A      0.478223  
     777A      0.478573   778A      0.482815   779A      0.484480  
     780A      0.485282   781A      0.485885   782A      0.486158  
     783A      0.487324   784A      0.489445   785A      0.494128  
     786A      0.498466   787A      0.502355   788A      0.503195  
     789A      0.504474   790A      0.507166   791A      0.507570  
     792A      0.508787   793A      0.510668   794A      0.511368  
     795A      0.513654   796A      0.513773   797A      0.514755  
     798A      0.515497   799A      0.517289   800A      0.517577  
     801A      0.520804   802A      0.521383   803A      0.522379  
     804A      0.522954   805A      0.523848   806A      0.523996  
     807A      0.526589   808A      0.528603   809A      0.529715  
     810A      0.531436   811A      0.533546   812A      0.534768  
     813A      0.536103   814A      0.537666   815A      0.537967  
     816A      0.538616   817A      0.542497   818A      0.542671  
     819A      0.544027   820A      0.547198   821A      0.548913  
     822A      0.549494   823A      0.550370   824A      0.551344  
     825A      0.553843   826A      0.561844   827A      0.563662  
     828A      0.564359   829A      0.565746   830A      0.565965  
     831A      0.573087   832A      0.574455   833A      0.575299  
     834A      0.576712   835A      0.582874   836A      0.584340  
     837A      0.584817   838A      0.592043   839A      0.592552  
     840A      0.598993   841A      0.599619   842A      0.600317  
     843A      0.603225   844A      0.604380   845A      0.604902  
     846A      0.605087   847A      0.608547   848A      0.610800  
     849A      0.611817   850A      0.617301   851A      0.618423  
     852A      0.624798   853A      0.629879   854A      0.630431  
     855A      0.631077   856A      0.631156   857A      0.634664  
     858A      0.636315   859A      0.636371   860A      0.637806  
     861A      0.641391   862A      0.644018   863A      0.644592  
     864A      0.645149   865A      0.646173   866A      0.650836  
     867A      0.651168   868A      0.654020   869A      0.656275  
     870A      0.663930   871A      0.665371   872A      0.669087  
     873A      0.672607   874A      0.675775   875A      0.678533  
     876A      0.685092   877A      0.685444   878A      0.687035  
     879A      0.687825   880A      0.688784   881A      0.689014  
     882A      0.690311   883A      0.693579   884A      0.695475  
     885A      0.696935   886A      0.699167   887A      0.707144  
     888A      0.714651   889A      0.715790   890A      0.719237  
     891A      0.724985   892A      0.727330   893A      0.729949  
     894A      0.730792   895A      0.733428   896A      0.733835  
     897A      0.737999   898A      0.738820   899A      0.739559  
     900A      0.740567   901A      0.746682   902A      0.747587  
     903A      0.748290   904A      0.750339   905A      0.751833  
     906A      0.753557   907A      0.755838   908A      0.757595  
     909A      0.758824   910A      0.762543   911A      0.762943  
     912A      0.764469   913A      0.765228   914A      0.765742  
     915A      0.767306   916A      0.769687   917A      0.774255  
     918A      0.774312   919A      0.776175   920A      0.777860  
     921A      0.779455   922A      0.780934   923A      0.781779  
     924A      0.784207   925A      0.786554   926A      0.787600  
     927A      0.788920   928A      0.791272   929A      0.792588  
     930A      0.793299   931A      0.794811   932A      0.800116  
     933A      0.802226   934A      0.802978   935A      0.804264  
     936A      0.806813   937A      0.807787   938A      0.809812  
     939A      0.810914   940A      0.812335   941A      0.814388  
     942A      0.815076   943A      0.816019   944A      0.818805  
     945A      0.819576   946A      0.819912   947A      0.822038  
     948A      0.822607   949A      0.823937   950A      0.824303  
     951A      0.825192   952A      0.827743   953A      0.828644  
     954A      0.831862   955A      0.833994   956A      0.835283  
     957A      0.836133   958A      0.837398   959A      0.838247  
     960A      0.839219   961A      0.843186   962A      0.844416  
     963A      0.846034   964A      0.852232   965A      0.853374  
     966A      0.853759   967A      0.855116   968A      0.858087  
     969A      0.859007   970A      0.860738   971A      0.863199  
     972A      0.865993   973A      0.866827   974A      0.867199  
     975A      0.867435   976A      0.867873   977A      0.868682  
     978A      0.869291   979A      0.872936   980A      0.873942  
     981A      0.875898   982A      0.877535   983A      0.878595  
     984A      0.879360   985A      0.880044   986A      0.883117  
     987A      0.883985   988A      0.886222   989A      0.889821  
     990A      0.890506   991A      0.891727   992A      0.893325  
     993A      0.895024   994A      0.896137   995A      0.896745  
     996A      0.898336   997A      0.898895   998A      0.899367  
     999A      0.901190  1000A      0.902283  1001A      0.902741  
    1002A      0.902979  1003A      0.904074  1004A      0.907508  
    1005A      0.910682  1006A      0.911387  1007A      0.912297  
    1008A      0.914306  1009A      0.915151  1010A      0.917255  
    1011A      0.919210  1012A      0.920817  1013A      0.925802  
    1014A      0.928008  1015A      0.928473  1016A      0.931955  
    1017A      0.932489  1018A      0.939384  1019A      0.939912  
    1020A      0.939938  1021A      0.940396  1022A      0.946873  
    1023A      0.948471  1024A      0.949074  1025A      0.950379  
    1026A      0.950807  1027A      0.951327  1028A      0.952789  
    1029A      0.956342  1030A      0.959150  1031A      0.960981  
    1032A      0.961747  1033A      0.964918  1034A      0.965568  
    1035A      0.966129  1036A      0.966590  1037A      0.968593  
    1038A      0.973600  1039A      0.974638  1040A      0.976375  
    1041A      0.978282  1042A      0.980076  1043A      0.980949  
    1044A      0.982960  1045A      0.985595  1046A      0.988888  
    1047A      0.989481  1048A      0.989717  1049A      0.991015  
    1050A      0.992335  1051A      0.993057  1052A      0.993205  
    1053A      0.994175  1054A      0.994593  1055A      0.996737  
    1056A      0.997697  1057A      0.997789  1058A      0.997899  
    1059A      0.998720  1060A      1.001044  1061A      1.005162  
    1062A      1.007048  1063A      1.007478  1064A      1.008125  
    1065A      1.009324  1066A      1.010470  1067A      1.011371  
    1068A      1.012056  1069A      1.013104  1070A      1.014311  
    1071A      1.014545  1072A      1.015043  1073A      1.016231  
    1074A      1.016869  1075A      1.017089  1076A      1.018174  
    1077A      1.018574  1078A      1.019434  1079A      1.019883  
    1080A      1.020570  1081A      1.021135  1082A      1.021798  
    1083A      1.022526  1084A      1.023647  1085A      1.024182  
    1086A      1.024608  1087A      1.026059  1088A      1.026271  
    1089A      1.027603  1090A      1.028213  1091A      1.028925  
    1092A      1.029147  1093A      1.030808  1094A      1.032307  
    1095A      1.032960  1096A      1.033412  1097A      1.034348  
    1098A      1.034621  1099A      1.034824  1100A      1.035643  
    1101A      1.036499  1102A      1.037831  1103A      1.041271  
    1104A      1.041841  1105A      1.042632  1106A      1.044409  
    1107A      1.045987  1108A      1.047353  1109A      1.047709  
    1110A      1.049326  1111A      1.050482  1112A      1.054263  
    1113A      1.055284  1114A      1.056471  1115A      1.058640  
    1116A      1.060463  1117A      1.062584  1118A      1.064501  
    1119A      1.065217  1120A      1.065872  1121A      1.072199  
    1122A      1.073030  1123A      1.074350  1124A      1.077046  
    1125A      1.078406  1126A      1.078617  1127A      1.078775  
    1128A      1.081447  1129A      1.081993  1130A      1.083532  
    1131A      1.084545  1132A      1.086972  1133A      1.088909  
    1134A      1.089623  1135A      1.090481  1136A      1.090755  
    1137A      1.093361  1138A      1.094855  1139A      1.095746  
    1140A      1.096557  1141A      1.099821  1142A      1.101768  
    1143A      1.102417  1144A      1.103461  1145A      1.106801  
    1146A      1.109956  1147A      1.111922  1148A      1.113117  
    1149A      1.114572  1150A      1.117452  1151A      1.120057  
    1152A      1.120913  1153A      1.124692  1154A      1.126206  
    1155A      1.128085  1156A      1.130556  1157A      1.132233  
    1158A      1.133029  1159A      1.136065  1160A      1.136704  
    1161A      1.138490  1162A      1.146191  1163A      1.146569  
    1164A      1.147096  1165A      1.148996  1166A      1.150142  
    1167A      1.150810  1168A      1.153490  1169A      1.155896  
    1170A      1.157959  1171A      1.160499  1172A      1.162396  
    1173A      1.163762  1174A      1.164141  1175A      1.167185  
    1176A      1.168795  1177A      1.170277  1178A      1.171144  
    1179A      1.171941  1180A      1.172864  1181A      1.173837  
    1182A      1.178622  1183A      1.179404  1184A      1.191373  
    1185A      1.191429  1186A      1.194076  1187A      1.197319  
    1188A      1.198038  1189A      1.201357  1190A      1.207158  
    1191A      1.207312  1192A      1.208192  1193A      1.208856  
    1194A      1.209179  1195A      1.216536  1196A      1.216831  
    1197A      1.218989  1198A      1.219676  1199A      1.226983  
    1200A      1.231309  1201A      1.231710  1202A      1.235654  
    1203A      1.236460  1204A      1.236613  1205A      1.239581  
    1206A      1.240059  1207A      1.241901  1208A      1.243569  
    1209A      1.249139  1210A      1.249542  1211A      1.251440  
    1212A      1.251706  1213A      1.252805  1214A      1.257792  
    1215A      1.258411  1216A      1.259094  1217A      1.261008  
    1218A      1.264971  1219A      1.265641  1220A      1.265762  
    1221A      1.266220  1222A      1.268454  1223A      1.272174  
    1224A      1.272451  1225A      1.276933  1226A      1.277134  
    1227A      1.279568  1228A      1.281059  1229A      1.281880  
    1230A      1.284687  1231A      1.284966  1232A      1.287990  
    1233A      1.292531  1234A      1.295764  1235A      1.298843  
    1236A      1.299965  1237A      1.300283  1238A      1.302212  
    1239A      1.303207  1240A      1.307812  1241A      1.308884  
    1242A      1.309147  1243A      1.310661  1244A      1.312785  
    1245A      1.317113  1246A      1.319325  1247A      1.319472  
    1248A      1.321022  1249A      1.323824  1250A      1.331070  
    1251A      1.334632  1252A      1.335270  1253A      1.338757  
    1254A      1.339184  1255A      1.340759  1256A      1.340935  
    1257A      1.342332  1258A      1.349631  1259A      1.351544  
    1260A      1.352684  1261A      1.352930  1262A      1.355268  
    1263A      1.355730  1264A      1.356458  1265A      1.358280  
    1266A      1.360444  1267A      1.361551  1268A      1.365626  
    1269A      1.367254  1270A      1.367567  1271A      1.370828  
    1272A      1.372474  1273A      1.372831  1274A      1.373782  
    1275A      1.376234  1276A      1.377172  1277A      1.380155  
    1278A      1.381619  1279A      1.382039  1280A      1.383440  
    1281A      1.384332  1282A      1.386194  1283A      1.387777  
    1284A      1.390935  1285A      1.391480  1286A      1.391780  
    1287A      1.393288  1288A      1.394763  1289A      1.394997  
    1290A      1.397394  1291A      1.397970  1292A      1.408237  
    1293A      1.409959  1294A      1.414165  1295A      1.415057  
    1296A      1.416334  1297A      1.416424  1298A      1.417830  
    1299A      1.418253  1300A      1.424213  1301A      1.428904  
    1302A      1.429367  1303A      1.430185  1304A      1.435465  
    1305A      1.439464  1306A      1.440646  1307A      1.443271  
    1308A      1.448635  1309A      1.450136  1310A      1.450270  
    1311A      1.456678  1312A      1.462250  1313A      1.463400  
    1314A      1.481857  1315A      1.485153  1316A      1.485763  
    1317A      1.488573  1318A      1.496731  1319A      1.496836  
    1320A      1.498840  1321A      1.501800  1322A      1.527007  
    1323A      1.528837  1324A      1.536875  1325A      1.539939  
    1326A      1.541755  1327A      1.545959  1328A      1.546196  
    1329A      1.547547  1330A      1.548922  1331A      1.550237  
    1332A      1.550910  1333A      1.552876  1334A      1.554648  
    1335A      1.554856  1336A      1.555564  1337A      1.557601  
    1338A      1.557688  1339A      1.558190  1340A      1.559216  
    1341A      1.560253  1342A      1.563123  1343A      1.564830  
    1344A      1.565419  1345A      1.568710  1346A      1.570932  
    1347A      1.571903  1348A      1.572190  1349A      1.574239  
    1350A      1.575553  1351A      1.578840  1352A      1.579469  
    1353A      1.581248  1354A      1.581841  1355A      1.581873  
    1356A      1.582482  1357A      1.583436  1358A      1.583677  
    1359A      1.585362  1360A      1.587921  1361A      1.588851  
    1362A      1.589435  1363A      1.591781  1364A      1.594828  
    1365A      1.596758  1366A      1.597030  1367A      1.600636  
    1368A      1.600772  1369A      1.602515  1370A      1.608593  
    1371A      1.609059  1372A      1.611399  1373A      1.611608  
    1374A      1.612308  1375A      1.613045  1376A      1.613089  
    1377A      1.614323  1378A      1.620809  1379A      1.621150  
    1380A      1.621891  1381A      1.622614  1382A      1.630377  
    1383A      1.632521  1384A      1.633223  1385A      1.637988  
    1386A      1.639693  1387A      1.640110  1388A      1.640966  
    1389A      1.642030  1390A      1.642570  1391A      1.644499  
    1392A      1.653545  1393A      1.653888  1394A      1.654067  
    1395A      1.658578  1396A      1.660330  1397A      1.660606  
    1398A      1.663289  1399A      1.664850  1400A      1.665856  
    1401A      1.666060  1402A      1.668809  1403A      1.669772  
    1404A      1.682282  1405A      1.682509  1406A      1.689101  
    1407A      1.690092  1408A      1.691269  1409A      1.691918  
    1410A      1.694179  1411A      1.694707  1412A      1.695476  
    1413A      1.707323  1414A      1.708471  1415A      1.709568  
    1416A      1.713266  1417A      1.724171  1418A      1.730669  
    1419A      1.731953  1420A      1.732434  1421A      1.732940  
    1422A      1.745286  1423A      1.745470  1424A      1.753212  
    1425A      1.758540  1426A      1.763338  1427A      1.767375  
    1428A      1.768125  1429A      1.770942  1430A      1.771946  
    1431A      1.772551  1432A      1.774208  1433A      1.774769  
    1434A      1.777000  1435A      1.777062  1436A      1.777694  
    1437A      1.778977  1438A      1.780731  1439A      1.780939  
    1440A      1.781278  1441A      1.783580  1442A      1.785032  
    1443A      1.787294  1444A      1.788851  1445A      1.801718  
    1446A      1.802068  1447A      1.804461  1448A      1.804701  
    1449A      1.806767  1450A      1.806938  1451A      1.809606  
    1452A      1.810490  1453A      1.814886  1454A      1.815163  
    1455A      1.817272  1456A      1.818616  1457A      1.819382  
    1458A      1.820393  1459A      1.826357  1460A      1.827251  
    1461A      1.827392  1462A      1.827959  1463A      1.828639  
    1464A      1.828760  1465A      1.829527  1466A      1.830686  
    1467A      1.832935  1468A      1.833076  1469A      1.833426  
    1470A      1.838499  1471A      1.845174  1472A      1.847578  
    1473A      1.848581  1474A      1.851081  1475A      1.851638  
    1476A      1.855655  1477A      1.859083  1478A      1.859626  
    1479A      1.861513  1480A      1.864958  1481A      1.865749  
    1482A      1.865996  1483A      1.868204  1484A      1.868718  
    1485A      1.869708  1486A      1.871327  1487A      1.875637  
    1488A      1.880995  1489A      1.881786  1490A      1.882779  
    1491A      1.883707  1492A      1.884400  1493A      1.885135  
    1494A      1.886123  1495A      1.886551  1496A      1.889089  
    1497A      1.890114  1498A      1.890859  1499A      1.896794  
    1500A      1.897236  1501A      1.899403  1502A      1.901511  
    1503A      1.903387  1504A      1.904168  1505A      1.905727  
    1506A      1.906055  1507A      1.907621  1508A      1.911162  
    1509A      1.913068  1510A      1.914227  1511A      1.916417  
    1512A      1.916643  1513A      1.917683  1514A      1.922340  
    1515A      1.924204  1516A      1.925895  1517A      1.928923  
    1518A      1.930359  1519A      1.934554  1520A      1.937325  
    1521A      1.937582  1522A      1.938335  1523A      1.939226  
    1524A      1.940045  1525A      1.951858  1526A      1.952325  
    1527A      1.955112  1528A      1.955804  1529A      1.957062  
    1530A      1.960562  1531A      1.960640  1532A      1.961799  
    1533A      1.962070  1534A      1.963865  1535A      1.964189  
    1536A      1.964695  1537A      1.965782  1538A      1.969376  
    1539A      1.972178  1540A      1.974745  1541A      1.976191  
    1542A      1.978191  1543A      1.979523  1544A      1.983432  
    1545A      1.983946  1546A      1.986724  1547A      1.987526  
    1548A      1.991825  1549A      1.994044  1550A      1.996727  
    1551A      1.997471  1552A      1.999507  1553A      1.999539  
    1554A      2.002143  1555A      2.003082  1556A      2.004059  
    1557A      2.005012  1558A      2.005457  1559A      2.011025  
    1560A      2.013207  1561A      2.013932  1562A      2.015123  
    1563A      2.019980  1564A      2.022870  1565A      2.024009  
    1566A      2.024889  1567A      2.025545  1568A      2.026276  
    1569A      2.026665  1570A      2.027788  1571A      2.029066  
    1572A      2.030983  1573A      2.032518  1574A      2.034146  
    1575A      2.034458  1576A      2.035088  1577A      2.035927  
    1578A      2.037133  1579A      2.037971  1580A      2.039112  
    1581A      2.039856  1582A      2.040992  1583A      2.041998  
    1584A      2.042654  1585A      2.043814  1586A      2.046192  
    1587A      2.047011  1588A      2.048186  1589A      2.051472  
    1590A      2.054360  1591A      2.056006  1592A      2.056919  
    1593A      2.057248  1594A      2.058294  1595A      2.058944  
    1596A      2.061939  1597A      2.062800  1598A      2.063979  
    1599A      2.069100  1600A      2.070709  1601A      2.071551  
    1602A      2.071884  1603A      2.072160  1604A      2.072834  
    1605A      2.073347  1606A      2.074198  1607A      2.075758  
    1608A      2.078989  1609A      2.080886  1610A      2.081531  
    1611A      2.084825  1612A      2.085816  1613A      2.086502  
    1614A      2.088866  1615A      2.089931  1616A      2.090342  
    1617A      2.091261  1618A      2.098927  1619A      2.099214  
    1620A      2.101093  1621A      2.101352  1622A      2.102537  
    1623A      2.103575  1624A      2.103900  1625A      2.104789  
    1626A      2.108438  1627A      2.109475  1628A      2.115756  
    1629A      2.116057  1630A      2.124004  1631A      2.125579  
    1632A      2.125815  1633A      2.127136  1634A      2.132175  
    1635A      2.132693  1636A      2.133517  1637A      2.134053  
    1638A      2.135747  1639A      2.136537  1640A      2.137143  
    1641A      2.140571  1642A      2.140880  1643A      2.142296  
    1644A      2.143465  1645A      2.145212  1646A      2.146031  
    1647A      2.148282  1648A      2.149261  1649A      2.151227  
    1650A      2.154424  1651A      2.157849  1652A      2.158274  
    1653A      2.160379  1654A      2.163528  1655A      2.167255  
    1656A      2.167463  1657A      2.168477  1658A      2.168749  
    1659A      2.170413  1660A      2.173200  1661A      2.176831  
    1662A      2.177670  1663A      2.179088  1664A      2.179784  
    1665A      2.181002  1666A      2.181861  1667A      2.182323  
    1668A      2.183830  1669A      2.187021  1670A      2.190407  
    1671A      2.192661  1672A      2.193818  1673A      2.194469  
    1674A      2.207480  1675A      2.208973  1676A      2.209407  
    1677A      2.211014  1678A      2.212294  1679A      2.216799  
    1680A      2.218510  1681A      2.218851  1682A      2.227666  
    1683A      2.228735  1684A      2.236409  1685A      2.236791  
    1686A      2.239699  1687A      2.242117  1688A      2.246338  
    1689A      2.248917  1690A      2.249210  1691A      2.253500  
    1692A      2.260904  1693A      2.267030  1694A      2.269516  
    1695A      2.269649  1696A      2.271474  1697A      2.273246  
    1698A      2.275063  1699A      2.275423  1700A      2.275836  
    1701A      2.276344  1702A      2.277923  1703A      2.279093  
    1704A      2.282967  1705A      2.285783  1706A      2.286313  
    1707A      2.286775  1708A      2.288403  1709A      2.288900  
    1710A      2.289655  1711A      2.292138  1712A      2.292528  
    1713A      2.309593  1714A      2.314084  1715A      2.315162  
    1716A      2.318110  1717A      2.328727  1718A      2.332207  
    1719A      2.333457  1720A      2.335036  1721A      2.336587  
    1722A      2.340133  1723A      2.353340  1724A      2.362768  
    1725A      2.363158  1726A      2.364037  1727A      2.367380  
    1728A      2.371925  1729A      2.375335  1730A      2.385902  
    1731A      2.388313  1732A      2.396054  1733A      2.396480  
    1734A      2.409013  1735A      2.409114  1736A      2.412491  
    1737A      2.412609  1738A      2.416760  1739A      2.417117  
    1740A      2.436542  1741A      2.437170  1742A      2.438071  
    1743A      2.447334  1744A      2.452406  1745A      2.453241  
    1746A      2.456787  1747A      2.462033  1748A      2.467738  
    1749A      2.482666  1750A      2.483250  1751A      2.485088  
    1752A      2.485453  1753A      2.486942  1754A      2.488637  
    1755A      2.488915  1756A      2.492097  1757A      2.493787  
    1758A      2.495164  1759A      2.496954  1760A      2.498910  
    1761A      2.499270  1762A      2.508345  1763A      2.515987  
    1764A      2.517551  1765A      2.518155  1766A      2.526542  
    1767A      2.530063  1768A      2.530761  1769A      2.531072  
    1770A      2.531438  1771A      2.535415  1772A      2.535829  
    1773A      2.537884  1774A      2.540840  1775A      2.546497  
    1776A      2.546520  1777A      2.557618  1778A      2.558329  
    1779A      2.558548  1780A      2.558819  1781A      2.562689  
    1782A      2.562730  1783A      2.577213  1784A      2.584616  
    1785A      2.585824  1786A      2.588011  1787A      2.589417  
    1788A      2.592094  1789A      2.593119  1790A      2.593671  
    1791A      2.597034  1792A      2.599222  1793A      2.601884  
    1794A      2.602101  1795A      2.608296  1796A      2.609651  
    1797A      2.613584  1798A      2.615955  1799A      2.616500  
    1800A      2.616974  1801A      2.622596  1802A      2.623877  
    1803A      2.627333  1804A      2.629367  1805A      2.630368  
    1806A      2.632011  1807A      2.635253  1808A      2.635478  
    1809A      2.636180  1810A      2.636897  1811A      2.640164  
    1812A      2.641586  1813A      2.647527  1814A      2.663842  
    1815A      2.668374  1816A      2.675290  1817A      2.675573  
    1818A      2.676545  1819A      2.677581  1820A      2.677960  
    1821A      2.685212  1822A      2.696938  1823A      2.702202  
    1824A      2.702911  1825A      2.707341  1826A      2.714865  
    1827A      2.715477  1828A      2.718420  1829A      2.720429  
    1830A      2.723033  1831A      2.724327  1832A      2.731030  
    1833A      2.741960  1834A      2.742645  1835A      2.744287  
    1836A      2.745076  1837A      2.745401  1838A      2.752455  
    1839A      2.754035  1840A      2.756779  1841A      2.757855  
    1842A      2.758101  1843A      2.760215  1844A      2.761335  
    1845A      2.769201  1846A      2.770855  1847A      2.771006  
    1848A      2.783733  1849A      2.785852  1850A      2.786658  
    1851A      2.786794  1852A      2.789985  1853A      2.806628  
    1854A      2.808603  1855A      2.808718  1856A      2.815078  
    1857A      2.816560  1858A      2.819244  1859A      2.827102  
    1860A      2.837102  1861A      2.838027  1862A      2.857029  
    1863A      2.863838  1864A      2.864345  1865A      2.873702  
    1866A      2.876180  1867A      2.880719  1868A      2.880853  
    1869A      2.908474  1870A      2.910720  1871A      2.911205  
    1872A      2.921947  1873A      2.933644  1874A      2.937556  
    1875A      2.938624  1876A      2.973068  1877A      2.974042  
    1878A      2.981041  1879A      2.984589  1880A      2.990999  
    1881A      2.992282  1882A      2.994032  1883A      2.995391  
    1884A      3.001088  1885A      3.001630  1886A      3.011370  
    1887A      3.017133  1888A      3.054784  1889A      3.058832  
    1890A      3.059041  1891A      3.066440  1892A      3.068291  
    1893A      3.071048  1894A      3.072371  1895A      3.077126  
    1896A      3.078789  1897A      3.083652  1898A      3.087714  
    1899A      3.089003  1900A      3.092633  1901A      3.093593  
    1902A      3.095068  1903A      3.096060  1904A      3.099860  
    1905A      3.108682  1906A      3.110197  1907A      3.119303  
    1908A      3.121298  1909A      3.121509  1910A      3.139010  
    1911A      3.139894  1912A      3.166537  1913A      3.197742  
    1914A      3.204750  1915A      3.205438  1916A      3.206040  
    1917A      3.207259  1918A      3.209430  1919A      3.213246  
    1920A      3.216402  1921A      3.220117  1922A      3.220459  
    1923A      3.238305  1924A      3.241000  1925A      3.242714  
    1926A      3.248682  1927A      3.304287  1928A      3.305372  
    1929A      3.312996  1930A      3.358515  1931A      3.371875  
    1932A      3.374142  1933A      3.376317  1934A      3.387952  
    1935A      3.392211  1936A      3.403563  1937A      3.406902  
    1938A      3.407941  1939A      3.413823  1940A      3.416799  
    1941A      3.424378  1942A      3.428793  1943A      3.436202  
    1944A      3.451794  1945A      3.457706  1946A      3.481915  
    1947A      3.517219  1948A      3.518986  1949A      3.527229  
    1950A      3.534555  1951A      3.546356  1952A      3.584318  
    1953A      3.586674  1954A      3.608562  1955A      3.610836  
    1956A      3.648204  1957A      3.690128  1958A      3.693800  
    1959A      3.694410  1960A      3.705361  1961A      3.722450  
    1962A      3.723553  1963A      3.786797  1964A      3.787453  
    1965A      3.815851  1966A      3.818692  1967A      3.848528  
    1968A      3.856511  1969A      3.879801  1970A      3.882930  
    1971A      3.892079  1972A      3.893409  1973A      3.901592  
    1974A      3.906903  1975A      3.913932  1976A      3.966869  
    1977A      3.969287  1978A      4.013083  1979A      4.170029  
    1980A      4.241809  1981A      4.333323  

    Final Occupation by Irrep:
              A 
    DOCC [   326 ]
    NA   [   326 ]
    NB   [   326 ]

  @DF-RHF Final Energy: -3953.65024837527244

   => Energetics <=

    Nuclear Repulsion Energy =          17832.3469030969936284
    One-Electron Energy =              -40874.4896246404459816
    Two-Electron Energy =               19088.4924731681785488
    Total Energy =                      -3953.6502483752738044

Computation Completed


Properties will be evaluated at   0.000000,   0.000000,   0.000000 [a0]

Properties computed using the SCF density matrix


 Multipole Moments:

 ------------------------------------------------------------------------------------
     Multipole            Electronic (a.u.)      Nuclear  (a.u.)        Total (a.u.)
 ------------------------------------------------------------------------------------

 L = 1.  Multiply by 2.5417464519 to convert [e a0] to [Debye]
 Dipole X            :         -0.0024302            0.0004804           -0.0019498
 Dipole Y            :         -0.0498529            0.0561130            0.0062601
 Dipole Z            :         27.4872519          -36.9822915           -9.4950395
 Magnitude           :                                                    9.4950418

 ------------------------------------------------------------------------------------

*** tstop() called on n2cn0973 at Sat Jan 27 01:42:18 2024
Module time:
	user time   =   28485.57 seconds =     474.76 minutes
	system time =    2204.80 seconds =      36.75 minutes
	total time  =       5404 seconds =      90.07 minutes
Total time:
	user time   =   28485.57 seconds =     474.76 minutes
	system time =    2204.80 seconds =      36.75 minutes
	total time  =       5404 seconds =      90.07 minutes

  //>>>>>>>>>>>>>>>>>>>>>>>>>>>>>>>>>>>//
  //            Monomer A HF           //
  //<<<<<<<<<<<<<<<<<<<<<<<<<<<<<<<<<<<//

   => Libint2 <=

    Primary   basis highest AM E, G, H:  5, 4, 3
    Auxiliary basis highest AM E, G, H:  6, 5, 4
    Onebody   basis highest AM E, G, H:  6, 5, 4
    Solid Harmonics ordering:            gaussian

*** tstart() called on n2cn0973
*** at Sat Jan 27 01:42:18 2024

   => Loading Basis Set <=

    Name: JUN-CC-PVDZ
    Role: ORBITAL
    Keyword: BASIS
    atoms 1-2, 4-5, 10, 17-34, 41-53, 56-70, 73-89, 92-104, 109-119, 122-130 entry C          line   164 file /opt/software/pc2/EB-SW/software/PSI4/1.9-foss-2022a/share/psi4/basis/jun-cc-pvdz.gbs 
    atoms 3, 6                                                               entry N          line   198 file /opt/software/pc2/EB-SW/software/PSI4/1.9-foss-2022a/share/psi4/basis/jun-cc-pvdz.gbs 
    atoms 7-9, 11-16, 35-40, 54-55, 71-72, 90-91, 105-108, 120-121, 131-136  entry H          line    36 file /opt/software/pc2/EB-SW/software/PSI4/1.9-foss-2022a/share/psi4/basis/jun-cc-pvdz.gbs 


         ---------------------------------------------------------
                                   SCF
               by Justin Turney, Rob Parrish, Andy Simmonett
                          and Daniel G. A. Smith
                              RHF Reference
                       16 Threads,  61035 MiB Core
         ---------------------------------------------------------

  ==> Geometry <==

    Molecular point group: c1
    Full point group: C1

    Geometry (in Angstrom), charge = 1, multiplicity = 1:

       Center              X                  Y                   Z               Mass       
    ------------   -----------------  -----------------  -----------------  -----------------
         C            0.680062820275    -0.008027535675    -7.127984214047    12.000000000000
         C           -0.680508179725    -0.005999535675    -7.127600214047    12.000000000000
         N           -1.085639179725    -0.005001535675    -5.809276214047    14.003074004430
[...]
    1579A      2.163110  1580A      2.171402  1581A      2.171756  
    1582A      2.174189  1583A      2.179707  1584A      2.180914  
    1585A      2.181436  1586A      2.182724  1587A      2.188917  
    1588A      2.189181  1589A      2.191495  1590A      2.191636  
    1591A      2.193228  1592A      2.195228  1593A      2.195435  
    1594A      2.197670  1595A      2.198135  1596A      2.199969  
    1597A      2.200720  1598A      2.200963  1599A      2.201809  
    1600A      2.203411  1601A      2.205027  1602A      2.205754  
    1603A      2.210415  1604A      2.213079  1605A      2.214214  
    1606A      2.215429  1607A      2.219941  1608A      2.220479  
    1609A      2.222377  1610A      2.222789  1611A      2.224730  
    1612A      2.224955  1613A      2.225259  1614A      2.228548  
    1615A      2.229340  1616A      2.232216  1617A      2.232469  
    1618A      2.234618  1619A      2.238986  1620A      2.239204  
    1621A      2.240099  1622A      2.241856  1623A      2.247662  
    1624A      2.248011  1625A      2.248470  1626A      2.251332  
    1627A      2.261012  1628A      2.262074  1629A      2.263587  
    1630A      2.265235  1631A      2.266819  1632A      2.269550  
    1633A      2.270246  1634A      2.275576  1635A      2.282765  
    1636A      2.284262  1637A      2.286636  1638A      2.290848  
    1639A      2.291070  1640A      2.293071  1641A      2.296501  
    1642A      2.296892  1643A      2.304046  1644A      2.304246  
    1645A      2.309305  1646A      2.314839  1647A      2.318391  
    1648A      2.324803  1649A      2.325019  1650A      2.325372  
    1651A      2.327382  1652A      2.329595  1653A      2.330719  
    1654A      2.331175  1655A      2.333114  1656A      2.334555  
    1657A      2.335461  1658A      2.338331  1659A      2.340516  
    1660A      2.341560  1661A      2.342245  1662A      2.342415  
    1663A      2.344985  1664A      2.345856  1665A      2.346382  
    1666A      2.349132  1667A      2.349478  1668A      2.362123  
    1669A      2.366166  1670A      2.370417  1671A      2.373041  
    1672A      2.376837  1673A      2.383828  1674A      2.388110  
    1675A      2.390683  1676A      2.392249  1677A      2.394269  
    1678A      2.397327  1679A      2.405259  1680A      2.418400  
    1681A      2.419890  1682A      2.424097  1683A      2.427572  
    1684A      2.432449  1685A      2.441710  1686A      2.444032  
    1687A      2.452785  1688A      2.453122  1689A      2.459522  
    1690A      2.463358  1691A      2.464704  1692A      2.465680  
    1693A      2.467968  1694A      2.468283  1695A      2.470837  
    1696A      2.472050  1697A      2.472218  1698A      2.483364  
    1699A      2.486910  1700A      2.491208  1701A      2.491640  
    1702A      2.495180  1703A      2.502069  1704A      2.507119  
    1705A      2.507659  1706A      2.511677  1707A      2.516369  
    1708A      2.532772  1709A      2.539187  1710A      2.539446  
    1711A      2.540554  1712A      2.542265  1713A      2.543097  
    1714A      2.545571  1715A      2.547881  1716A      2.548792  
    1717A      2.549334  1718A      2.551626  1719A      2.556601  
    1720A      2.556777  1721A      2.564336  1722A      2.571300  
    1723A      2.571875  1724A      2.580031  1725A      2.583928  
    1726A      2.584224  1727A      2.585176  1728A      2.586290  
    1729A      2.588609  1730A      2.588999  1731A      2.590577  
    1732A      2.593240  1733A      2.593649  1734A      2.601447  
    1735A      2.601545  1736A      2.612906  1737A      2.613263  
    1738A      2.613619  1739A      2.613998  1740A      2.618018  
    1741A      2.618071  1742A      2.633102  1743A      2.640616  
    1744A      2.641627  1745A      2.643643  1746A      2.645269  
    1747A      2.645743  1748A      2.647761  1749A      2.648735  
    1750A      2.649505  1751A      2.653224  1752A      2.655777  
    1753A      2.656588  1754A      2.660700  1755A      2.662304  
    1756A      2.666064  1757A      2.666411  1758A      2.667576  
    1759A      2.670318  1760A      2.670531  1761A      2.672532  
    1762A      2.673796  1763A      2.677140  1764A      2.678113  
    1765A      2.683875  1766A      2.685105  1767A      2.687084  
    1768A      2.689071  1769A      2.691327  1770A      2.691614  
    1771A      2.691874  1772A      2.692596  1773A      2.696188  
    1774A      2.697406  1775A      2.704514  1776A      2.720964  
    1777A      2.730773  1778A      2.730834  1779A      2.731479  
    1780A      2.731902  1781A      2.732162  1782A      2.748148  
    1783A      2.753039  1784A      2.756307  1785A      2.760706  
    1786A      2.761256  1787A      2.773205  1788A      2.773724  
    1789A      2.776083  1790A      2.779634  1791A      2.781431  
    1792A      2.799380  1793A      2.799893  1794A      2.802142  
    1795A      2.802244  1796A      2.802366  1797A      2.811205  
    1798A      2.812540  1799A      2.815682  1800A      2.815851  
    1801A      2.816425  1802A      2.817025  1803A      2.827975  
    1804A      2.828948  1805A      2.832920  1806A      2.840183  
    1807A      2.840992  1808A      2.842589  1809A      2.843269  
    1810A      2.846005  1811A      2.852269  1812A      2.864961  
    1813A      2.865565  1814A      2.866158  1815A      2.870647  
    1816A      2.872137  1817A      2.875487  1818A      2.891624  
    1819A      2.895976  1820A      2.896860  1821A      2.902473  
    1822A      2.915339  1823A      2.917668  1824A      2.918107  
    1825A      2.927490  1826A      2.928729  1827A      2.930162  
    1828A      2.931693  1829A      2.935273  1830A      2.935664  
    1831A      2.963371  1832A      2.963749  1833A      2.965599  
    1834A      2.965708  1835A      2.976085  1836A      2.985079  
    1837A      2.992668  1838A      2.993911  1839A      3.017438  
    1840A      3.029459  1841A      3.029966  1842A      3.031954  
    1843A      3.035739  1844A      3.039220  1845A      3.046931  
    1846A      3.047855  1847A      3.048267  1848A      3.057708  
    1849A      3.057843  1850A      3.059796  1851A      3.064494  
    1852A      3.072975  1853A      3.108773  1854A      3.113144  
    1855A      3.113361  1856A      3.123069  1857A      3.127592  
    1858A      3.128453  1859A      3.132829  1860A      3.134865  
    1861A      3.142294  1862A      3.143220  1863A      3.147358  
    1864A      3.149318  1865A      3.149528  1866A      3.150475  
    1867A      3.152568  1868A      3.153820  1869A      3.162372  
    1870A      3.167934  1871A      3.173249  1872A      3.175346  
    1873A      3.175653  1874A      3.193170  1875A      3.194109  
    1876A      3.220221  1877A      3.252881  1878A      3.259713  
    1879A      3.261445  1880A      3.261861  1881A      3.262384  
    1882A      3.264744  1883A      3.268414  1884A      3.271388  
    1885A      3.275151  1886A      3.275819  1887A      3.290217  
    1888A      3.294207  1889A      3.297273  1890A      3.299168  
    1891A      3.304025  1892A      3.319272  1893A      3.336327  
    1894A      3.361548  1895A      3.362520  1896A      3.370548  
    1897A      3.415928  1898A      3.425727  1899A      3.430188  
    1900A      3.432881  1901A      3.437001  1902A      3.446817  
    1903A      3.451265  1904A      3.462369  1905A      3.464774  
    1906A      3.465868  1907A      3.471356  1908A      3.474358  
    1909A      3.482085  1910A      3.487623  1911A      3.494289  
    1912A      3.509247  1913A      3.529095  1914A      3.540305  
    1915A      3.574294  1916A      3.576273  1917A      3.580543  
    1918A      3.584797  1919A      3.590334  1920A      3.641754  
    1921A      3.643746  1922A      3.648815  1923A      3.665225  
    1924A      3.667347  1925A      3.705387  1926A      3.748361  
    1927A      3.749412  1928A      3.750837  1929A      3.759832  
    1930A      3.763845  1931A      3.778873  1932A      3.781161  
    1933A      3.819532  1934A      3.842282  1935A      3.843613  
    1936A      3.870682  1937A      3.871565  1938A      3.874724  
    1939A      3.904850  1940A      3.913527  1941A      3.938346  
    1942A      3.941466  1943A      3.948349  1944A      3.949345  
    1945A      3.958791  1946A      3.965570  1947A      3.969850  
    1948A      3.974760  1949A      4.024724  1950A      4.027501  
    1951A      4.072109  1952A      4.210899  1953A      4.214734  
    1954A      4.231077  1955A      4.303001  1956A      4.364501  
    1957A      4.369116  1958A      4.394306  1959A      4.494259  
    1960A      4.749617  1961A      4.792642  1962A      4.835698  
    1963A      4.851324  1964A      4.941935  1965A      5.057911  
    1966A      5.062988  1967A      5.071828  1968A      5.115906  
    1969A      5.152433  1970A      5.397041  1971A      5.426191  
    1972A      5.738418  1973A      5.764587  1974A      6.070447  
    1975A     18.200772  1976A     18.460821  1977A     18.478057  
    1978A     18.564418  1979A     18.835615  1980A     25.342511  
    1981A     25.378469  

    Final Occupation by Irrep:
              A 
    DOCC [   300 ]
    NA   [   300 ]
    NB   [   300 ]

  @DF-RHF Final Energy: -3650.33846489952066

   => Energetics <=

    Nuclear Repulsion Energy =          15611.4211649754306563
    One-Electron Energy =              -36072.1051559744228143
    Two-Electron Energy =               16810.3455260994742275
    Total Energy =                      -3650.3384648995197495

Computation Completed


Properties will be evaluated at   0.000000,   0.000000,   0.000000 [a0]

Properties computed using the SCF density matrix


 Multipole Moments:

 ------------------------------------------------------------------------------------
     Multipole            Electronic (a.u.)      Nuclear  (a.u.)        Total (a.u.)
 ------------------------------------------------------------------------------------

 L = 1.  Multiply by 2.5417464519 to convert [e a0] to [Debye]
 Dipole X            :         -0.0009071            0.0002112           -0.0006959
 Dipole Y            :          0.0011900           -0.0013774           -0.0001874
 Dipole Z            :       -553.2435323          553.2525978            0.0090655
 Magnitude           :                                                    0.0090941

 ------------------------------------------------------------------------------------

*** tstop() called on n2cn0973 at Sat Jan 27 03:06:06 2024
Module time:
	user time   =   19816.60 seconds =     330.28 minutes
	system time =    2597.82 seconds =      43.30 minutes
	total time  =       3398 seconds =      56.63 minutes
Total time:
	user time   =   54136.45 seconds =     902.27 minutes
	system time =    5429.22 seconds =      90.49 minutes
	total time  =      10432 seconds =     173.87 minutes
  Constructing Basis Sets for SAPT...

   => Loading Basis Set <=

    Name: (JUN-CC-PVDZ AUX)
    Role: RIFIT
    Keyword: DF_BASIS_SAPT
    atoms 1-2, 4-5, 10, 17-34, 41-53, 56-70, 73-89, 92-104, 109-119, 122-130 entry C          line   100 file /opt/software/pc2/EB-SW/software/PSI4/1.9-foss-2022a/share/psi4/basis/jun-cc-pvdz-ri.gbs 
    atoms 3, 6                                                               entry N          line   144 file /opt/software/pc2/EB-SW/software/PSI4/1.9-foss-2022a/share/psi4/basis/jun-cc-pvdz-ri.gbs 
    atoms 7-9, 11-16, 35-40, 54-55, 71-72, 90-91, 105-108, 120-121, 131-136  entry H          line    30 file /opt/software/pc2/EB-SW/software/PSI4/1.9-foss-2022a/share/psi4/basis/jun-cc-pvdz-ri.gbs 

   => Loading Basis Set <=

    Name: (JUN-CC-PVDZ AUX)
    Role: JKFIT
    Keyword: DF_BASIS_ELST
    atoms 1-2, 4-5, 10, 17-34, 41-53, 56-70, 73-89, 92-104, 109-119, 122-130 entry C          line   146 file /opt/software/pc2/EB-SW/software/PSI4/1.9-foss-2022a/share/psi4/basis/jun-cc-pvdz-jkfit.gbs 
    atoms 3, 6                                                               entry N          line   202 file /opt/software/pc2/EB-SW/software/PSI4/1.9-foss-2022a/share/psi4/basis/jun-cc-pvdz-jkfit.gbs 
    atoms 7-9, 11-16, 35-40, 54-55, 71-72, 90-91, 105-108, 120-121, 131-136  entry H          line    70 file /opt/software/pc2/EB-SW/software/PSI4/1.9-foss-2022a/share/psi4/basis/jun-cc-pvdz-jkfit.gbs 


  //>>>>>>>>>>>>>>>>>>>>>>>>>>>>>>>>>>>//
  //               SSAPT0              //
  //<<<<<<<<<<<<<<<<<<<<<<<<<<<<<<<<<<<//


*** tstart() called on n2cn0973
*** at Sat Jan 27 03:06:08 2024

        SAPT0  
    Ed Hohenstein
     6 June 2009

      Orbital Information
  --------------------------
    NSO        =      2019
    NMO        =      1981
    NRI        =      7157
    NRI (Elst) =      8896
    NOCC A     =        26
    NOCC B     =       300
    FOCC A     =         7
    FOCC B     =        96
    NVIR A     =      1955
    NVIR B     =      1681

    Elst10,r            =    -0.009481658089 [Eh]
    Exch10              =     0.000007695844 [Eh]
    Exch10 (S^2)        =     0.000007695804 [Eh]

    Iter     Energy [mEh]          dE [mEh]         Residual      Time [s]
       1      -0.01821444       0.018214435       1.265614669           255
       2      -0.01722175      -0.000992688       0.321927489           551
       3      -0.01885751       0.001635759       0.085937089           784
       4      -0.01894783       0.000090319       0.037962192          1086
       5      -0.01887457      -0.000073254       0.011759578          1361
       6      -0.01887617       0.000001600       0.004078720          1610
       7      -0.01888251       0.000006342       0.001144613          1823
       8      -0.01888287       0.000000354       0.000383552          2033
       9      -0.01888254      -0.000000323       0.000118169          2296
      10      -0.01888247      -0.000000076       0.000035446          2529
      11      -0.01888248       0.000000010       0.000009319          2811
      12      -0.01888249       0.000000008       0.000002628          3008
      13      -0.01888249      -0.000000000       0.000000989          3237

    CHF Iterations converged


    Iter     Energy [mEh]          dE [mEh]         Residual      Time [s]
       1      -7.38017517       7.380175165      47.188796962           244
       2      -4.72619135      -2.653983820       5.616394350           481
       3      -4.70106228      -0.025129067       1.870981068           707
       4      -4.78585978       0.084797501       0.598342272           939
       5      -4.79768205       0.011822270       0.208357249          1146
       6      -4.79647777      -0.001204281       0.140728101          1422
       7      -4.79395009      -0.002527680       0.059243647          1697
       8      -4.79413130       0.000181215       0.030532833          1915
       9      -4.79467604       0.000544740       0.017627363          2186
      10      -4.79457961      -0.000096430       0.015300644          2385
      11      -4.79446359      -0.000116029       0.007087542          2600
      12      -4.79445728      -0.000006308       0.003799717          2868
      13      -4.79448623       0.000028951       0.001950448          3110
      14      -4.79449573       0.000009507       0.001255246          3346
      15      -4.79448923      -0.000006509       0.000789562          3585
      16      -4.79448337      -0.000005858       0.000265530          3839
      17      -4.79448597       0.000002607       0.000090463          4090
      18      -4.79448650       0.000000522       0.000028883          4345
      19      -4.79448635      -0.000000146       0.000015692          4593
      20      -4.79448623      -0.000000123       0.000006250          4838
      21      -4.79448625       0.000000020       0.000002879          5052
      22      -4.79448627       0.000000019       0.000001374          5294
      23      -4.79448627      -0.000000001       0.000000591          5514

    CHF Iterations converged

    Ind20,r (A<-B)      =    -0.000018882486 [Eh]
    Ind20,r (B<-A)      =    -0.004794486266 [Eh]
    Ind20,r             =    -0.004813368752 [Eh]
    Exch-Ind20,r (A<-B) =     0.000000273769 [Eh]
    Exch-Ind20,r (B<-A) =     0.000002859723 [Eh]
    Exch-Ind20,r        =     0.000003133492 [Eh]
    Disp20              =    -0.002915967030 [Eh]
    Disp20 (SS)         =    -0.001457983515 [Eh]
    Disp20 (OS)         =    -0.001457983515 [Eh]
    Exch-Disp20         =     0.000001805433 [Eh]
    Exch-Disp20 (SS)    =     0.000001299379 [Eh]
    Exch-Disp20 (OS)    =     0.000000506054 [Eh]

    SAPT Results 
  --------------------------------------------------------------------------------------------------------
    Electrostatics                 -9.48165809 [mEh]      -5.94983028 [kcal/mol]     -24.89408988 [kJ/mol]
      Elst10,r                     -9.48165809 [mEh]      -5.94983028 [kcal/mol]     -24.89408988 [kJ/mol]

    Exchange                        0.00769584 [mEh]       0.00482922 [kcal/mol]       0.02020544 [kJ/mol]
      Exch10                        0.00769584 [mEh]       0.00482922 [kcal/mol]       0.02020544 [kJ/mol]
      Exch10(S^2)                   0.00769580 [mEh]       0.00482919 [kcal/mol]       0.02020533 [kJ/mol]

    Induction                      -4.94361774 [mEh]      -3.10216696 [kcal/mol]     -12.97946658 [kJ/mol]
      Ind20,r                      -4.81336875 [mEh]      -3.02043449 [kcal/mol]     -12.63749792 [kJ/mol]
      Exch-Ind20,r                  0.00313349 [mEh]       0.00196630 [kcal/mol]       0.00822698 [kJ/mol]
      delta HF,r (2)               -0.13338248 [mEh]      -0.08369877 [kcal/mol]      -0.35019564 [kJ/mol]

    Dispersion                     -2.91416160 [mEh]      -1.82866401 [kcal/mol]      -7.65113022 [kJ/mol]
      Disp20                       -2.91596703 [mEh]      -1.82979694 [kcal/mol]      -7.65587038 [kJ/mol]
      Exch-Disp20                   0.00180543 [mEh]       0.00113293 [kcal/mol]       0.00474016 [kJ/mol]
      Disp20 (SS)                  -1.45798352 [mEh]      -0.91489847 [kcal/mol]      -3.82793519 [kJ/mol]
      Disp20 (OS)                  -1.45798352 [mEh]      -0.91489847 [kcal/mol]      -3.82793519 [kJ/mol]
      Exch-Disp20 (SS)              0.00129938 [mEh]       0.00081537 [kcal/mol]       0.00341152 [kJ/mol]
      Exch-Disp20 (OS)              0.00050605 [mEh]       0.00031755 [kcal/mol]       0.00132865 [kJ/mol]

  Total HF                        -14.41757998 [mEh]      -9.04716803 [kcal/mol]     -37.85335103 [kJ/mol]
  Total SAPT0                     -17.33174158 [mEh]     -10.87583204 [kcal/mol]     -45.50448125 [kJ/mol]

  Special recipe for scaled SAPT0 (see Manual):
    Electrostatics sSAPT0          -9.48165809 [mEh]      -5.94983028 [kcal/mol]     -24.89408988 [kJ/mol]
    Exchange sSAPT0                 0.00769584 [mEh]       0.00482922 [kcal/mol]       0.02020544 [kJ/mol]
    Induction sSAPT0               -4.94361774 [mEh]      -3.10216696 [kcal/mol]     -12.97946658 [kJ/mol]
    Dispersion sSAPT0              -2.91416160 [mEh]      -1.82866401 [kcal/mol]      -7.65113022 [kJ/mol]
  Total sSAPT0                    -17.33174158 [mEh]     -10.87583204 [kcal/mol]     -45.50448125 [kJ/mol]
  --------------------------------------------------------------------------------------------------------

*** tstop() called on n2cn0973 at Sat Jan 27 10:35:45 2024
Module time:
	user time   =   77076.54 seconds =    1284.61 minutes
	system time =    4915.83 seconds =      81.93 minutes
	total time  =      26977 seconds =     449.62 minutes
Total time:
	user time   =  131214.58 seconds =    2186.91 minutes
	system time =   10345.05 seconds =     172.42 minutes
	total time  =      37411 seconds =     623.52 minutes

    Psi4 stopped on: Saturday, 27 January 2024 10:35AM
    Psi4 wall time for execution: 10:23:31.73

*** Psi4 exiting successfully. Buy a developer a beer!
