
    -----------------------------------------------------------------------
          Psi4: An Open-Source Ab Initio Electronic Structure Package
                               Psi4 1.9 release

                         Git: Rev {} zzzzzzz 


    D. G. A. Smith, L. A. Burns, A. C. Simmonett, R. M. Parrish,
    M. C. Schieber, R. Galvelis, P. Kraus, H. Kruse, R. Di Remigio,
    A. Alenaizan, A. M. James, S. Lehtola, J. P. Misiewicz, M. Scheurer,
    R. A. Shaw, J. B. Schriber, Y. Xie, Z. L. Glick, D. A. Sirianni,
    J. S. O'Brien, J. M. Waldrop, A. Kumar, E. G. Hohenstein,
    B. P. Pritchard, B. R. Brooks, H. F. Schaefer III, A. Yu. Sokolov,
    K. Patkowski, A. E. DePrince III, U. Bozkaya, R. A. King,
    F. A. Evangelista, J. M. Turney, T. D. Crawford, C. D. Sherrill,
    J. Chem. Phys. 152(18) 184108 (2020). https://doi.org/10.1063/5.0006002

                            Additional Code Authors
    E. T. Seidl, C. L. Janssen, E. F. Valeev, M. L. Leininger,
    J. F. Gonthier, R. M. Richard, H. R. McAlexander, M. Saitow, X. Wang,
    P. Verma, M. H. Lechner, A. Jiang, S. Behnle, A. G. Heide,
    M. F. Herbst, and D. L. Poole

             Previous Authors, Complete List of Code Contributors,
                       and Citations for Specific Modules
    https://github.com/psi4/psi4/blob/master/codemeta.json
    https://github.com/psi4/psi4/graphs/contributors
    http://psicode.org/psi4manual/master/introduction.html#citing-psifour

    -----------------------------------------------------------------------


    Psi4 started on: Monday, 22 January 2024 09:18AM

    Process ID: 2400169
    Host:       d-16-12-3
    PSIDATADIR: /home/gridsan/tfroembgen/.conda/envs/psi4test/share/psi4
    Memory:     500.0 MiB
    Threads:    12
    
  ==> Input File <==

--------------------------------------------------------------------------
memory 32 GB # how much memory is available ! Depends on the nodes/cores !

molecule dimer {
# monomer A
-1 1    # Charge and multiplicity
B -1.977592e-04  2.742729e-04 -7.799966
F  1.123153e-16  1.430594e-17 -6.387181
F  1.147860e+00  6.757812e-01 -8.271107
F  1.191806e-02 -1.332011e+00 -8.270905
F -1.159666e+00  6.560735e-01 -8.270826
--
# monomer B
0 1     # Charge and multiplicity
C   1.22531237526482      0.70753866091955      0.00613762728373
C   1.22532433589282     -0.70753852257020     -0.00619318228664
C   -0.00000567409046      1.41496628609039     -0.00672680580738
C   2.45644923379077      1.41832825917820      0.00902448468363
C   0.00001130712078     -1.41497612663474      0.00347275151708
C   -1.22530046906674      0.70754574598412      0.00838914760619
C   2.45643823516184     -1.41832293188077     -0.00843833914343
C   -0.00000085313587      2.83680140328112     -0.00913035594137
C   3.68182717731192      0.70931832800114     -0.00808954934571
C   2.45512052870677      2.83422403348893     -0.00819210630633
C   3.68182158506039     -0.70933346742900      0.00798293467272
C   -1.22531311884624     -0.70752714354401     -0.00512042085974
C   1.22670006104402      3.54346985599427      0.00816696660346
C   0.00000526469929     -2.83678176723568      0.00832091913869
C   -2.45643555300670      1.41831729028492      0.00842454345199
C   2.45512389762097     -2.83422965658853      0.00783102630520
C   -1.22671388474763      3.54346943575023      0.00827029982280
C   4.91451777504333      1.42717324448953     -0.00160886631602
C   3.69315067131765      3.54279566454522     -0.00155906667985
C   -2.45643712022637     -1.41831290883911     -0.00846337726810
C   1.22670532178455     -3.54347386990643     -0.00780316414624
C   -2.45512491866593      2.83421703463423     -0.00818572995999
C   4.91452486062398     -1.42718653794377      0.00136387641845
C   1.22142509354026      4.97013443726031      0.00150231067809
C   4.89300870916237      2.82518837202648     -0.00039219795739
C   -1.22669652864725     -3.54347062507680     -0.00753595973677
C   -3.68181849668397      0.70932533873199     -0.00807686886569
C   3.69314758099218     -3.54280096939050      0.00148176697923
C   -1.22143177215231      4.97012866986289      0.00168580605083
C   6.13477145276790      0.68054831910577     -0.00083909176631
C   3.65678936045204      4.97295361556775     -0.00065042889723
C   -2.45512642789169     -2.83421472106065      0.00758666850712
C   -3.68181869921921     -0.70932533146830      0.00810055625144
C   4.89301309775526     -2.82519973363176      0.00021895393805
C   -0.00000059327114      5.65044773803267      0.00045449734393
C   6.13477559217374     -0.68055448207492      0.00042622874941
C   2.47813196269732      5.65357712333155      0.00063835075260
C   1.22142288457925     -4.97012668293268     -0.00129718634452
C   -3.69316190412301      3.54279732619245     -0.00139355922051
C   -1.22142804110313     -4.97011793159564     -0.00140994817719
C   -4.91452132810043      1.42717581899491     -0.00153192130862
C   3.65678749952045     -4.97295485423912      0.00080007163680
C   -2.47813805026426      5.65357479452875      0.00092287576113
C   -3.69314125872231     -3.54278984697859      0.00136564082345
C   -4.91451200321153     -1.42718062802730      0.00139857359209
C   -0.00000552908399     -5.65043791501335      0.00005899322272
C   -4.89302000425900      2.82518897091939     -0.00040227981744
C   2.47812647313991     -5.65357317188818     -0.00029052915548
C   -3.65679823041642      4.97295655404175     -0.00047374852278
C   -4.89299899901461     -2.82519139505969      0.00006491824035
C   -2.47812801824129     -5.65356579800621     -0.00056571680280
C   -6.13477002348955      0.68054913825639     -0.00086464346868
C   -3.65678835334731     -4.97294365097028      0.00058578382008
C   -6.13476456307132     -0.68055354348201      0.00040575295444
H   5.83528897565761      3.36927626695423      0.00396712770529
H   7.07385965258860      1.22821762089947     -0.00037744837300
H   4.60066374401555      5.51238117445323     -0.00014522814529
H   5.83528386714679     -3.36930568472863     -0.00423551337640
H   -0.00001167146422      6.73853104613662     -0.00389474766392
H   7.07386165167227     -1.22822657074368     -0.00008250934481
H   2.47331421164041      6.74068466339473      0.00017162982210
H   4.60066897122302     -5.51237575717576      0.00039007446835
H   -2.47331820069565      6.74068209160650      0.00047297644710
H   -0.00000978838621     -6.73852780445195      0.00458867820736
H   -5.83530143450167      3.36927132229595      0.00410314985360
H   2.47330840367253     -6.74068500242887      0.00027980126949
H   -4.60067436136587      5.51237839860371      0.00002010017831
H   -5.83527902699321     -3.36928859177951     -0.00451481925734
H   -2.47329986759855     -6.74067870613986     -0.00016951527498
H   -7.07385728692578      1.22822084484047     -0.00046143985387
H   -4.60067330624313     -5.51236229778631      0.00021776644566
H   -7.07385645456741     -1.22822025997701     -0.00017736581114

    units angstrom      # Angstroms are the default
    no_reorient         # Geometry fixed, default
    symmetry c1         # C1 symmetry, default
}

set {
    scf_type DF         # Density fitting, faster than exact integrals
    freeze_core True    # Freeze core electrons
    basis jun-cc-pVDZ   # Jun-cc-pVDZ basis set, recommended for sSAPT0 in https://doi.org/10.1063/1.4867135
}

energy('ssapt0')        # Compute sSAPT0 energy, includes also SAPT0
--------------------------------------------------------------------------

  Memory set to  29.802 GiB by Python driver.

Scratch directory: /state/partition1/slurm_tmp/24790923.4294967291.0/
   => Loading Basis Set <=

    Name: JUN-CC-PVDZ
    Role: ORBITAL
    Keyword: BASIS
    atoms 1     entry B          line   130 file /home/gridsan/tfroembgen/.conda/envs/psi4test/share/psi4/basis/jun-cc-pvdz.gbs 
    atoms 2-5   entry F          line   266 file /home/gridsan/tfroembgen/.conda/envs/psi4test/share/psi4/basis/jun-cc-pvdz.gbs 
    atoms 6-59  entry C          line   164 file /home/gridsan/tfroembgen/.conda/envs/psi4test/share/psi4/basis/jun-cc-pvdz.gbs 
    atoms 60-77 entry H          line    36 file /home/gridsan/tfroembgen/.conda/envs/psi4test/share/psi4/basis/jun-cc-pvdz.gbs 

   => Loading Basis Set <=

    Name: JUN-CC-PVDZ
    Role: ORBITAL
    Keyword: BASIS
    atoms 1     entry B          line   130 file /home/gridsan/tfroembgen/.conda/envs/psi4test/share/psi4/basis/jun-cc-pvdz.gbs 
    atoms 2-5   entry F          line   266 file /home/gridsan/tfroembgen/.conda/envs/psi4test/share/psi4/basis/jun-cc-pvdz.gbs 
    atoms 6-59  entry C          line   164 file /home/gridsan/tfroembgen/.conda/envs/psi4test/share/psi4/basis/jun-cc-pvdz.gbs 
    atoms 60-77 entry H          line    36 file /home/gridsan/tfroembgen/.conda/envs/psi4test/share/psi4/basis/jun-cc-pvdz.gbs 


  //>>>>>>>>>>>>>>>>>>>>>>>>>>>>>>>>>>>//
  //              Dimer HF             //
  //<<<<<<<<<<<<<<<<<<<<<<<<<<<<<<<<<<<//

   => Libint2 <=

    Primary   basis highest AM E, G, H:  7, 7, 4
    Auxiliary basis highest AM E, G, H:  7, 7, 5
    Onebody   basis highest AM E, G, H:  7, 7, 5
    Solid Harmonics ordering:            gaussian

*** tstart() called on d-16-12-3
*** at Mon Jan 22 09:18:26 2024

   => Loading Basis Set <=

    Name: JUN-CC-PVDZ
    Role: ORBITAL
    Keyword: BASIS
    atoms 1     entry B          line   130 file /home/gridsan/tfroembgen/.conda/envs/psi4test/share/psi4/basis/jun-cc-pvdz.gbs 
    atoms 2-5   entry F          line   266 file /home/gridsan/tfroembgen/.conda/envs/psi4test/share/psi4/basis/jun-cc-pvdz.gbs 
    atoms 6-59  entry C          line   164 file /home/gridsan/tfroembgen/.conda/envs/psi4test/share/psi4/basis/jun-cc-pvdz.gbs 
    atoms 60-77 entry H          line    36 file /home/gridsan/tfroembgen/.conda/envs/psi4test/share/psi4/basis/jun-cc-pvdz.gbs 


         ---------------------------------------------------------
                                   SCF
               by Justin Turney, Rob Parrish, Andy Simmonett
                          and Daniel G. A. Smith
                              RHF Reference
                       12 Threads,  30517 MiB Core
         ---------------------------------------------------------

  ==> Geometry <==

    Molecular point group: c1
    Full point group: C1

    Geometry (in Angstrom), charge = -1, multiplicity = 1:

       Center              X                  Y                   Z               Mass       
    ------------   -----------------  -----------------  -----------------  -----------------
         B           -0.000198161052     0.000273808717    -6.898910379367    11.009305360000
         F           -0.000000401852    -0.000000464183    -5.486125379367    18.998403162730
         F            1.147859598148     0.675780735817    -7.370051379367    18.998403162730
         F            0.011917658148    -1.332011464183    -7.369849379367    18.998403162730
         F           -1.159666401852     0.656073035817    -7.369770379367    18.998403162730
         C            1.225311973413     0.707538196736     0.907193247917    12.000000000000
         C            1.225323934041    -0.707538986754     0.894862438346    12.000000000000
         C           -0.000006075942     1.414965821907     0.894328814826    12.000000000000
         C            2.456448831939     1.418327794995     0.910080105317    12.000000000000
         C            0.000010905269    -1.414976590818     0.904528372150    12.000000000000
         C           -1.225300870919     0.707545281801     0.909444768239    12.000000000000
         C            2.456437833310    -1.418323396064     0.892617281490    12.000000000000
         C           -0.000001254988     2.836800939098     0.891925264692    12.000000000000
         C            3.681826775460     0.709317863818     0.892966071287    12.000000000000
         C            2.455120126855     2.834223569306     0.892863514327    12.000000000000
         C            3.681821183209    -0.709333931612     0.909038555306    12.000000000000
         C           -1.225313520698    -0.707527607727     0.895935199773    12.000000000000
         C            1.226699659192     3.543469391811     0.909222587236    12.000000000000
         C            0.000004862847    -2.836782231419     0.909376539772    12.000000000000
         C           -2.456435954859     1.418316826102     0.909480164085    12.000000000000
         C            2.455123495769    -2.834230120772     0.908886646938    12.000000000000
         C           -1.226714286599     3.543468971567     0.909325920456    12.000000000000
         C            4.914517373191     1.427172780306     0.899446754317    12.000000000000
         C            3.693150269466     3.542795200362     0.899496553953    12.000000000000
         C           -2.456437522078    -1.418313373022     0.892592243365    12.000000000000
         C            1.226704919933    -3.543474334090     0.893252456487    12.000000000000
         C           -2.455125320518     2.834216570451     0.892869890673    12.000000000000
         C            4.914524458772    -1.427187002127     0.902419497051    12.000000000000
         C            1.221424691688     4.970133973077     0.902557931311    12.000000000000
         C            4.893008307311     2.825187907843     0.900663422676    12.000000000000
         C           -1.226696930499    -3.543471089260     0.893519660896    12.000000000000
         C           -3.681818898536     0.709324874549     0.892978751767    12.000000000000
         C            3.693147179140    -3.542801433574     0.902537387612    12.000000000000
         C           -1.221432174004     4.970128205680     0.902741426684    12.000000000000
         C            6.134771050916     0.680547854922     0.900216528867    12.000000000000
         C            3.656788958600     4.972953151384     0.900405191736    12.000000000000
         C           -2.455126829744    -2.834215185244     0.908642289140    12.000000000000
         C           -3.681819101071    -0.709325795652     0.909156176884    12.000000000000
         C            4.893012695903    -2.825200197815     0.901274574571    12.000000000000
         C           -0.000000995123     5.650447273849     0.901510117977    12.000000000000
         C            6.134775190322    -0.680554946258     0.901481849382    12.000000000000
         C            2.478131560845     5.653576659148     0.901693971386    12.000000000000
         C            1.221422482727    -4.970127147116     0.899758434288    12.000000000000
         C           -3.693162305975     3.542796862009     0.899662061412    12.000000000000
         C           -1.221428442955    -4.970118395779     0.899645672456    12.000000000000
         C           -4.914521729952     1.427175354812     0.899523699324    12.000000000000
         C            3.656787097669    -4.972955318422     0.901855692270    12.000000000000
         C           -2.478138452116     5.653574330345     0.901978496394    12.000000000000
         C           -3.693141660574    -3.542790311162     0.902421261456    12.000000000000
         C           -4.914512405063    -1.427181092211     0.902454194225    12.000000000000
         C           -0.000005930936    -5.650438379197     0.901114613856    12.000000000000
         C           -4.893020406111     2.825188506736     0.900653340816    12.000000000000
         C            2.478126071288    -5.653573636072     0.900765091478    12.000000000000
         C           -3.656798632268     4.972956089858     0.900581872110    12.000000000000
         C           -4.892999400866    -2.825191859243     0.901120538873    12.000000000000
         C           -2.478128420093    -5.653566262190     0.900489903830    12.000000000000
         C           -6.134770425341     0.680548674073     0.900190977164    12.000000000000
         C           -3.656788755199    -4.972944115154     0.901641404453    12.000000000000
         C           -6.134764964923    -0.680554007665     0.901461373587    12.000000000000
         H            5.835288573806     3.369275802771     0.905022748338     1.007825032230
         H            7.073859250737     1.228217156716     0.900678172260     1.007825032230
         H            4.600663342164     5.512380710270     0.900910392488     1.007825032230
         H            5.835283465295    -3.369306148912     0.896820107257     1.007825032230
         H           -0.000012073316     6.738530581953     0.897160872969     1.007825032230
         H            7.073861249820    -1.228227034927     0.900973111288     1.007825032230
         H            2.473313809789     6.740684199211     0.901227250455     1.007825032230
         H            4.600668569371    -5.512376221359     0.901445695101     1.007825032230
         H           -2.473318602548     6.740681627423     0.901528597080     1.007825032230
         H           -0.000010190238    -6.738528268635     0.905644298840     1.007825032230
         H           -5.835301836354     3.369270858113     0.905158770487     1.007825032230
         H            2.473308001821    -6.740685466612     0.901335421902     1.007825032230
         H           -4.600674763218     5.512377934420     0.901075720811     1.007825032230
         H           -5.835279428845    -3.369289055963     0.896540801376     1.007825032230
         H           -2.473300269450    -6.740679170323     0.900886105358     1.007825032230
         H           -7.073857688778     1.228220380657     0.900594180779     1.007825032230
         H           -4.600673708095    -5.512362761970     0.901273387079     1.007825032230
         H           -7.073856856419    -1.228220724160     0.900878254822     1.007825032230

  Running in c1 symmetry.

  Rotational constants: A =      0.00136  B =      0.00136  C =      0.00110 [cm^-1]
  Rotational constants: A =     40.80965  B =     40.80580  C =     33.02251 [MHz]
  Nuclear repulsion = 7448.029214654699899

  Charge       = -1
  Multiplicity = 1
  Electrons    = 384
  Nalpha       = 192
  Nbeta        = 192

  ==> Algorithm <==

  SCF Algorithm Type is DF.
  DIIS enabled.
  MOM disabled.
  Fractional occupation disabled.
  Guess Type is SAD.
  Energy threshold   = 1.00e-08
  Density threshold  = 1.00e-08
  Integral threshold = 1.00e-12

  ==> Primary Basis <==

  Basis Set: JUN-CC-PVDZ
    Blend: JUN-CC-PVDZ
    Number of shells: 526
    Number of basis functions: 1152
    Number of Cartesian functions: 1211
    Spherical Harmonics?: true
    Max angular momentum: 2

   => Loading Basis Set <=

    Name: (JUN-CC-PVDZ AUX)
    Role: JKFIT
    Keyword: DF_BASIS_SCF
    atoms 1     entry B          line    90 file /home/gridsan/tfroembgen/.conda/envs/psi4test/share/psi4/basis/jun-cc-pvdz-jkfit.gbs 
    atoms 2-5   entry F          line   314 file /home/gridsan/tfroembgen/.conda/envs/psi4test/share/psi4/basis/jun-cc-pvdz-jkfit.gbs 
    atoms 6-59  entry C          line   146 file /home/gridsan/tfroembgen/.conda/envs/psi4test/share/psi4/basis/jun-cc-pvdz-jkfit.gbs 
    atoms 60-77 entry H          line    70 file /home/gridsan/tfroembgen/.conda/envs/psi4test/share/psi4/basis/jun-cc-pvdz-jkfit.gbs 

  ==> Integral Setup <==

  ==> DiskDFJK: Density-Fitted J/K Matrices <==

    J tasked:                  Yes
    K tasked:                  Yes
    wK tasked:                  No
    OpenMP threads:             12
    Integrals threads:          12
    Memory [MiB]:            22888
    Algorithm:                Core
    Integral Cache:           SAVE
    Schwarz Cutoff:          1E-12
    Fitting Condition:       1E-10

   => Auxiliary Basis Set <=

  Basis Set: (JUN-CC-PVDZ AUX)
    Blend: JUN-CC-PVDZ-JKFIT
    Number of shells: 1755
    Number of basis functions: 5075
    Number of Cartesian functions: 5819
    Spherical Harmonics?: true
    Max angular momentum: 3

  Minimum eigenvalue in the overlap matrix is 8.3998295256E-10.
  Reciprocal condition number of the overlap matrix is 3.7565403096E-11.
    Using canonical orthogonalization.
  Overall, 14 of 1152 possible MOs eliminated.


  ==> Pre-Iterations <==

  SCF Guess: Superposition of Atomic Densities via on-the-fly atomic UHF (no occupation information).

   -------------------------
    Irrep   Nso     Nmo    
   -------------------------
     A       1152    1138 
   -------------------------
    Total    1152    1138
   -------------------------

  ==> Iterations <==

                           Total Energy        Delta E     RMS |[F,P]|

   @DF-RHF iter SAD: -2483.25909030803496   -2.48326e+03   0.00000e+00 
   @DF-RHF iter   1: -2477.62860199499391    5.63049e+00   1.09650e-03 DIIS/ADIIS
   @DF-RHF iter   2: -2478.51331531830010   -8.84713e-01   4.71974e-04 DIIS/ADIIS
   @DF-RHF iter   3: -2478.64300282026488   -1.29688e-01   1.29650e-04 DIIS/ADIIS
   @DF-RHF iter   4: -2478.65584056027137   -1.28377e-02   5.10765e-05 DIIS
   @DF-RHF iter   5: -2478.65802291686396   -2.18236e-03   1.55148e-05 DIIS
   @DF-RHF iter   6: -2478.65829076331374   -2.67846e-04   5.36035e-06 DIIS
   @DF-RHF iter   7: -2478.65837057586987   -7.98126e-05   2.63674e-06 DIIS
   @DF-RHF iter   8: -2478.65839248869224   -2.19128e-05   1.21763e-06 DIIS
   @DF-RHF iter   9: -2478.65839901079335   -6.52210e-06   2.46677e-07 DIIS
   @DF-RHF iter  10: -2478.65839922487930   -2.14086e-07   8.68930e-08 DIIS
   @DF-RHF iter  11: -2478.65839924102602   -1.61467e-08   3.36802e-08 DIIS
   @DF-RHF iter  12: -2478.65839924434295   -3.31693e-09   1.13880e-08 DIIS
   @DF-RHF iter  13: -2478.65839924470220   -3.59250e-10   4.40688e-09 DIIS
  Energy and wave function converged.


  ==> Post-Iterations <==

    Orbital Energies [Eh]
    ---------------------

    Doubly Occupied:                                                      

       1A    -26.064318     2A    -26.064223     3A    -26.064137  
       4A    -26.063360     5A    -11.204124     6A    -11.204113  
       7A    -11.204107     8A    -11.204069     9A    -11.204064  
      10A    -11.204050    11A    -11.204012    12A    -11.204000  
      13A    -11.203994    14A    -11.203961    15A    -11.203955  
      16A    -11.203952    17A    -11.203736    18A    -11.203473  
      19A    -11.203470    20A    -11.203214    21A    -11.203214  
      22A    -11.203146    23A    -11.202892    24A    -11.202646  
      25A    -11.202643    26A    -11.202075    27A    -11.202032  
      28A    -11.202032    29A    -11.201696    30A    -11.201695  
      31A    -11.201649    32A    -11.201648    33A    -11.201554  
      34A    -11.201242    35A    -11.201083    36A    -11.200970  
      37A    -11.200970    38A    -11.200810    39A    -11.200809  
      40A    -11.200717    41A    -11.199308    42A    -11.199307  
      43A    -11.199306    44A    -11.199306    45A    -11.199303  
      46A    -11.199301    47A    -11.197885    48A    -11.197884  
      49A    -11.197882    50A    -11.197879    51A    -11.197877  
      52A    -11.197875    53A    -11.197278    54A    -11.197277  
      55A    -11.197274    56A    -11.197250    57A    -11.197249  
      58A    -11.197248    59A     -7.536302    60A     -1.407964  
      61A     -1.348460    62A     -1.348297    63A     -1.347752  
      64A     -1.188002    65A     -1.164493    66A     -1.164492  
      67A     -1.134683    68A     -1.134676    69A     -1.125473  
      70A     -1.103210    71A     -1.094226    72A     -1.080290  
      73A     -1.080283    74A     -1.058917    75A     -1.058912  
      76A     -1.027448    77A     -1.027441    78A     -1.023621  
      79A     -1.011842    80A     -1.011838    81A     -0.984948  
      82A     -0.968921    83A     -0.966439    84A     -0.966396  
      85A     -0.963507    86A     -0.958812    87A     -0.932207  
      88A     -0.932162    89A     -0.907583    90A     -0.907534  
      91A     -0.840061    92A     -0.840033    93A     -0.832698  
      94A     -0.830885    95A     -0.830827    96A     -0.826554  
      97A     -0.826506    98A     -0.807695    99A     -0.783851  
     100A     -0.763875   101A     -0.761639   102A     -0.757425  
     103A     -0.757416   104A     -0.740767   105A     -0.740756  
     106A     -0.691649   107A     -0.690080   108A     -0.678682  
     109A     -0.678674   110A     -0.678221   111A     -0.678198  
     112A     -0.662043   113A     -0.644781   114A     -0.644770  
     115A     -0.639170   116A     -0.639154   117A     -0.607379  
     118A     -0.599247   119A     -0.598693   120A     -0.596487  
     121A     -0.596481   122A     -0.596356   123A     -0.585274  
     124A     -0.585272   125A     -0.575188   126A     -0.573051  
     127A     -0.573036   128A     -0.552984   129A     -0.549590  
     130A     -0.546924   131A     -0.545760   132A     -0.545728  
     133A     -0.538996   134A     -0.536244   135A     -0.536233  
     136A     -0.531962   137A     -0.525534   138A     -0.525451  
     139A     -0.525253   140A     -0.520580   141A     -0.520574  
     142A     -0.513612   143A     -0.513597   144A     -0.511372  
     145A     -0.511355   146A     -0.504154   147A     -0.501126  
     148A     -0.501120   149A     -0.484781   150A     -0.484777  
     151A     -0.483092   152A     -0.483087   153A     -0.475481  
     154A     -0.472128   155A     -0.468644   156A     -0.468637  
     157A     -0.446799   158A     -0.444306   159A     -0.444264  
     160A     -0.441218   161A     -0.439327   162A     -0.432963  
     163A     -0.430435   164A     -0.427455   165A     -0.427447  
     166A     -0.414716   167A     -0.414700   168A     -0.405499  
     169A     -0.405417   170A     -0.405358   171A     -0.396004  
     172A     -0.395925   173A     -0.384829   174A     -0.384820  
     175A     -0.382194   176A     -0.381857   177A     -0.381793  
     178A     -0.349414   179A     -0.349391   180A     -0.347965  
     181A     -0.321397   182A     -0.321394   183A     -0.294418  
     184A     -0.281349   185A     -0.280338   186A     -0.280284  
     187A     -0.256648   188A     -0.244453   189A     -0.228884  
     190A     -0.228829   191A     -0.170252   192A     -0.170187  

    Virtual:                                                              

     193A      0.068506   194A      0.068570   195A      0.095935  
     196A      0.095938   197A      0.097966   198A      0.098532  
     199A      0.098537   200A      0.105647   201A      0.109666  
     202A      0.119766   203A      0.119813   204A      0.120624  
     205A      0.120626   206A      0.130532   207A      0.135403  
     208A      0.135409   209A      0.136197   210A      0.137412  
     211A      0.137443   212A      0.139938   213A      0.139945  
     214A      0.141324   215A      0.143458   216A      0.146137  
     217A      0.146138   218A      0.155070   219A      0.155194  
     220A      0.159360   221A      0.159368   222A      0.163877  
     223A      0.166185   224A      0.168825   225A      0.168858  
     226A      0.170249   227A      0.177169   228A      0.179107  
     229A      0.179120   230A      0.179747   231A      0.181298  
     232A      0.184147   233A      0.184155   234A      0.184490  
     235A      0.184493   236A      0.184938   237A      0.191200  
     238A      0.194978   239A      0.194991   240A      0.200537  
     241A      0.202048   242A      0.202051   243A      0.203911  
     244A      0.203914   245A      0.208949   246A      0.208951  
     247A      0.220233   248A      0.220237   249A      0.222820  
     250A      0.222854   251A      0.223375   252A      0.230694  
     253A      0.230713   254A      0.231623   255A      0.231675  
     256A      0.237840   257A      0.237844   258A      0.238661  
     259A      0.239975   260A      0.240070   261A      0.240081  
     262A      0.245399   263A      0.247443   264A      0.247449  
     265A      0.252099   266A      0.255245   267A      0.255247  
     268A      0.255923   269A      0.259955   270A      0.259969  
     271A      0.262259   272A      0.262987   273A      0.263016  
     274A      0.264527   275A      0.265025   276A      0.265617  
     277A      0.274078   278A      0.276810   279A      0.276896  
     280A      0.276918   281A      0.277303   282A      0.278596  
     283A      0.278622   284A      0.279888   285A      0.281551  
     286A      0.281579   287A      0.286427   288A      0.286441  
     289A      0.291493   290A      0.291510   291A      0.294782  
     292A      0.295510   293A      0.295513   294A      0.298809  
     295A      0.307065   296A      0.307071   297A      0.308751  
     298A      0.308806   299A      0.310877   300A      0.310886  
     301A      0.315635   302A      0.315651   303A      0.321464  
     304A      0.321474   305A      0.323149   306A      0.324749  
     307A      0.324835   308A      0.326412   309A      0.326415  
     310A      0.329799   311A      0.329818   312A      0.330558  
     313A      0.344463   314A      0.344474   315A      0.345686  
     316A      0.345699   317A      0.346045   318A      0.352191  
     319A      0.352705   320A      0.353015   321A      0.355095  
     322A      0.355106   323A      0.357642   324A      0.357712  
     325A      0.358809   326A      0.360399   327A      0.363435  
     328A      0.363455   329A      0.366405   330A      0.366408  
     331A      0.367961   332A      0.372364   333A      0.372373  
     334A      0.372590   335A      0.373882   336A      0.375039  
     337A      0.377406   338A      0.377581   339A      0.380717  
     340A      0.380729   341A      0.381848   342A      0.387349  
     343A      0.387444   344A      0.390916   345A      0.397221  
     346A      0.397227   347A      0.398364   348A      0.399148  
     349A      0.399155   350A      0.399745   351A      0.403484  
     352A      0.403499   353A      0.403570   354A      0.403960  
     355A      0.403967   356A      0.406860   357A      0.415838  
     358A      0.415906   359A      0.417160   360A      0.417182  
     361A      0.422313   362A      0.424396   363A      0.424677  
     364A      0.424728   365A      0.433500   366A      0.433540  
     367A      0.435665   368A      0.439944   369A      0.439989  
     370A      0.440460   371A      0.440471   372A      0.441983  
     373A      0.445103   374A      0.447042   375A      0.448459  
     376A      0.448468   377A      0.449411   378A      0.449451  
     379A      0.450607   380A      0.450634   381A      0.454000  
     382A      0.454020   383A      0.454554   384A      0.460338  
     385A      0.460580   386A      0.460670   387A      0.460692  
     388A      0.462893   389A      0.463235   390A      0.463280  
     391A      0.466739   392A      0.466749   393A      0.467719  
     394A      0.469412   395A      0.469479   396A      0.474196  
     397A      0.476139   398A      0.476201   399A      0.477017  
     400A      0.478216   401A      0.478222   402A      0.481793  
     403A      0.481796   404A      0.487074   405A      0.490842  
     406A      0.492779   407A      0.492967   408A      0.493716  
     409A      0.493851   410A      0.496153   411A      0.499165  
     412A      0.499178   413A      0.501481   414A      0.501518  
     415A      0.505514   416A      0.505546   417A      0.507051  
     418A      0.515929   419A      0.515954   420A      0.516338  
     421A      0.520683   422A      0.520715   423A      0.522996  
     424A      0.524533   425A      0.526152   426A      0.526195  
     427A      0.527598   428A      0.528242   429A      0.528268  
     430A      0.529231   431A      0.534384   432A      0.534445  
     433A      0.539302   434A      0.541000   435A      0.541032  
     436A      0.543147   437A      0.544353   438A      0.544388  
     439A      0.548206   440A      0.548240   441A      0.552716  
     442A      0.553233   443A      0.553421   444A      0.556536  
     445A      0.558848   446A      0.558874   447A      0.559467  
     448A      0.569152   449A      0.569445   450A      0.569524  
     451A      0.573931   452A      0.573974   453A      0.582158  
     454A      0.582322   455A      0.584103   456A      0.584173  
     457A      0.587422   458A      0.593728   459A      0.594283  
     460A      0.600411   461A      0.600460   462A      0.602986  
     463A      0.603025   464A      0.603375   465A      0.605646  
     466A      0.606255   467A      0.606304   468A      0.609749  
     469A      0.614231   470A      0.614247   471A      0.614759  
     472A      0.615198   473A      0.617007   474A      0.620668  
     475A      0.624136   476A      0.624216   477A      0.645873  
     478A      0.646050   479A      0.650076   480A      0.653494  
     481A      0.653611   482A      0.666308   483A      0.671728  
     484A      0.671816   485A      0.680088   486A      0.680262  
     487A      0.680607   488A      0.680652   489A      0.700242  
     490A      0.700496   491A      0.700657   492A      0.701547  
     493A      0.706375   494A      0.706422   495A      0.710500  
     496A      0.723451   497A      0.723476   498A      0.723874  
     499A      0.731737   500A      0.731837   501A      0.732129  
     502A      0.736752   503A      0.736798   504A      0.756319  
     505A      0.770356   506A      0.770463   507A      0.787738  
     508A      0.794627   509A      0.797388   510A      0.797509  
     511A      0.797590   512A      0.797708   513A      0.811038  
     514A      0.811051   515A      0.817769   516A      0.821045  
     517A      0.830989   518A      0.845147   519A      0.850659  
     520A      0.850727   521A      0.859601   522A      0.861746  
     523A      0.862706   524A      0.862720   525A      0.868051  
     526A      0.874735   527A      0.877637   528A      0.877970  
     529A      0.881193   530A      0.881246   531A      0.881853  
     532A      0.889590   533A      0.896924   534A      0.897135  
     535A      0.905864   536A      0.908880   537A      0.908941  
     538A      0.914522   539A      0.919021   540A      0.919095  
     541A      0.923235   542A      0.923554   543A      0.926185  
     544A      0.930089   545A      0.930129   546A      0.930559  
     547A      0.931145   548A      0.933156   549A      0.933406  
     550A      0.941264   551A      0.942555   552A      0.942683  
     553A      0.950895   554A      0.951352   555A      0.951684  
     556A      0.951797   557A      0.954008   558A      0.961587  
     559A      0.961976   560A      0.964690   561A      0.966578  
     562A      0.966963   563A      0.967041   564A      0.970752  
     565A      0.975134   566A      0.975189   567A      0.975399  
     568A      0.980810   569A      0.986438   570A      0.986779  
     571A      0.987782   572A      0.989854   573A      0.989913  
     574A      0.997943   575A      0.998067   576A      0.999731  
     577A      0.999776   578A      1.010752   579A      1.010878  
     580A      1.012741   581A      1.022363   582A      1.022584  
     583A      1.026099   584A      1.026486   585A      1.027459  
     586A      1.027520   587A      1.031872   588A      1.032788  
     589A      1.036478   590A      1.042389   591A      1.042448  
     592A      1.046372   593A      1.053688   594A      1.053753  
     595A      1.059922   596A      1.067695   597A      1.067700  
     598A      1.068703   599A      1.071084   600A      1.071103  
     601A      1.085955   602A      1.085982   603A      1.090732  
     604A      1.090972   605A      1.092628   606A      1.092880  
     607A      1.092930   608A      1.096908   609A      1.097011  
     610A      1.099060   611A      1.099118   612A      1.100470  
     613A      1.102119   614A      1.103878   615A      1.104266  
     616A      1.107356   617A      1.107392   618A      1.114429  
     619A      1.116368   620A      1.118059   621A      1.118545  
     622A      1.123876   623A      1.123892   624A      1.128939  
     625A      1.130436   626A      1.130451   627A      1.134605  
     628A      1.137274   629A      1.138598   630A      1.138686  
     631A      1.140356   632A      1.140382   633A      1.143010  
     634A      1.143188   635A      1.151708   636A      1.157153  
     637A      1.157240   638A      1.158171   639A      1.158185  
     640A      1.169878   641A      1.169915   642A      1.174936  
     643A      1.175063   644A      1.178248   645A      1.179600  
     646A      1.181954   647A      1.182099   648A      1.188037  
     649A      1.192243   650A      1.192327   651A      1.196819  
     652A      1.198174   653A      1.198209   654A      1.200008  
     655A      1.200854   656A      1.209178   657A      1.219031  
     658A      1.227176   659A      1.230177   660A      1.233524  
     661A      1.233784   662A      1.237951   663A      1.239884  
     664A      1.239923   665A      1.248924   666A      1.249046  
     667A      1.254779   668A      1.254881   669A      1.264766  
     670A      1.272112   671A      1.272162   672A      1.275580  
     673A      1.277208   674A      1.277242   675A      1.289336  
     676A      1.291221   677A      1.291329   678A      1.310454  
     679A      1.310513   680A      1.315675   681A      1.315800  
     682A      1.317501   683A      1.317634   684A      1.318648  
     685A      1.318754   686A      1.326700   687A      1.330691  
     688A      1.332691   689A      1.347156   690A      1.347250  
     691A      1.348326   692A      1.348476   693A      1.351588  
     694A      1.352635   695A      1.353566   696A      1.353585  
     697A      1.362503   698A      1.362515   699A      1.363108  
     700A      1.363301   701A      1.373388   702A      1.373442  
     703A      1.375723   704A      1.375743   705A      1.384705  
     706A      1.384800   707A      1.387494   708A      1.391674  
     709A      1.394304   710A      1.397083   711A      1.398001  
     712A      1.398059   713A      1.406305   714A      1.410050  
     715A      1.410079   716A      1.412618   717A      1.412644  
     718A      1.414620   719A      1.414647   720A      1.420950  
     721A      1.420982   722A      1.433357   723A      1.445980  
     724A      1.453128   725A      1.458474   726A      1.458497  
     727A      1.463463   728A      1.463475   729A      1.465931  
     730A      1.465962   731A      1.475131   732A      1.475360  
     733A      1.480591   734A      1.480665   735A      1.483972  
     736A      1.485241   737A      1.490376   738A      1.490400  
     739A      1.492143   740A      1.493850   741A      1.494034  
     742A      1.495072   743A      1.502086   744A      1.502096  
     745A      1.505093   746A      1.519069   747A      1.519103  
     748A      1.528561   749A      1.528744   750A      1.570866  
     751A      1.570927   752A      1.576441   753A      1.576466  
     754A      1.582994   755A      1.607572   756A      1.630245  
     757A      1.635803   758A      1.635877   759A      1.642352  
     760A      1.655064   761A      1.655619   762A      1.656026  
     763A      1.664579   764A      1.664618   765A      1.664662  
     766A      1.669661   767A      1.669871   768A      1.674254  
     769A      1.677451   770A      1.677576   771A      1.686294  
     772A      1.686656   773A      1.694881   774A      1.694928  
     775A      1.698926   776A      1.699011   777A      1.699015  
     778A      1.699716   779A      1.704659   780A      1.715704  
     781A      1.715724   782A      1.722084   783A      1.730985  
     784A      1.731019   785A      1.732345   786A      1.732358  
     787A      1.732391   788A      1.737089   789A      1.741767  
     790A      1.741821   791A      1.750599   792A      1.751663  
     793A      1.753665   794A      1.753712   795A      1.756379  
     796A      1.760691   797A      1.760758   798A      1.769993  
     799A      1.770012   800A      1.796525   801A      1.806737  
     802A      1.813908   803A      1.813927   804A      1.814192  
     805A      1.816207   806A      1.831347   807A      1.831371  
     808A      1.846018   809A      1.846040   810A      1.870541  
     811A      1.870578   812A      1.870777   813A      1.873137  
     814A      1.880067   815A      1.880166   816A      1.885407  
     817A      1.885490   818A      1.891165   819A      1.897698  
     820A      1.898050   821A      1.914584   822A      1.914628  
     823A      1.915595   824A      1.915632   825A      1.918197  
     826A      1.923421   827A      1.926894   828A      1.935168  
     829A      1.935185   830A      1.936274   831A      1.936353  
     832A      1.951016   833A      1.951120   834A      1.952910  
     835A      1.956450   836A      1.956578   837A      1.963748  
     838A      1.963889   839A      1.968095   840A      1.968347  
     841A      1.972497   842A      1.972651   843A      1.974181  
     844A      1.976824   845A      1.976909   846A      1.993425  
     847A      1.995830   848A      1.995986   849A      1.996898  
     850A      1.999357   851A      1.999387   852A      2.001625  
     853A      2.001753   854A      2.004317   855A      2.009357  
     856A      2.009393   857A      2.009472   858A      2.009516  
     859A      2.012781   860A      2.023590   861A      2.028447  
     862A      2.036081   863A      2.036292   864A      2.039084  
     865A      2.039153   866A      2.044325   867A      2.051678  
     868A      2.052702   869A      2.052760   870A      2.057292  
     871A      2.061439   872A      2.066605   873A      2.066767  
     874A      2.082278   875A      2.083056   876A      2.084672  
     877A      2.084776   878A      2.085189   879A      2.085891  
     880A      2.085981   881A      2.102513   882A      2.106244  
     883A      2.106532   884A      2.112417   885A      2.113260  
     886A      2.115068   887A      2.115071   888A      2.123384  
     889A      2.123473   890A      2.125119   891A      2.126534  
     892A      2.126896   893A      2.130611   894A      2.130688  
     895A      2.133778   896A      2.139610   897A      2.139745  
     898A      2.140451   899A      2.140504   900A      2.146958  
     901A      2.148254   902A      2.149437   903A      2.150955  
     904A      2.152423   905A      2.155045   906A      2.155118  
     907A      2.161494   908A      2.162809   909A      2.162852  
     910A      2.164726   911A      2.164754   912A      2.167393  
     913A      2.170109   914A      2.173376   915A      2.173442  
     916A      2.175737   917A      2.175845   918A      2.180491  
     919A      2.180515   920A      2.188711   921A      2.189123  
     922A      2.189785   923A      2.189861   924A      2.197341  
     925A      2.197362   926A      2.209940   927A      2.215019  
     928A      2.215045   929A      2.217650   930A      2.217675  
     931A      2.226851   932A      2.232616   933A      2.232696  
     934A      2.243783   935A      2.244149   936A      2.246972  
     937A      2.247632   938A      2.251887   939A      2.251998  
     940A      2.253996   941A      2.274210   942A      2.275812  
     943A      2.275853   944A      2.281945   945A      2.283628  
     946A      2.283945   947A      2.285124   948A      2.296188  
     949A      2.296500   950A      2.297383   951A      2.297786  
     952A      2.300474   953A      2.313491   954A      2.313607  
     955A      2.324415   956A      2.324430   957A      2.325862  
     958A      2.325908   959A      2.334086   960A      2.354140  
     961A      2.360778   962A      2.365468   963A      2.367249  
     964A      2.375800   965A      2.377497   966A      2.386172  
     967A      2.386914   968A      2.387018   969A      2.389331  
     970A      2.405811   971A      2.406449   972A      2.406995  
     973A      2.407167   974A      2.421495   975A      2.421589  
     976A      2.430691   977A      2.434067   978A      2.469746  
     979A      2.478761   980A      2.478936   981A      2.478973  
     982A      2.490491   983A      2.496165   984A      2.496209  
     985A      2.524803   986A      2.526840   987A      2.526999  
     988A      2.539603   989A      2.539618   990A      2.556892  
     991A      2.573084   992A      2.584241   993A      2.584714  
     994A      2.597187   995A      2.599378   996A      2.599423  
     997A      2.607448   998A      2.607518   999A      2.610392  
    1000A      2.614348  1001A      2.614355  1002A      2.627719  
    1003A      2.627752  1004A      2.628019  1005A      2.628566  
    1006A      2.640375  1007A      2.640509  1008A      2.642174  
    1009A      2.644230  1010A      2.644545  1011A      2.659975  
    1012A      2.677230  1013A      2.677316  1014A      2.680097  
    1015A      2.686344  1016A      2.686876  1017A      2.694967  
    1018A      2.695038  1019A      2.704406  1020A      2.704755  
    1021A      2.710943  1022A      2.736888  1023A      2.737997  
    1024A      2.738180  1025A      2.739976  1026A      2.757671  
    1027A      2.757999  1028A      2.768177  1029A      2.768183  
    1030A      2.773569  1031A      2.773588  1032A      2.777036  
    1033A      2.777264  1034A      2.793062  1035A      2.806162  
    1036A      2.806570  1037A      2.832301  1038A      2.849474  
    1039A      2.849622  1040A      2.870098  1041A      2.882061  
    1042A      2.882496  1043A      2.906059  1044A      2.906199  
    1045A      2.911983  1046A      2.914184  1047A      2.914436  
    1048A      2.914585  1049A      2.921457  1050A      2.946776  
    1051A      2.946924  1052A      2.959686  1053A      2.970525  
    1054A      2.970546  1055A      2.978201  1056A      2.987477  
    1057A      2.987535  1058A      3.003844  1059A      3.003874  
    1060A      3.016643  1061A      3.061128  1062A      3.061353  
    1063A      3.065164  1064A      3.082939  1065A      3.119482  
    1066A      3.119522  1067A      3.125253  1068A      3.125337  
    1069A      3.163377  1070A      3.164189  1071A      3.180985  
    1072A      3.183715  1073A      3.184005  1074A      3.191580  
    1075A      3.200408  1076A      3.200451  1077A      3.200643  
    1078A      3.202815  1079A      3.202824  1080A      3.211622  
    1081A      3.212007  1082A      3.219627  1083A      3.220099  
    1084A      3.245201  1085A      3.264729  1086A      3.270483  
    1087A      3.273501  1088A      3.291660  1089A      3.328022  
    1090A      3.331629  1091A      3.331793  1092A      3.336591  
    1093A      3.336780  1094A      3.471536  1095A      3.472002  
    1096A      3.500877  1097A      3.537121  1098A      3.539768  
    1099A      3.604922  1100A      3.633057  1101A      3.635017  
    1102A      3.649689  1103A      3.681295  1104A      3.683295  
    1105A      3.717733  1106A      3.722695  1107A      3.824356  
    1108A      3.838269  1109A      3.839248  1110A      3.924852  
    1111A      3.924864  1112A      3.967600  1113A      3.967713  
    1114A      4.032335  1115A      4.066360  1116A      4.089461  
    1117A      4.101370  1118A      4.138075  1119A      4.175126  
    1120A      4.175618  1121A      4.175679  1122A      4.203122  
    1123A      4.203147  1124A      4.203615  1125A      4.204060  
    1126A      4.204096  1127A      4.235888  1128A      4.235906  
    1129A      4.238150  1130A      4.450557  1131A      4.450717  
    1132A      4.451097  1133A      4.650701  1134A      4.650773  
    1135A      4.651829  1136A      4.751803  1137A      4.787330  
    1138A      4.787641  

    Final Occupation by Irrep:
              A 
    DOCC [   192 ]
    NA   [   192 ]
    NB   [   192 ]

  @DF-RHF Final Energy: -2478.65839924470220

   => Energetics <=

    Nuclear Repulsion Energy =           7448.0292146546998993
    One-Electron Energy =              -18246.3115125144613557
    Two-Electron Energy =                8319.6238986150601704
    Total Energy =                      -2478.6583992447012861

Computation Completed


Properties will be evaluated at   0.000000,   0.000000,   0.000000 [a0]

Properties computed using the SCF density matrix


 Multipole Moments:

 ------------------------------------------------------------------------------------
     Multipole            Electronic (a.u.)      Nuclear  (a.u.)        Total (a.u.)
 ------------------------------------------------------------------------------------

 L = 1.  Multiply by 2.5417464519 to convert [e a0] to [Debye]
 Dipole X            :         -0.0005297            0.0000481           -0.0004816
 Dipole Y            :          0.0010865           -0.0001453            0.0009412
 Dipole Z            :        -35.4529480           47.8167570           12.3638090
 Magnitude           :                                                   12.3638090

 ------------------------------------------------------------------------------------

*** tstop() called on d-16-12-3 at Mon Jan 22 09:24:38 2024
Module time:
	user time   =    3448.06 seconds =      57.47 minutes
	system time =     103.44 seconds =       1.72 minutes
	total time  =        372 seconds =       6.20 minutes
Total time:
	user time   =    3448.06 seconds =      57.47 minutes
	system time =     103.44 seconds =       1.72 minutes
	total time  =        372 seconds =       6.20 minutes

  //>>>>>>>>>>>>>>>>>>>>>>>>>>>>>>>>>>>//
  //            Monomer A HF           //
  //<<<<<<<<<<<<<<<<<<<<<<<<<<<<<<<<<<<//

   => Libint2 <=

    Primary   basis highest AM E, G, H:  7, 7, 4
    Auxiliary basis highest AM E, G, H:  7, 7, 5
    Onebody   basis highest AM E, G, H:  7, 7, 5
    Solid Harmonics ordering:            gaussian

*** tstart() called on d-16-12-3
*** at Mon Jan 22 09:24:38 2024

   => Loading Basis Set <=

    Name: JUN-CC-PVDZ
    Role: ORBITAL
    Keyword: BASIS
    atoms 1     entry B          line   130 file /home/gridsan/tfroembgen/.conda/envs/psi4test/share/psi4/basis/jun-cc-pvdz.gbs 
    atoms 2-5   entry F          line   266 file /home/gridsan/tfroembgen/.conda/envs/psi4test/share/psi4/basis/jun-cc-pvdz.gbs 
    atoms 6-59  entry C          line   164 file /home/gridsan/tfroembgen/.conda/envs/psi4test/share/psi4/basis/jun-cc-pvdz.gbs 
    atoms 60-77 entry H          line    36 file /home/gridsan/tfroembgen/.conda/envs/psi4test/share/psi4/basis/jun-cc-pvdz.gbs 


         ---------------------------------------------------------
                                   SCF
               by Justin Turney, Rob Parrish, Andy Simmonett
                          and Daniel G. A. Smith
                              RHF Reference
                       12 Threads,  30517 MiB Core
         ---------------------------------------------------------

  ==> Geometry <==

    Molecular point group: c1
    Full point group: C1

    Geometry (in Angstrom), charge = -1, multiplicity = 1:

       Center              X                  Y                   Z               Mass       
    ------------   -----------------  -----------------  -----------------  -----------------
         B           -0.000198161052     0.000273808717    -6.898910379367    11.009305360000
         F           -0.000000401852    -0.000000464183    -5.486125379367    18.998403162730
         F            1.147859598148     0.675780735817    -7.370051379367    18.998403162730
         F            0.011917658148    -1.332011464183    -7.369849379367    18.998403162730
         F           -1.159666401852     0.656073035817    -7.369770379367    18.998403162730
      Gh(C)           1.225311973413     0.707538196736     0.907193247917    12.000000000000
      Gh(C)           1.225323934041    -0.707538986754     0.894862438346    12.000000000000
      Gh(C)          -0.000006075942     1.414965821907     0.894328814826    12.000000000000
      Gh(C)           2.456448831939     1.418327794995     0.910080105317    12.000000000000
      Gh(C)           0.000010905269    -1.414976590818     0.904528372150    12.000000000000
      Gh(C)          -1.225300870919     0.707545281801     0.909444768239    12.000000000000
      Gh(C)           2.456437833310    -1.418323396064     0.892617281490    12.000000000000
      Gh(C)          -0.000001254988     2.836800939098     0.891925264692    12.000000000000
      Gh(C)           3.681826775460     0.709317863818     0.892966071287    12.000000000000
      Gh(C)           2.455120126855     2.834223569306     0.892863514327    12.000000000000
      Gh(C)           3.681821183209    -0.709333931612     0.909038555306    12.000000000000
      Gh(C)          -1.225313520698    -0.707527607727     0.895935199773    12.000000000000
      Gh(C)           1.226699659192     3.543469391811     0.909222587236    12.000000000000
      Gh(C)           0.000004862847    -2.836782231419     0.909376539772    12.000000000000
      Gh(C)          -2.456435954859     1.418316826102     0.909480164085    12.000000000000
      Gh(C)           2.455123495769    -2.834230120772     0.908886646938    12.000000000000
      Gh(C)          -1.226714286599     3.543468971567     0.909325920456    12.000000000000
      Gh(C)           4.914517373191     1.427172780306     0.899446754317    12.000000000000
      Gh(C)           3.693150269466     3.542795200362     0.899496553953    12.000000000000
      Gh(C)          -2.456437522078    -1.418313373022     0.892592243365    12.000000000000
      Gh(C)           1.226704919933    -3.543474334090     0.893252456487    12.000000000000
      Gh(C)          -2.455125320518     2.834216570451     0.892869890673    12.000000000000
      Gh(C)           4.914524458772    -1.427187002127     0.902419497051    12.000000000000
      Gh(C)           1.221424691688     4.970133973077     0.902557931311    12.000000000000
      Gh(C)           4.893008307311     2.825187907843     0.900663422676    12.000000000000
      Gh(C)          -1.226696930499    -3.543471089260     0.893519660896    12.000000000000
      Gh(C)          -3.681818898536     0.709324874549     0.892978751767    12.000000000000
      Gh(C)           3.693147179140    -3.542801433574     0.902537387612    12.000000000000
      Gh(C)          -1.221432174004     4.970128205680     0.902741426684    12.000000000000
      Gh(C)           6.134771050916     0.680547854922     0.900216528867    12.000000000000
      Gh(C)           3.656788958600     4.972953151384     0.900405191736    12.000000000000
      Gh(C)          -2.455126829744    -2.834215185244     0.908642289140    12.000000000000
      Gh(C)          -3.681819101071    -0.709325795652     0.909156176884    12.000000000000
      Gh(C)           4.893012695903    -2.825200197815     0.901274574571    12.000000000000
      Gh(C)          -0.000000995123     5.650447273849     0.901510117977    12.000000000000
      Gh(C)           6.134775190322    -0.680554946258     0.901481849382    12.000000000000
      Gh(C)           2.478131560845     5.653576659148     0.901693971386    12.000000000000
      Gh(C)           1.221422482727    -4.970127147116     0.899758434288    12.000000000000
      Gh(C)          -3.693162305975     3.542796862009     0.899662061412    12.000000000000
      Gh(C)          -1.221428442955    -4.970118395779     0.899645672456    12.000000000000
      Gh(C)          -4.914521729952     1.427175354812     0.899523699324    12.000000000000
      Gh(C)           3.656787097669    -4.972955318422     0.901855692270    12.000000000000
      Gh(C)          -2.478138452116     5.653574330345     0.901978496394    12.000000000000
      Gh(C)          -3.693141660574    -3.542790311162     0.902421261456    12.000000000000
      Gh(C)          -4.914512405063    -1.427181092211     0.902454194225    12.000000000000
      Gh(C)          -0.000005930936    -5.650438379197     0.901114613856    12.000000000000
      Gh(C)          -4.893020406111     2.825188506736     0.900653340816    12.000000000000
      Gh(C)           2.478126071288    -5.653573636072     0.900765091478    12.000000000000
      Gh(C)          -3.656798632268     4.972956089858     0.900581872110    12.000000000000
      Gh(C)          -4.892999400866    -2.825191859243     0.901120538873    12.000000000000
      Gh(C)          -2.478128420093    -5.653566262190     0.900489903830    12.000000000000
      Gh(C)          -6.134770425341     0.680548674073     0.900190977164    12.000000000000
      Gh(C)          -3.656788755199    -4.972944115154     0.901641404453    12.000000000000
      Gh(C)          -6.134764964923    -0.680554007665     0.901461373587    12.000000000000
      Gh(H)           5.835288573806     3.369275802771     0.905022748338     1.007825032230
      Gh(H)           7.073859250737     1.228217156716     0.900678172260     1.007825032230
      Gh(H)           4.600663342164     5.512380710270     0.900910392488     1.007825032230
      Gh(H)           5.835283465295    -3.369306148912     0.896820107257     1.007825032230
      Gh(H)          -0.000012073316     6.738530581953     0.897160872969     1.007825032230
      Gh(H)           7.073861249820    -1.228227034927     0.900973111288     1.007825032230
      Gh(H)           2.473313809789     6.740684199211     0.901227250455     1.007825032230
      Gh(H)           4.600668569371    -5.512376221359     0.901445695101     1.007825032230
      Gh(H)          -2.473318602548     6.740681627423     0.901528597080     1.007825032230
      Gh(H)          -0.000010190238    -6.738528268635     0.905644298840     1.007825032230
      Gh(H)          -5.835301836354     3.369270858113     0.905158770487     1.007825032230
      Gh(H)           2.473308001821    -6.740685466612     0.901335421902     1.007825032230
      Gh(H)          -4.600674763218     5.512377934420     0.901075720811     1.007825032230
      Gh(H)          -5.835279428845    -3.369289055963     0.896540801376     1.007825032230
      Gh(H)          -2.473300269450    -6.740679170323     0.900886105358     1.007825032230
      Gh(H)          -7.073857688778     1.228220380657     0.900594180779     1.007825032230
      Gh(H)          -4.600673708095    -5.512362761970     0.901273387079     1.007825032230
      Gh(H)          -7.073856856419    -1.228220724160     0.900878254822     1.007825032230

  Running in c1 symmetry.

  Rotational constants: A =      0.00136  B =      0.00136  C =      0.00110 [cm^-1]
  Rotational constants: A =     40.80965  B =     40.80580  C =     33.02251 [MHz]
  Nuclear repulsion =  178.879455044809077

  Charge       = -1
  Multiplicity = 1
  Electrons    = 42
  Nalpha       = 21
  Nbeta        = 21

  ==> Algorithm <==

  SCF Algorithm Type is DF.
  DIIS enabled.
  MOM disabled.
  Fractional occupation disabled.
  Guess Type is SAD.
  Energy threshold   = 1.00e-08
  Density threshold  = 1.00e-08
  Integral threshold = 1.00e-12

  ==> Primary Basis <==

  Basis Set: JUN-CC-PVDZ
    Blend: JUN-CC-PVDZ
    Number of shells: 526
    Number of basis functions: 1152
    Number of Cartesian functions: 1211
    Spherical Harmonics?: true
    Max angular momentum: 2

   => Loading Basis Set <=

    Name: (JUN-CC-PVDZ AUX)
    Role: JKFIT
    Keyword: DF_BASIS_SCF
    atoms 1     entry B          line    90 file /home/gridsan/tfroembgen/.conda/envs/psi4test/share/psi4/basis/jun-cc-pvdz-jkfit.gbs 
    atoms 2-5   entry F          line   314 file /home/gridsan/tfroembgen/.conda/envs/psi4test/share/psi4/basis/jun-cc-pvdz-jkfit.gbs 
    atoms 6-59  entry C          line   146 file /home/gridsan/tfroembgen/.conda/envs/psi4test/share/psi4/basis/jun-cc-pvdz-jkfit.gbs 
    atoms 60-77 entry H          line    70 file /home/gridsan/tfroembgen/.conda/envs/psi4test/share/psi4/basis/jun-cc-pvdz-jkfit.gbs 

  ==> Integral Setup <==

  ==> DiskDFJK: Density-Fitted J/K Matrices <==

    J tasked:                  Yes
    K tasked:                  Yes
    wK tasked:                  No
    OpenMP threads:             12
    Integrals threads:          12
    Memory [MiB]:            22888
    Algorithm:                Core
    Integral Cache:           LOAD
    Schwarz Cutoff:          1E-12
    Fitting Condition:       1E-10

   => Auxiliary Basis Set <=

  Basis Set: (JUN-CC-PVDZ AUX)
    Blend: JUN-CC-PVDZ-JKFIT
    Number of shells: 1755
    Number of basis functions: 5075
    Number of Cartesian functions: 5819
    Spherical Harmonics?: true
    Max angular momentum: 3

  Minimum eigenvalue in the overlap matrix is 8.3998295256E-10.
  Reciprocal condition number of the overlap matrix is 3.7565403096E-11.
    Using canonical orthogonalization.
  Overall, 14 of 1152 possible MOs eliminated.


  ==> Pre-Iterations <==

  SCF Guess: Superposition of Atomic Densities via on-the-fly atomic UHF (no occupation information).

   -------------------------
    Irrep   Nso     Nmo    
   -------------------------
     A       1152    1138 
   -------------------------
    Total    1152    1138
   -------------------------

  ==> Iterations <==

                           Total Energy        Delta E     RMS |[F,P]|

   @DF-RHF iter SAD:  -421.23044336435237   -4.21230e+02   0.00000e+00 
   @DF-RHF iter   1:  -422.64973309618449   -1.41929e+00   5.29788e-04 DIIS/ADIIS
   @DF-RHF iter   2:  -422.73249950261362   -8.27664e-02   3.22847e-04 DIIS/ADIIS
   @DF-RHF iter   3:  -422.77106968348517   -3.85702e-02   1.73772e-05 DIIS
   @DF-RHF iter   4:  -422.77143004308522   -3.60360e-04   2.75029e-06 DIIS
   @DF-RHF iter   5:  -422.77143867859195   -8.63551e-06   7.00373e-07 DIIS
   @DF-RHF iter   6:  -422.77143923398950   -5.55398e-07   1.44554e-07 DIIS
   @DF-RHF iter   7:  -422.77143925487343   -2.08839e-08   1.42501e-08 DIIS
   @DF-RHF iter   8:  -422.77143925508130   -2.07876e-10   4.58022e-09 DIIS
  Energy and wave function converged.


  ==> Post-Iterations <==

    Orbital Energies [Eh]
    ---------------------

    Doubly Occupied:                                                      

       1A    -26.067091     2A    -26.067028     3A    -26.066995  
       4A    -26.066912     5A     -7.539297     6A     -1.410960  
       7A     -1.351246     8A     -1.351198     9A     -1.351059  
      10A     -0.602240    11A     -0.528446    12A     -0.528421  
      13A     -0.528359    14A     -0.447302    15A     -0.447260  
      16A     -0.408463    17A     -0.408433    18A     -0.408367  
      19A     -0.384989    20A     -0.384952    21A     -0.384904  

    Virtual:                                                              

      22A      0.074312    23A      0.076885    24A      0.076887  
      25A      0.085463    26A      0.085469    27A      0.096312  
      28A      0.098509    29A      0.098617    30A      0.114191  
      31A      0.114198    32A      0.114800    33A      0.114802  
      34A      0.121316    35A      0.129740    36A      0.129743  
      37A      0.132388    38A      0.132397    39A      0.133427  
      40A      0.133430    41A      0.139957    42A      0.142695  
      43A      0.142704    44A      0.153090    45A      0.154200  
      46A      0.154346    47A      0.154994    48A      0.159956  
      49A      0.163251    50A      0.166604    51A      0.166612  
      52A      0.166998    53A      0.172461    54A      0.172471  
      55A      0.175874    56A      0.175878    57A      0.177190  
      58A      0.177198    59A      0.181444    60A      0.183772  
      61A      0.183785    62A      0.185783    63A      0.185791  
      64A      0.189453    65A      0.189469    66A      0.195333  
      67A      0.195353    68A      0.198065    69A      0.198479  
      70A      0.198489    71A      0.201671    72A      0.201676  
      73A      0.203834    74A      0.204943    75A      0.206548  
      76A      0.206568    77A      0.207964    78A      0.210492  
      79A      0.213301    80A      0.213305    81A      0.218881  
      82A      0.218885    83A      0.219783    84A      0.223086  
      85A      0.230475    86A      0.231811    87A      0.231814  
      88A      0.231864    89A      0.232470    90A      0.232753  
      91A      0.232776    92A      0.240934    93A      0.242277  
      94A      0.242288    95A      0.244724    96A      0.246338  
      97A      0.249813    98A      0.249986    99A      0.250323  
     100A      0.256226   101A      0.256227   102A      0.257335  
     103A      0.257348   104A      0.260443   105A      0.260462  
     106A      0.261391   107A      0.261399   108A      0.271343  
     109A      0.271355   110A      0.272277   111A      0.276560  
     112A      0.276563   113A      0.279916   114A      0.281206  
     115A      0.281211   116A      0.282408   117A      0.287256  
     118A      0.287276   119A      0.288302   120A      0.288346  
     121A      0.291538   122A      0.297540   123A      0.297968  
     124A      0.300966   125A      0.300976   126A      0.304623  
     127A      0.308017   128A      0.308020   129A      0.311039  
     130A      0.311050   131A      0.316726   132A      0.316733  
     133A      0.316929   134A      0.317138   135A      0.317146  
     136A      0.330246   137A      0.330249   138A      0.333161  
     139A      0.334265   140A      0.334273   141A      0.334391  
     142A      0.337563   143A      0.337564   144A      0.339220  
     145A      0.339269   146A      0.339428   147A      0.339950  
     148A      0.346489   149A      0.351105   150A      0.353095  
     151A      0.353119   152A      0.354700   153A      0.359183  
     154A      0.359220   155A      0.364752   156A      0.373390  
     157A      0.373424   158A      0.375873   159A      0.376693  
     160A      0.376709   161A      0.379657   162A      0.381290  
     163A      0.381348   164A      0.383089   165A      0.385376  
     166A      0.385379   167A      0.389562   168A      0.389660  
     169A      0.394762   170A      0.397451   171A      0.398239  
     172A      0.398284   173A      0.405157   174A      0.410164  
     175A      0.410190   176A      0.411870   177A      0.411941  
     178A      0.414595   179A      0.416235   180A      0.418924  
     181A      0.420961   182A      0.422055   183A      0.422438  
     184A      0.422543   185A      0.425583   186A      0.426199  
     187A      0.426360   188A      0.428672   189A      0.428773  
     190A      0.434054   191A      0.434835   192A      0.435499  
     193A      0.435583   194A      0.436619   195A      0.437314  
     196A      0.437352   197A      0.450366   198A      0.450422  
     199A      0.456589   200A      0.456645   201A      0.460706  
     202A      0.460829   203A      0.462072   204A      0.463963  
     205A      0.464027   206A      0.464592   207A      0.472198  
     208A      0.472226   209A      0.473007   210A      0.473394  
     211A      0.474896   212A      0.474904   213A      0.480282  
     214A      0.483561   215A      0.485931   216A      0.485991  
     217A      0.486445   218A      0.489542   219A      0.489570  
     220A      0.492622   221A      0.493916   222A      0.494041  
     223A      0.496006   224A      0.501149   225A      0.501257  
     226A      0.501895   227A      0.501931   228A      0.502653  
     229A      0.506067   230A      0.506102   231A      0.509992  
     232A      0.510297   233A      0.510644   234A      0.516235  
     235A      0.516499   236A      0.517536   237A      0.518388  
     238A      0.523861   239A      0.526631   240A      0.526753  
     241A      0.527809   242A      0.532862   243A      0.532968  
     244A      0.536461   245A      0.536497   246A      0.540333  
     247A      0.541982   248A      0.543073   249A      0.544485  
     250A      0.544507   251A      0.547430   252A      0.547470  
     253A      0.549759   254A      0.549934   255A      0.553898  
     256A      0.554064   257A      0.559133   258A      0.559906  
     259A      0.560221   260A      0.560310   261A      0.568028  
     262A      0.570190   263A      0.570224   264A      0.574456  
     265A      0.574477   266A      0.576670   267A      0.579925  
     268A      0.583604   269A      0.585276   270A      0.585446  
     271A      0.585647   272A      0.586215   273A      0.586267  
     274A      0.588458   275A      0.591340   276A      0.602421  
     277A      0.602432   278A      0.604731   279A      0.606162  
     280A      0.612340   281A      0.612365   282A      0.613584  
     283A      0.622555   284A      0.622573   285A      0.626599  
     286A      0.626704   287A      0.626715   288A      0.630556  
     289A      0.634518   290A      0.636616   291A      0.636635  
     292A      0.637966   293A      0.637988   294A      0.643470  
     295A      0.652061   296A      0.653160   297A      0.653176  
     298A      0.662931   299A      0.662970   300A      0.666253  
     301A      0.666322   302A      0.666814   303A      0.666842  
     304A      0.669405   305A      0.670321   306A      0.670322  
     307A      0.675951   308A      0.675979   309A      0.684385  
     310A      0.692536   311A      0.695047   312A      0.695082  
     313A      0.697579   314A      0.697798   315A      0.699960  
     316A      0.700797   317A      0.701050   318A      0.701052  
     319A      0.704675   320A      0.708656   321A      0.708708  
     322A      0.717939   323A      0.719096   324A      0.723019  
     325A      0.728709   326A      0.733291   327A      0.734075  
     328A      0.734097   329A      0.734936   330A      0.734962  
     331A      0.737384   332A      0.737390   333A      0.741987  
     334A      0.749904   335A      0.749916   336A      0.754204  
     337A      0.754272   338A      0.756395   339A      0.761282  
     340A      0.765304   341A      0.765546   342A      0.769463  
     343A      0.769505   344A      0.771127   345A      0.771158  
     346A      0.772273   347A      0.783149   348A      0.783642  
     349A      0.783666   350A      0.785922   351A      0.786248  
     352A      0.798104   353A      0.800960   354A      0.800981  
     355A      0.815120   356A      0.815142   357A      0.816916  
     358A      0.821449   359A      0.825394   360A      0.826316  
     361A      0.826340   362A      0.827896   363A      0.829323  
     364A      0.829348   365A      0.834231   366A      0.834406  
     367A      0.834849   368A      0.840026   369A      0.840132  
     370A      0.845818   371A      0.846464   372A      0.850351  
     373A      0.850362   374A      0.852386   375A      0.855320  
     376A      0.855400   377A      0.859628   378A      0.859644  
     379A      0.861527   380A      0.864055   381A      0.871236  
     382A      0.893508   383A      0.893514   384A      0.904337  
     385A      0.904350   386A      0.925379   387A      0.925849  
     388A      0.925997   389A      0.927406   390A      0.927505  
     391A      0.931104   392A      0.937717   393A      0.937730  
     394A      0.939068   395A      0.945687   396A      0.945748  
     397A      0.953896   398A      0.954338   399A      0.954379  
     400A      0.959990   401A      0.984540   402A      0.988274  
     403A      0.988302   404A      1.005104   405A      1.014701  
     406A      1.014735   407A      1.024788   408A      1.024826  
     409A      1.032872   410A      1.041198   411A      1.049657  
     412A      1.049672   413A      1.063134   414A      1.067624  
     415A      1.089787   416A      1.089828   417A      1.108993  
     418A      1.109044   419A      1.116311   420A      1.119198  
     421A      1.119214   422A      1.127709   423A      1.127739  
     424A      1.153225   425A      1.156340   426A      1.156356  
     427A      1.163114   428A      1.214981   429A      1.215034  
     430A      1.219681   431A      1.219826   432A      1.226398  
     433A      1.233759   434A      1.237377   435A      1.237386  
     436A      1.255156   437A      1.255204   438A      1.270640  
     439A      1.277654   440A      1.277658   441A      1.283869  
     442A      1.290618   443A      1.344425   444A      1.344527  
     445A      1.348433   446A      1.355514   447A      1.355560  
     448A      1.359957   449A      1.364582   450A      1.364630  
     451A      1.378728   452A      1.378821   453A      1.380401  
     454A      1.387138   455A      1.389735   456A      1.419641  
     457A      1.430062   458A      1.430120   459A      1.477736  
     460A      1.504192   461A      1.504748   462A      1.522396  
     463A      1.522423   464A      1.527060   465A      1.528786  
     466A      1.528914   467A      1.532137   468A      1.542497  
     469A      1.543373   470A      1.606560   471A      1.615307  
     472A      1.615370   473A      1.618018   474A      1.619317  
     475A      1.631009   476A      1.631832   477A      1.631907  
     478A      1.637606   479A      1.684830   480A      1.697043  
     481A      1.699428   482A      1.709445   483A      1.712422  
     484A      1.720672   485A      1.725934   486A      1.726089  
     487A      1.744673   488A      1.745451   489A      1.746844  
     490A      1.749141   491A      1.761151   492A      1.801418  
     493A      1.802587   494A      1.802972   495A      1.803777  
     496A      1.804959   497A      1.811967   498A      1.815477  
     499A      1.815835   500A      1.817193   501A      1.824114  
     502A      1.824222   503A      1.839096   504A      1.848272  
     505A      1.849218   506A      1.853509   507A      1.854280  
     508A      1.859523   509A      1.872621   510A      1.881974  
     511A      1.884081   512A      1.884363   513A      1.887360  
     514A      1.887602   515A      1.887899   516A      1.889444  
     517A      1.892654   518A      1.892976   519A      1.897466  
     520A      1.897542   521A      1.899496   522A      1.899613  
     523A      1.910673   524A      1.917787   525A      1.918427  
     526A      1.926856   527A      1.926933   528A      1.933304  
     529A      1.938738   530A      1.941849   531A      1.941924  
     532A      1.942012   533A      1.946418   534A      1.947452  
     535A      1.949346   536A      1.949450   537A      1.964905  
     538A      1.966224   539A      1.966503   540A      1.967742  
     541A      1.967821   542A      1.971313   543A      1.978572  
     544A      1.978858   545A      1.986122   546A      1.986941  
     547A      1.991262   548A      1.991521   549A      1.991614  
     550A      1.993256   551A      1.995689   552A      1.998630  
     553A      1.998743   554A      2.005927   555A      2.007557  
     556A      2.007723   557A      2.025790   558A      2.028048  
     559A      2.028625   560A      2.028867   561A      2.030008  
     562A      2.030068   563A      2.038713   564A      2.038750  
     565A      2.046172   566A      2.046223   567A      2.051563  
     568A      2.054486   569A      2.056782   570A      2.056803  
     571A      2.060914   572A      2.061084   573A      2.061146  
     574A      2.067312   575A      2.078803   576A      2.078874  
     577A      2.088761   578A      2.088967   579A      2.117381  
     580A      2.125834   581A      2.125880   582A      2.130487  
     583A      2.136915   584A      2.137064   585A      2.138830  
     586A      2.138993   587A      2.141137   588A      2.141167  
     589A      2.142472   590A      2.153377   591A      2.153592  
     592A      2.157713   593A      2.158581   594A      2.174255  
     595A      2.174345   596A      2.178774   597A      2.179028  
     598A      2.180272   599A      2.187365   600A      2.187401  
     601A      2.197581   602A      2.197728   603A      2.198096  
     604A      2.200965   605A      2.200972   606A      2.205184  
     607A      2.205227   608A      2.207414   609A      2.208074  
     610A      2.208411   611A      2.208624   612A      2.208650  
     613A      2.213259   614A      2.213302   615A      2.219826  
     616A      2.219833   617A      2.220284   618A      2.223625  
     619A      2.223638   620A      2.224603   621A      2.228421  
     622A      2.228631   623A      2.228818   624A      2.229582  
     625A      2.231473   626A      2.233779   627A      2.233882  
     628A      2.234914   629A      2.235060   630A      2.237764  
     631A      2.237875   632A      2.241328   633A      2.241357  
     634A      2.243717   635A      2.246069   636A      2.246209  
     637A      2.250338   638A      2.251013   639A      2.251169  
     640A      2.251323   641A      2.253195   642A      2.274614  
     643A      2.274641   644A      2.296626   645A      2.298200  
     646A      2.301798   647A      2.301822   648A      2.306196  
     649A      2.306394   650A      2.308075   651A      2.311068  
     652A      2.311074   653A      2.325591   654A      2.326381  
     655A      2.326490   656A      2.333305   657A      2.333393  
     658A      2.334345   659A      2.345240   660A      2.345290  
     661A      2.351634   662A      2.351665   663A      2.357096  
     664A      2.368868   665A      2.368957   666A      2.376582  
     667A      2.385153   668A      2.385160   669A      2.387826  
     670A      2.387894   671A      2.393249   672A      2.400022  
     673A      2.403044   674A      2.403404   675A      2.403451  
     676A      2.417854   677A      2.419022   678A      2.422265  
     679A      2.422366   680A      2.426753   681A      2.426793  
     682A      2.428760   683A      2.428947   684A      2.429655  
     685A      2.431743   686A      2.438205   687A      2.439217  
     688A      2.439305   689A      2.440318   690A      2.440367  
     691A      2.447253   692A      2.454081   693A      2.454097  
     694A      2.466570   695A      2.466844   696A      2.469610  
     697A      2.469668   698A      2.472209   699A      2.476606  
     700A      2.476755   701A      2.477221   702A      2.482164  
     703A      2.482180   704A      2.491499   705A      2.494369  
     706A      2.495539   707A      2.495601   708A      2.507486  
     709A      2.507495   710A      2.514129   711A      2.514179  
     712A      2.523673   713A      2.525879   714A      2.529573  
     715A      2.529617   716A      2.535302   717A      2.544687  
     718A      2.545817   719A      2.545992   720A      2.560919  
     721A      2.560957   722A      2.565318   723A      2.565357  
     724A      2.574102   725A      2.583982   726A      2.586653  
     727A      2.594762   728A      2.594820   729A      2.599610  
     730A      2.602112   731A      2.606729   732A      2.606772  
     733A      2.607149   734A      2.607252   735A      2.613773  
     736A      2.619868   737A      2.619942   738A      2.624546  
     739A      2.632857   740A      2.638951   741A      2.639468  
     742A      2.639796   743A      2.664541   744A      2.664606  
     745A      2.680775   746A      2.684408   747A      2.684467  
     748A      2.691094   749A      2.691126   750A      2.692423  
     751A      2.692492   752A      2.693474   753A      2.707115  
     754A      2.707468   755A      2.708519   756A      2.712882  
     757A      2.716760   758A      2.717130   759A      2.717678  
     760A      2.717728   761A      2.735957   762A      2.736044  
     763A      2.752347   764A      2.752365   765A      2.760731  
     766A      2.761013   767A      2.767851   768A      2.768404  
     769A      2.771838   770A      2.772999   771A      2.773196  
     772A      2.779115   773A      2.779137   774A      2.784246  
     775A      2.784327   776A      2.802095   777A      2.802222  
     778A      2.804031   779A      2.804108   780A      2.806107  
     781A      2.810412   782A      2.817053   783A      2.817209  
     784A      2.818904   785A      2.819441   786A      2.824756  
[...]
     706A      1.359927   707A      1.359955   708A      1.365438  
     709A      1.365466   710A      1.380070   711A      1.391393  
     712A      1.398986   713A      1.404083   714A      1.404103  
     715A      1.408069   716A      1.408081   717A      1.412082  
     718A      1.412114   719A      1.420044   720A      1.421460  
     721A      1.425800   722A      1.425874   723A      1.428869  
     724A      1.429566   725A      1.430774   726A      1.436284  
     727A      1.436324   728A      1.439523   729A      1.439598  
     730A      1.439768   731A      1.447795   732A      1.447806  
     733A      1.450501   734A      1.463305   735A      1.463336  
     736A      1.472761   737A      1.472946   738A      1.516479  
     739A      1.516538   740A      1.521224   741A      1.521249  
     742A      1.528827   743A      1.552341   744A      1.572403  
     745A      1.587138   746A      1.599550   747A      1.600125  
     748A      1.600820   749A      1.608558   750A      1.608599  
     751A      1.609338   752A      1.612880   753A      1.613058  
     754A      1.616785   755A      1.621653   756A      1.621801  
     757A      1.629989   758A      1.630331   759A      1.633060  
     760A      1.633090   761A      1.640327   762A      1.640340  
     763A      1.643513   764A      1.643552   765A      1.643624  
     766A      1.643726   767A      1.648505   768A      1.654868  
     769A      1.660986   770A      1.661010   771A      1.667391  
     772A      1.676254   773A      1.676336   774A      1.676728  
     775A      1.676751   776A      1.677009   777A      1.684129  
     778A      1.686598   779A      1.686653   780A      1.696034  
     781A      1.697594   782A      1.699332   783A      1.699380  
     784A      1.700926   785A      1.704744   786A      1.704814  
     787A      1.715710   788A      1.715730   789A      1.738512  
     790A      1.738707   791A      1.741670   792A      1.751382  
     793A      1.760256   794A      1.760276   795A      1.761061  
     796A      1.761732   797A      1.776727   798A      1.776749  
     799A      1.791462   800A      1.791484   801A      1.816534  
     802A      1.816541   803A      1.816696   804A      1.818053  
     805A      1.824642   806A      1.824743   807A      1.825875  
     808A      1.830718   809A      1.830804   810A      1.837267  
     811A      1.842395   812A      1.842669   813A      1.860742  
     814A      1.860788   815A      1.861208   816A      1.861246  
     817A      1.864018   818A      1.868914   819A      1.872193  
     820A      1.880144   821A      1.880200   822A      1.896145  
     823A      1.896240   824A      1.899384   825A      1.902933  
     826A      1.903061   827A      1.908556   828A      1.908689  
     829A      1.913809   830A      1.914067   831A      1.917637  
     832A      1.917788   833A      1.919219   834A      1.921954  
     835A      1.922040   836A      1.940428   837A      1.940882  
     838A      1.941704   839A      1.941874   840A      1.946370  
     841A      1.946401   842A      1.954163   843A      1.954200  
     844A      1.954337   845A      1.954368   846A      1.957981  
     847A      1.970314   848A      1.982770   849A      1.982856  
     850A      1.989626   851A      1.997089   852A      1.998499  
     853A      1.998526   854A      2.004224   855A      2.007994  
     856A      2.012203   857A      2.012369   858A      2.027810  
     859A      2.027981   860A      2.029971   861A      2.030073  
     862A      2.030448   863A      2.031239   864A      2.031349  
     865A      2.047807   866A      2.051757   867A      2.052111  
     868A      2.057321   869A      2.058161   870A      2.059606  
     871A      2.059655   872A      2.068184   873A      2.070055  
     874A      2.071314   875A      2.071684   876A      2.075158  
     877A      2.075224   878A      2.082185   879A      2.084520  
     880A      2.084568   881A      2.092654   882A      2.094696  
     883A      2.095667   884A      2.096844   885A      2.100442  
     886A      2.100512   887A      2.106692   888A      2.108210  
     889A      2.108274   890A      2.109059   891A      2.109065  
     892A      2.111128   893A      2.115009   894A      2.119161  
     895A      2.119209   896A      2.120528   897A      2.120623  
     898A      2.126105   899A      2.126117   900A      2.133961  
     901A      2.134552   902A      2.135729   903A      2.135811  
     904A      2.143155   905A      2.143175   906A      2.155476  
     907A      2.159482   908A      2.159507   909A      2.162787  
     910A      2.162813   911A      2.171209   912A      2.178175  
     913A      2.178249   914A      2.190338   915A      2.190720  
     916A      2.192483   917A      2.193793   918A      2.195758  
     919A      2.195871   920A      2.198220   921A      2.219651  
     922A      2.220241   923A      2.220273   924A      2.227897  
     925A      2.228128   926A      2.228579   927A      2.229009  
     928A      2.243211   929A      2.243556   930A      2.243740  
     931A      2.244131   932A      2.247041   933A      2.260045  
     934A      2.260158   935A      2.270108   936A      2.270119  
     937A      2.272005   938A      2.272051   939A      2.281039  
     940A      2.300169   941A      2.306658   942A      2.310286  
     943A      2.312152   944A      2.320390   945A      2.322252  
     946A      2.330913   947A      2.330965   948A      2.331070  
     949A      2.333829   950A      2.350642   951A      2.351324  
     952A      2.352351   953A      2.352436   954A      2.366232  
     955A      2.366344   956A      2.374562   957A      2.379654  
     958A      2.415822   959A      2.423988   960A      2.424357  
     961A      2.424382   962A      2.436438   963A      2.441057  
     964A      2.441100   965A      2.469864   966A      2.472593  
     967A      2.472753   968A      2.485268   969A      2.485294  
     970A      2.502284   971A      2.519167   972A      2.529732  
     973A      2.529875   974A      2.543296   975A      2.545383  
     976A      2.545417   977A      2.554117   978A      2.554186  
     979A      2.554780   980A      2.559813   981A      2.559819  
     982A      2.572950   983A      2.572985   984A      2.574638  
     985A      2.575189   986A      2.586205   987A      2.586323  
     988A      2.587221   989A      2.589689   990A      2.591379  
     991A      2.605899   992A      2.623341   993A      2.623423  
     994A      2.625426   995A      2.631255   996A      2.631796  
     997A      2.641122   998A      2.641192   999A      2.650732  
    1000A      2.651086  1001A      2.656830  1002A      2.681802  
    1003A      2.682973  1004A      2.683948  1005A      2.686688  
    1006A      2.701852  1007A      2.702177  1008A      2.712987  
    1009A      2.712994  1010A      2.718618  1011A      2.718639  
    1012A      2.722373  1013A      2.722603  1014A      2.737982  
    1015A      2.752089  1016A      2.752488  1017A      2.776774  
    1018A      2.794263  1019A      2.794414  1020A      2.807940  
    1021A      2.808568  1022A      2.810198  1023A      2.815693  
    1024A      2.827073  1025A      2.827314  1026A      2.851705  
    1027A      2.851846  1028A      2.856001  1029A      2.858289  
    1030A      2.859217  1031A      2.859308  1032A      2.867301  
    1033A      2.916620  1034A      2.916641  1035A      2.923899  
    1036A      2.933495  1037A      2.933552  1038A      2.949524  
    1039A      2.949550  1040A      2.962656  1041A      3.006129  
    1042A      3.006366  1043A      3.011847  1044A      3.029286  
    1045A      3.064024  1046A      3.064066  1047A      3.070339  
    1048A      3.070429  1049A      3.109317  1050A      3.110131  
    1051A      3.127369  1052A      3.129421  1053A      3.129710  
    1054A      3.137435  1055A      3.146262  1056A      3.146305  
    1057A      3.146389  1058A      3.148823  1059A      3.148830  
    1060A      3.157491  1061A      3.157870  1062A      3.165449  
    1063A      3.165927  1064A      3.191567  1065A      3.211127  
    1066A      3.218346  1067A      3.237317  1068A      3.272471  
    1069A      3.276855  1070A      3.277001  1071A      3.281701  
    1072A      3.281883  1073A      3.416124  1074A      3.416598  
    1075A      3.442840  1076A      3.481360  1077A      3.484024  
    1078A      3.548911  1079A      3.576972  1080A      3.578945  
    1081A      3.593791  1082A      3.626434  1083A      3.628428  
    1084A      3.662914  1085A      3.667886  1086A      3.769204  
    1087A      3.782613  1088A      3.783570  1089A      3.870651  
    1090A      3.870662  1091A      3.913020  1092A      3.913134  
    1093A      3.976886  1094A      4.010845  1095A      4.032581  
    1096A      4.044475  1097A      4.080912  1098A      4.179625  
    1099A      4.179655  1100A      4.192749  1101A      4.318380  
    1102A      5.745682  1103A      5.746541  1104A      5.746542  
    1105A      5.750254  1106A      5.750255  1107A      5.755526  
    1108A      5.756933  1109A      5.756935  1110A      5.775906  
    1111A      5.775946  1112A      5.777675  1113A      6.016758  
    1114A      6.017634  1115A      6.017977  1116A      6.189947  
    1117A      6.324030  1118A      6.324360  1119A      6.370115  
    1120A      6.370462  1121A      6.372580  1122A      7.140580  
    1123A      7.140699  1124A      7.220598  1125A      7.220706  
    1126A      7.222086  1127A      7.236283  1128A      7.244634  
    1129A      7.244690  1130A      7.449375  1131A      7.449518  
    1132A      7.458014  1133A      7.581766  1134A     12.590428  
    1135A     42.904768  1136A     42.904822  1137A     42.909087  
    1138A     42.934234  

    Final Occupation by Irrep:
              A 
    DOCC [   171 ]
    NA   [   171 ]
    NB   [   171 ]

  @DF-RHF Final Energy: -2055.89162437601999

   => Energetics <=

    Nuclear Repulsion Energy =           6452.5568002797772351
    One-Electron Energy =              -15636.4248257867166103
    Two-Electron Energy =                7127.9764011309189300
    Total Energy =                      -2055.8916243760204452

Computation Completed


Properties will be evaluated at   0.000000,   0.000000,   0.000000 [a0]

Properties computed using the SCF density matrix


 Multipole Moments:

 ------------------------------------------------------------------------------------
     Multipole            Electronic (a.u.)      Nuclear  (a.u.)        Total (a.u.)
 ------------------------------------------------------------------------------------

 L = 1.  Multiply by 2.5417464519 to convert [e a0] to [Debye]
 Dipole X            :          0.0000534            0.0000419            0.0000953
 Dipole Y            :          0.0000282           -0.0000426           -0.0000144
 Dipole Z            :       -582.3378168          582.3384916            0.0006749
 Magnitude           :                                                    0.0006817

 ------------------------------------------------------------------------------------

*** tstop() called on d-16-12-3 at Mon Jan 22 09:30:57 2024
Module time:
	user time   =    2378.32 seconds =      39.64 minutes
	system time =      56.17 seconds =       0.94 minutes
	total time  =        256 seconds =       4.27 minutes
Total time:
	user time   =    6869.19 seconds =     114.49 minutes
	system time =     194.03 seconds =       3.23 minutes
	total time  =        751 seconds =      12.52 minutes
  Constructing Basis Sets for SAPT...

   => Loading Basis Set <=

    Name: (JUN-CC-PVDZ AUX)
    Role: RIFIT
    Keyword: DF_BASIS_SAPT
    atoms 1     entry B          line    56 file /home/gridsan/tfroembgen/.conda/envs/psi4test/share/psi4/basis/jun-cc-pvdz-ri.gbs 
    atoms 2-5   entry F          line   232 file /home/gridsan/tfroembgen/.conda/envs/psi4test/share/psi4/basis/jun-cc-pvdz-ri.gbs 
    atoms 6-59  entry C          line   100 file /home/gridsan/tfroembgen/.conda/envs/psi4test/share/psi4/basis/jun-cc-pvdz-ri.gbs 
    atoms 60-77 entry H          line    30 file /home/gridsan/tfroembgen/.conda/envs/psi4test/share/psi4/basis/jun-cc-pvdz-ri.gbs 

   => Loading Basis Set <=

    Name: (JUN-CC-PVDZ AUX)
    Role: JKFIT
    Keyword: DF_BASIS_ELST
    atoms 1     entry B          line    90 file /home/gridsan/tfroembgen/.conda/envs/psi4test/share/psi4/basis/jun-cc-pvdz-jkfit.gbs 
    atoms 2-5   entry F          line   314 file /home/gridsan/tfroembgen/.conda/envs/psi4test/share/psi4/basis/jun-cc-pvdz-jkfit.gbs 
    atoms 6-59  entry C          line   146 file /home/gridsan/tfroembgen/.conda/envs/psi4test/share/psi4/basis/jun-cc-pvdz-jkfit.gbs 
    atoms 60-77 entry H          line    70 file /home/gridsan/tfroembgen/.conda/envs/psi4test/share/psi4/basis/jun-cc-pvdz-jkfit.gbs 


  //>>>>>>>>>>>>>>>>>>>>>>>>>>>>>>>>>>>//
  //               SSAPT0              //
  //<<<<<<<<<<<<<<<<<<<<<<<<<<<<<<<<<<<//


*** tstart() called on d-16-12-3
*** at Mon Jan 22 09:30:58 2024

        SAPT0  
    Ed Hohenstein
     6 June 2009

      Orbital Information
  --------------------------
    NSO        =      1152
    NMO        =      1138
    NRI        =      4087
    NRI (Elst) =      5075
    NOCC A     =        21
    NOCC B     =       171
    FOCC A     =         5
    FOCC B     =        54
    NVIR A     =      1117
    NVIR B     =       967

    Elst10,r            =     0.006347192463 [Eh]
    Exch10              =    -0.000000135693 [Eh]
    Exch10 (S^2)        =    -0.000000135693 [Eh]

    Iter     Energy [mEh]          dE [mEh]         Residual      Time [s]
       1      -0.00380082       0.003800821       0.472733481           160
       2      -0.00449486       0.000694035       0.248040223           688
       3      -0.00480781       0.000312957       0.042862106           752
       4      -0.00480745      -0.000000368       0.009700885          1032
       5      -0.00480061      -0.000006836       0.001389877          1422
       6      -0.00480167       0.000001061       0.000270124          1673
       7      -0.00480166      -0.000000014       0.000082533          1721
       8      -0.00480163      -0.000000024       0.000021041          1777
       9      -0.00480163      -0.000000004       0.000003519          1790
      10      -0.00480163       0.000000001       0.000000875          1805

    CHF Iterations converged


    Iter     Energy [mEh]          dE [mEh]         Residual      Time [s]
       1      -2.41843739       2.418437387      25.727970209           204
       2      -1.64494492      -0.773492469       3.192231598           443
       3      -1.64739545       0.002450535       1.161668163           474
       4      -1.68675972       0.039364269       0.259561829           493
       5      -1.68845803       0.001698311       0.073399959           511
       6      -1.68766455      -0.000793486       0.035093358           528
       7      -1.68740194      -0.000262607       0.017493037           547
       8      -1.68756924       0.000167300       0.012278194           567
       9      -1.68761675       0.000047515       0.007529055           583
      10      -1.68756593      -0.000050825       0.003372809           600
      11      -1.68756241      -0.000003518       0.001253626           618
      12      -1.68756778       0.000005368       0.000521862           638
      13      -1.68756896       0.000001180       0.000189858           657
      14      -1.68756861      -0.000000352       0.000074590           676
      15      -1.68756821      -0.000000396       0.000022343           706
      16      -1.68756829       0.000000080       0.000011529           728
      17      -1.68756832       0.000000026       0.000005347           748
      18      -1.68756831      -0.000000006       0.000002042           766
      19      -1.68756830      -0.000000007       0.000000878           784

    CHF Iterations converged

    Ind20,r (A<-B)      =    -0.000004801630 [Eh]
    Ind20,r (B<-A)      =    -0.001687568303 [Eh]
    Ind20,r             =    -0.001692369933 [Eh]
    Exch-Ind20,r (A<-B) =     0.000000034164 [Eh]
    Exch-Ind20,r (B<-A) =     0.000000076762 [Eh]
    Exch-Ind20,r        =     0.000000110926 [Eh]
    Disp20              =    -0.000243663402 [Eh]
    Disp20 (SS)         =    -0.000121831701 [Eh]
    Disp20 (OS)         =    -0.000121831701 [Eh]
    Exch-Disp20         =     0.000000048080 [Eh]
    Exch-Disp20 (SS)    =     0.000000038364 [Eh]
    Exch-Disp20 (OS)    =     0.000000009715 [Eh]

    SAPT Results 
  --------------------------------------------------------------------------------------------------------
    Electrostatics                  6.34719246 [mEh]       3.98292340 [kcal/mol]      16.66455152 [kJ/mol]
      Elst10,r                      6.34719246 [mEh]       3.98292340 [kcal/mol]      16.66455152 [kJ/mol]

    Exchange                       -0.00013569 [mEh]      -0.00008515 [kcal/mol]      -0.00035626 [kJ/mol]
      Exch10                       -0.00013569 [mEh]      -0.00008515 [kcal/mol]      -0.00035626 [kJ/mol]
      Exch10(S^2)                  -0.00013569 [mEh]      -0.00008515 [kcal/mol]      -0.00035626 [kJ/mol]

    Induction                      -1.68267037 [mEh]      -1.05589160 [kcal/mol]      -4.41785045 [kJ/mol]
      Ind20,r                      -1.69236993 [mEh]      -1.06197817 [kcal/mol]      -4.44331665 [kJ/mol]
      Exch-Ind20,r                  0.00011093 [mEh]       0.00006961 [kcal/mol]       0.00029124 [kJ/mol]
      delta HF,r (2)                0.00958864 [mEh]       0.00601696 [kcal/mol]       0.02517496 [kJ/mol]

    Dispersion                     -0.24361532 [mEh]      -0.15287092 [kcal/mol]      -0.63961194 [kJ/mol]
      Disp20                       -0.24366340 [mEh]      -0.15290109 [kcal/mol]      -0.63973817 [kJ/mol]
      Exch-Disp20                   0.00004808 [mEh]       0.00003017 [kcal/mol]       0.00012623 [kJ/mol]
      Disp20 (SS)                  -0.12183170 [mEh]      -0.07645055 [kcal/mol]      -0.31986909 [kJ/mol]
      Disp20 (OS)                  -0.12183170 [mEh]      -0.07645055 [kcal/mol]      -0.31986909 [kJ/mol]
      Exch-Disp20 (SS)              0.00003836 [mEh]       0.00002407 [kcal/mol]       0.00010073 [kJ/mol]
      Exch-Disp20 (OS)              0.00000972 [mEh]       0.00000610 [kcal/mol]       0.00002551 [kJ/mol]

  Total HF                          4.66438640 [mEh]       2.92694665 [kcal/mol]      12.24634480 [kJ/mol]
  Total SAPT0                       4.42077108 [mEh]       2.77407573 [kcal/mol]      11.60673286 [kJ/mol]

  Special recipe for scaled SAPT0 (see Manual):
    Electrostatics sSAPT0           6.34719246 [mEh]       3.98292340 [kcal/mol]      16.66455152 [kJ/mol]
    Exchange sSAPT0                -0.00013569 [mEh]      -0.00008515 [kcal/mol]      -0.00035626 [kJ/mol]
    Induction sSAPT0               -1.68267037 [mEh]      -1.05589160 [kcal/mol]      -4.41785045 [kJ/mol]
    Dispersion sSAPT0              -0.24361532 [mEh]      -0.15287092 [kcal/mol]      -0.63961194 [kJ/mol]
  Total sSAPT0                      4.42077108 [mEh]       2.77407573 [kcal/mol]      11.60673286 [kJ/mol]
  --------------------------------------------------------------------------------------------------------

*** tstop() called on d-16-12-3 at Mon Jan 22 10:40:39 2024
Module time:
	user time   =    7034.39 seconds =     117.24 minutes
	system time =     727.83 seconds =      12.13 minutes
	total time  =       4181 seconds =      69.68 minutes
Total time:
	user time   =   13904.74 seconds =     231.75 minutes
	system time =     921.89 seconds =      15.36 minutes
	total time  =       4933 seconds =      82.22 minutes

    Psi4 stopped on: Monday, 22 January 2024 10:40AM
    Psi4 wall time for execution: 1:22:14.54

*** Psi4 exiting successfully. Buy a developer a beer!
