
    -----------------------------------------------------------------------
          Psi4: An Open-Source Ab Initio Electronic Structure Package
                               Psi4 1.9 release

                         Git: Rev {} zzzzzzz 


    D. G. A. Smith, L. A. Burns, A. C. Simmonett, R. M. Parrish,
    M. C. Schieber, R. Galvelis, P. Kraus, H. Kruse, R. Di Remigio,
    A. Alenaizan, A. M. James, S. Lehtola, J. P. Misiewicz, M. Scheurer,
    R. A. Shaw, J. B. Schriber, Y. Xie, Z. L. Glick, D. A. Sirianni,
    J. S. O'Brien, J. M. Waldrop, A. Kumar, E. G. Hohenstein,
    B. P. Pritchard, B. R. Brooks, H. F. Schaefer III, A. Yu. Sokolov,
    K. Patkowski, A. E. DePrince III, U. Bozkaya, R. A. King,
    F. A. Evangelista, J. M. Turney, T. D. Crawford, C. D. Sherrill,
    J. Chem. Phys. 152(18) 184108 (2020). https://doi.org/10.1063/5.0006002

                            Additional Code Authors
    E. T. Seidl, C. L. Janssen, E. F. Valeev, M. L. Leininger,
    J. F. Gonthier, R. M. Richard, H. R. McAlexander, M. Saitow, X. Wang,
    P. Verma, M. H. Lechner, A. Jiang, S. Behnle, A. G. Heide,
    M. F. Herbst, and D. L. Poole

             Previous Authors, Complete List of Code Contributors,
                       and Citations for Specific Modules
    https://github.com/psi4/psi4/blob/master/codemeta.json
    https://github.com/psi4/psi4/graphs/contributors
    http://psicode.org/psi4manual/master/introduction.html#citing-psifour

    -----------------------------------------------------------------------


    Psi4 started on: Saturday, 27 January 2024 10:41AM

    Process ID: 2271035
    Host:       n2cn0902
    PSIDATADIR: /opt/software/pc2/EB-SW/software/PSI4/1.9-foss-2022a/share/psi4
    Memory:     500.0 MiB
    Threads:    16
    
  ==> Input File <==

--------------------------------------------------------------------------
memory 64 GB # how much memory is available ! Depends on the nodes/cores !

molecule dimer {
# monomer A
-1 1    # Charge and multiplicity
B -1.977592e-04  2.742729e-04 -7.199966
F  1.123153e-16  1.430594e-17 -5.787181
F  1.147860e+00  6.757812e-01 -7.671107
F  1.191806e-02 -1.332011e+00 -7.670905
F -1.159666e+00  6.560735e-01 -7.670826
--
# monomer B
0 1     # Charge and multiplicity
C   -3.66844126402057      7.80375217008252      0.00190004133558
C   -4.84759871934653      7.13124183134024     -0.00046653359696
C   -4.89495929917518      5.69633040353158     -0.00103944469517
C   -3.65374067877320      4.98073034095895      0.00662099703436
C   -2.40942512149445      7.11398103667468      0.00209438359570
C   -2.42547734410473      5.68112195090346     -0.00491050527438
C   -1.19474401643570      7.78614419430947      0.00356656413763
C   0.03795902893699      7.09942164575698      0.00139585983271
C   0.03033258741920      5.66948955970466     -0.00408752508301
C   -1.20098450790502      4.96927034791531      0.00488220885047
C   1.27795782581485      7.77285944319479      0.00277170839332
C   2.48535808472416      7.08769688523756      0.00049722048857
C   2.48612868491717      5.65477081024076     -0.00644052849921
C   1.25408291964399      4.95607811366431      0.00518741308898
C   3.75171459140595      7.76391215098033      0.00062407186893
C   4.92356605618520      7.07878077698995     -0.00143240883900
C   4.95560727132542      5.64344746336949     -0.00159282164606
C   3.70680153420475      4.94121020833308      0.00349873852374
H   -3.65852113775815      8.89082741913536      0.00358502958574
H   -1.18921332975660      8.87412108735996      0.00753844057883
H   1.28429423888630      8.86083343548850      0.00693053253426
H   3.75354208679975      8.85103527897216      0.00214659618464
H   5.86995870320703      7.61379483465560     -0.00235777588134
H   -5.78823170750226      7.67630221293400     -0.00202638095293
C   -6.09197395869619      4.99326001364347     -0.00291168518608
C   -6.12866148031747      3.58258016879823     -0.00171050815740
C   -3.66457974004527      3.56418217974434     -0.00463560277484
C   -4.89429820469869      2.86108077590057      0.00453338221034
C   -2.43733499489796      2.84761165708481      0.00719617576166
C   -1.20922785759670      3.54788693497833     -0.00648285103018
C   1.24714157216223      3.53468075142962     -0.00729145743546
C   0.01517603956900      2.83311183930540      0.00439272578912
C   2.46764517244071      2.82128997725533      0.00449278391269
C   3.70254947457969      3.52466015442405     -0.00899517692985
C   6.14498038638375      4.92757236613191     -0.00282626685777
C   6.16658835886151      3.51658447594213     -0.00065971342101
C   4.92460995845939      2.80840792535402      0.00587903281610
H   7.08990550964105      5.46688776622306     -0.00658814770723
H   -7.03104175110130      5.54268795285765     -0.00714490013730
C   -7.33969804112295      2.85841153457957     -0.00333767559888
C   -7.36488195805880      1.47032337158330     -0.00157213747140
C   -4.90350460894690      1.44442681216000     -0.00628840166334
C   -6.13225715261081      0.73993935705394      0.00600164231964
C   -3.67687480051673      0.72669714267312      0.00433931473643
C   -2.44565658606518      1.42964113326212     -0.00597039546461
C   -1.22360068130162      0.71532450163492      0.00545886906656
C   0.00763786931376      1.41738314923765      0.00392452278437
C   1.23121980774686      0.70211669058719     -0.01490206287210
C   2.46082110053113      1.40329203612573      0.00460244601878
C   3.68443025419614      0.68719842821222      0.00377365974158
C   4.91870890153864      1.39173456118907     -0.00862816189375
C   7.36980207796101      2.77948220318441     -0.00242013321349
C   7.38016266612146      1.39121750785509     -0.00087345036788
C   6.13979953912259      0.67411862320065      0.00545489144369
H   -8.27919079934664      3.40711804112415     -0.00763522772059
H   8.31511347147953      3.31811809662368     -0.00663070901292
C   -8.59175593758115      0.72483255304480     -0.00123170985383
C   -8.59902460370342     -0.63263980622873      0.00089141472904
C   -6.13981313911873     -0.67413663715361     -0.00609792660607
C   -7.38018411213749     -1.39126618958160      0.00131813493501
C   -4.91868448025621     -1.39175501803000      0.00624257154343
C   -3.68443829568458     -0.68723731573599     -0.00478966852105
C   -2.46081704024768     -1.40334517882457      0.00575341766833
C   -1.23116201232071     -0.70217386488055     -0.00636696112346
C   -0.00756962538737     -1.41741884941102      0.00108956317991
C   1.22364771588843     -0.71527537726392      0.01109518512883
C   2.44567064933149     -1.42964328900682     -0.00065482763106
C   3.67686670284649     -0.72670743155550     -0.00479541202602
C   6.13224884641929     -0.73997883984993     -0.00632338623858
C   4.90351914550401     -1.44445752054090      0.00751768830159
C   8.59901484869081      0.63260386666793     -0.00101133422380
C   8.59174548810050     -0.72485086719319      0.00072504603735
C   7.36486276438985     -1.47033266560598      0.00049486934466
H   -9.52830597181814      1.27684744919284     -0.00270163681798
H   9.54141097460619      1.17457248844457     -0.00206336648518
C   -7.36983790976868     -2.77954514593389      0.00312634335708
C   -4.92459910905015     -2.80843725734101     -0.00460528907921
C   -6.16662249566744     -3.51665219282533      0.00169655107992
C   -3.70251035970491     -3.52468154912026      0.00571878010666
C   -2.46764698511392     -2.82132596280400     -0.00632585824990
C   -0.01513347410770     -2.83314164539971     -0.00604426974092
C   -1.24712184122656     -3.53473217556300      0.00551968366725
C   1.20924506964357     -3.54791467864352      0.00805871345849
C   2.43733602215464     -2.84764173817541     -0.00608104485234
C   4.89430234377080     -2.86112296828604     -0.00526030478103
C   3.66461525504104     -3.56421984553201      0.00761911515957
C   6.12863901474565     -3.58258405771778      0.00096495711699
C   7.33967266469532     -2.85841330737039      0.00248018319869
H   -9.54144911125902     -1.17456346666430      0.00226083090216
H   9.52826186807155     -1.27691907390448      0.00197485379837
H   -8.31516504384864     -3.31814985321231      0.00729857188773
H   8.27915514249207     -3.40714078989363      0.00681973918158
C   -6.14499418870218     -4.92764727278338      0.00302254913999
C   -3.70678334799751     -4.94126171411716     -0.00679841894792
C   -4.95559005800169     -5.64349397349412      0.00116871569699
C   -2.48612132622665     -5.65478557440947      0.00614125209662
C   -1.25405833548005     -4.95612205000132     -0.00503435388927
C   1.20101257386816     -4.96928038819302     -0.00385322963129
C   -0.03033667441341     -5.66952030313900      0.00398997003238
C   3.65375010132847     -4.98074377541453     -0.00309522988330
C   2.42549269587528     -5.68117463552727      0.00628170066869
C   6.09196561781097     -4.99325796338655      0.00325918379042
C   4.89497644461045     -5.69634842095790      0.00202298796027
H   -7.08989238804069     -5.46699984223871      0.00742531082125
H   7.03105520920009     -5.54265853633254      0.00683896355417
C   -4.92354532219813     -7.07882109967734      0.00061394679214
C   -2.48534208823777     -7.08772807792913     -0.00189594564379
C   -3.75168589177895     -7.76394715763627     -0.00170126671874
C   -0.03794895698805     -7.09946487446944     -0.00168022049625
C   -1.27795610040136     -7.77290438466689     -0.00366491325785
C   2.40944432072629     -7.11402201200282     -0.00081701968533
C   1.19474993715296     -7.78618536556242     -0.00296931056689
C   4.84762105249800     -7.13126211057943      0.00168979497423
C   3.66847160587561     -7.80378799294376     -0.00065863938960
H   -5.86994035041618     -7.61383059804164      0.00215798365757
H   5.78824962538815     -7.67633218931421      0.00281691445618
H   -3.75352693944918     -8.85107156923607     -0.00353718114765
H   -1.28430440589466     -8.86087539249706     -0.00809229711623
H   1.18922157469537     -8.87416062058945     -0.00706194725726
H   3.65854661482387     -8.89086063405326     -0.00231318081200

    units angstrom      # Angstroms are the default
    no_reorient         # Geometry fixed, default
    symmetry c1         # C1 symmetry, default
}

set {
    scf_type DF         # Density fitting, faster than exact integrals
    freeze_core True    # Freeze core electrons
    basis jun-cc-pVDZ   # Jun-cc-pVDZ basis set, recommended for sSAPT0 in https://doi.org/10.1063/1.4867135
}

energy('ssapt0')        # Compute sSAPT0 energy, includes also SAPT0
--------------------------------------------------------------------------

  Memory set to  59.605 GiB by Python driver.

Scratch directory: /tmp/
   => Loading Basis Set <=

    Name: JUN-CC-PVDZ
    Role: ORBITAL
    Keyword: BASIS
    atoms 1                                                   entry B          line   130 file /opt/software/pc2/EB-SW/software/PSI4/1.9-foss-2022a/share/psi4/basis/jun-cc-pvdz.gbs 
    atoms 2-5                                                 entry F          line   266 file /opt/software/pc2/EB-SW/software/PSI4/1.9-foss-2022a/share/psi4/basis/jun-cc-pvdz.gbs 
    atoms 6-23, 30-42, 45-59, 62-78, 81-93, 98-108, 111-119   entry C          line   164 file /opt/software/pc2/EB-SW/software/PSI4/1.9-foss-2022a/share/psi4/basis/jun-cc-pvdz.gbs 
    atoms 24-29, 43-44, 60-61, 79-80, 94-97, 109-110, 120-125 entry H          line    36 file /opt/software/pc2/EB-SW/software/PSI4/1.9-foss-2022a/share/psi4/basis/jun-cc-pvdz.gbs 

   => Loading Basis Set <=

    Name: JUN-CC-PVDZ
    Role: ORBITAL
    Keyword: BASIS
    atoms 1                                                   entry B          line   130 file /opt/software/pc2/EB-SW/software/PSI4/1.9-foss-2022a/share/psi4/basis/jun-cc-pvdz.gbs 
    atoms 2-5                                                 entry F          line   266 file /opt/software/pc2/EB-SW/software/PSI4/1.9-foss-2022a/share/psi4/basis/jun-cc-pvdz.gbs 
    atoms 6-23, 30-42, 45-59, 62-78, 81-93, 98-108, 111-119   entry C          line   164 file /opt/software/pc2/EB-SW/software/PSI4/1.9-foss-2022a/share/psi4/basis/jun-cc-pvdz.gbs 
    atoms 24-29, 43-44, 60-61, 79-80, 94-97, 109-110, 120-125 entry H          line    36 file /opt/software/pc2/EB-SW/software/PSI4/1.9-foss-2022a/share/psi4/basis/jun-cc-pvdz.gbs 


  //>>>>>>>>>>>>>>>>>>>>>>>>>>>>>>>>>>>//
  //              Dimer HF             //
  //<<<<<<<<<<<<<<<<<<<<<<<<<<<<<<<<<<<//

   => Libint2 <=

    Primary   basis highest AM E, G, H:  5, 4, 3
    Auxiliary basis highest AM E, G, H:  6, 5, 4
    Onebody   basis highest AM E, G, H:  6, 5, 4
    Solid Harmonics ordering:            gaussian

*** tstart() called on n2cn0902
*** at Sat Jan 27 10:41:45 2024

   => Loading Basis Set <=

    Name: JUN-CC-PVDZ
    Role: ORBITAL
    Keyword: BASIS
    atoms 1                                                   entry B          line   130 file /opt/software/pc2/EB-SW/software/PSI4/1.9-foss-2022a/share/psi4/basis/jun-cc-pvdz.gbs 
    atoms 2-5                                                 entry F          line   266 file /opt/software/pc2/EB-SW/software/PSI4/1.9-foss-2022a/share/psi4/basis/jun-cc-pvdz.gbs 
    atoms 6-23, 30-42, 45-59, 62-78, 81-93, 98-108, 111-119   entry C          line   164 file /opt/software/pc2/EB-SW/software/PSI4/1.9-foss-2022a/share/psi4/basis/jun-cc-pvdz.gbs 
    atoms 24-29, 43-44, 60-61, 79-80, 94-97, 109-110, 120-125 entry H          line    36 file /opt/software/pc2/EB-SW/software/PSI4/1.9-foss-2022a/share/psi4/basis/jun-cc-pvdz.gbs 


         ---------------------------------------------------------
                                   SCF
               by Justin Turney, Rob Parrish, Andy Simmonett
                          and Daniel G. A. Smith
                              RHF Reference
                       16 Threads,  61035 MiB Core
         ---------------------------------------------------------

  ==> Geometry <==

    Molecular point group: c1
    Full point group: C1

    Geometry (in Angstrom), charge = -1, multiplicity = 1:

       Center              X                  Y                   Z               Mass       
    ------------   -----------------  -----------------  -----------------  -----------------
         B           -0.000201921932     0.000288800891    -6.704065388158    11.009305360000
         F           -0.000004162732     0.000014527991    -5.291280388158    18.998403162730
         F            1.147855837268     0.675795727991    -7.175206388158    18.998403162730
         F            0.011913897268    -1.331996472009    -7.175004388158    18.998403162730
         F           -1.159670162732     0.656088027991    -7.174925388158    18.998403162730
         C           -3.668445426752     7.803766698073     0.497800653177    12.000000000000
         C           -4.847602882078     7.131256359331     0.495434078245    12.000000000000
         C           -4.894963461907     5.696344931522     0.494861167147    12.000000000000
         C           -3.653744841505     4.980744868950     0.502521608876    12.000000000000
         C           -2.409429284226     7.113995564665     0.497994995437    12.000000000000
         C           -2.425481506836     5.681136478894     0.490990106567    12.000000000000
         C           -1.194748179167     7.786158722300     0.499467175979    12.000000000000
         C            0.037954866205     7.099436173748     0.497296471674    12.000000000000
         C            0.030328424687     5.669504087695     0.491813086759    12.000000000000
         C           -1.200988670637     4.969284875906     0.500782820692    12.000000000000
         C            1.277953663083     7.772873971185     0.498672320235    12.000000000000
         C            2.485353921992     7.087711413228     0.496397832330    12.000000000000
         C            2.486124522185     5.654785338231     0.489460083343    12.000000000000
         C            1.254078756912     4.956092641655     0.501088024931    12.000000000000
         C            3.751710428674     7.763926678971     0.496524683711    12.000000000000
         C            4.923561893453     7.078795304981     0.494468203003    12.000000000000
         C            4.955603108594     5.643461991360     0.494307790196    12.000000000000
         C            3.706797371473     4.941224736324     0.499399350365    12.000000000000
         H           -3.658525300490     8.890841947126     0.499485641427     1.007825032230
         H           -1.189217492488     8.874135615351     0.503439052421     1.007825032230
         H            1.284290076155     8.860847963479     0.502831144376     1.007825032230
         H            3.753537924068     8.851049806963     0.498047208026     1.007825032230
         H            5.869954540475     7.613809362646     0.493542835960     1.007825032230
         H           -5.788235870234     7.676316740925     0.493874230889     1.007825032230
         C           -6.091978121428     4.993274541634     0.492988926656    12.000000000000
         C           -6.128665643049     3.582594696789     0.494190103684    12.000000000000
         C           -3.664583902777     3.564196707735     0.491265009067    12.000000000000
         C           -4.894302367430     2.861095303891     0.500433994052    12.000000000000
         C           -2.437339157630     2.847626185075     0.503096787603    12.000000000000
         C           -1.209232020328     3.547901462969     0.489417760812    12.000000000000
         C            1.247137409430     3.534695279420     0.488609154406    12.000000000000
         C            0.015171876837     2.833126367296     0.500293337631    12.000000000000
         C            2.467641009709     2.821304505246     0.500393395754    12.000000000000
         C            3.702545311848     3.524674682415     0.486905434912    12.000000000000
         C            6.144976223652     4.927586894122     0.493074344984    12.000000000000
         C            6.166584196130     3.516599003933     0.495240898421    12.000000000000
         C            4.924605795728     2.808422453345     0.501779644658    12.000000000000
         H            7.089901346909     5.466902294214     0.489312464134     1.007825032230
         H           -7.031045913833     5.542702480848     0.488755711704     1.007825032230
         C           -7.339702203855     2.858426062570     0.492562936243    12.000000000000
         C           -7.364886120791     1.470337899574     0.494328474370    12.000000000000
         C           -4.903508771679     1.444441340151     0.489612210178    12.000000000000
         C           -6.132261315343     0.739953885044     0.501902254161    12.000000000000
         C           -3.676878963248     0.726711670664     0.500239926578    12.000000000000
         C           -2.445660748797     1.429655661253     0.489930216377    12.000000000000
         C           -1.223604844033     0.715339029625     0.501359480908    12.000000000000
         C            0.007633706582     1.417397677228     0.499825134626    12.000000000000
         C            1.231215645015     0.702131218578     0.480998548970    12.000000000000
         C            2.460816937799     1.403306564116     0.500503057861    12.000000000000
         C            3.684426091464     0.687212956203     0.499674271583    12.000000000000
         C            4.918704738807     1.391749089180     0.487272449948    12.000000000000
         C            7.369797915229     2.779496731175     0.493480478628    12.000000000000
         C            7.380158503390     1.391232035846     0.495027161474    12.000000000000
         C            6.139795376391     0.674133151191     0.501355503285    12.000000000000
         H           -8.279194962078     3.407132569115     0.488265384121     1.007825032230
         H            8.315109308748     3.318132624614     0.489269902829     1.007825032230
         C           -8.591760100313     0.724847081035     0.494668901988    12.000000000000
         C           -8.599028766435    -0.632625278238     0.496792026571    12.000000000000
         C           -6.139817301850    -0.674122109163     0.489802685236    12.000000000000
         C           -7.380188274869    -1.391251661591     0.497218746777    12.000000000000
         C           -4.918688642988    -1.391740490039     0.502143183385    12.000000000000
         C           -3.684442458416    -0.687222787745     0.491110943321    12.000000000000
         C           -2.460821202979    -1.403330650834     0.501654029510    12.000000000000
         C           -1.231166175052    -0.702159336890     0.489533650718    12.000000000000
         C           -0.007573788119    -1.417404321420     0.496990175022    12.000000000000
         C            1.223643553157    -0.715260849273     0.506995796971    12.000000000000
         C            2.445666486600    -1.429628761016     0.495245784211    12.000000000000
         C            3.676862540115    -0.726692903565     0.491105199816    12.000000000000
         C            6.132244683688    -0.739964311859     0.489577225603    12.000000000000
         C            4.903514982772    -1.444442992550     0.503418300143    12.000000000000
         C            8.599010685959     0.632618394658     0.494889277618    12.000000000000
         C            8.591741325369    -0.724836339203     0.496625657879    12.000000000000
         C            7.364858601658    -1.470318137615     0.496395481186    12.000000000000
         H           -9.528310134550     1.276861977183     0.493198975024     1.007825032230
         H            9.541406811874     1.174587016435     0.493837245357     1.007825032230
         C           -7.369842072500    -2.779530617943     0.499026955199    12.000000000000
         C           -4.924603271782    -2.808422729350     0.491295322763    12.000000000000
         C           -6.166626658399    -3.516637664835     0.497597162922    12.000000000000
         C           -3.702514522437    -3.524667021130     0.501619391948    12.000000000000
         C           -2.467651147846    -2.821311434813     0.489574753592    12.000000000000
         C           -0.015137636839    -2.833127117409     0.489856342101    12.000000000000
         C           -1.247126003958    -3.534717647572     0.501420295509    12.000000000000
         C            1.209240906912    -3.547900150653     0.503959325300    12.000000000000
         C            2.437331859423    -2.847627210185     0.489819566989    12.000000000000
         C            4.894298181039    -2.861108440295     0.490640307061    12.000000000000
         C            3.664611092309    -3.564205317541     0.503519727001    12.000000000000
         C            6.128634852014    -3.582569529727     0.496865568959    12.000000000000
         C            7.339668501964    -2.858398779380     0.498380795040    12.000000000000
         H           -9.541453273991    -1.174548938674     0.498161442744     1.007825032230
         H            9.528257705340    -1.276904545914     0.497875465640     1.007825032230
         H           -8.315169206580    -3.318135325222     0.503199183729     1.007825032230
         H            8.279150979760    -3.407126261903     0.502720351023     1.007825032230
         C           -6.144998351434    -4.927632744793     0.498923160982    12.000000000000
         C           -3.706787510729    -4.941247186127     0.489102192894    12.000000000000
         C           -4.955594220733    -5.643479445504     0.497069327539    12.000000000000
         C           -2.486125488958    -5.654771046419     0.502041863938    12.000000000000
         C           -1.254062498212    -4.956107522011     0.490866257952    12.000000000000
         C            1.201008411136    -4.969265860202     0.492047382210    12.000000000000
         C           -0.030340837145    -5.669505775148     0.499890581874    12.000000000000
         C            3.653745938597    -4.980729247424     0.492805381958    12.000000000000
         C            2.425488533144    -5.681160107537     0.502182312510    12.000000000000
         C            6.091961455079    -4.993243435396     0.499159795632    12.000000000000
         C            4.894972281879    -5.696333892967     0.497923599802    12.000000000000
         H           -7.089896550772    -5.466985314248     0.503325922663     1.007825032230
         H            7.031051046468    -5.542644008342     0.502739575396     1.007825032230
         C           -4.923549484930    -7.078806571687     0.496514558634    12.000000000000
         C           -2.485346250970    -7.087713549939     0.494004666198    12.000000000000
         C           -3.751690054511    -7.763932629646     0.494199345123    12.000000000000
         C           -0.037953119720    -7.099450346479     0.494220391345    12.000000000000
         C           -1.277960263133    -7.772889856676     0.492235698584    12.000000000000
         C            2.409440157995    -7.114007484012     0.495083592156    12.000000000000
         C            1.194745774421    -7.786170837572     0.492931301275    12.000000000000
         C            4.847616889766    -7.131247582589     0.497590406816    12.000000000000
         C            3.668467443144    -7.803773464953     0.495241972452    12.000000000000
         H           -5.869944513148    -7.613816070051     0.498058595499     1.007825032230
         H            5.788245462656    -7.676317661324     0.498717526298     1.007825032230
         H           -3.753531102181    -8.851057041246     0.492363430694     1.007825032230
         H           -1.284308568626    -8.860860864507     0.487808314725     1.007825032230
         H            1.189217411964    -8.874146092599     0.488838664584     1.007825032230
         H            3.658542452092    -8.890846106063     0.493587431030     1.007825032230

  Running in c1 symmetry.

  Rotational constants: A =      0.00060  B =      0.00060  C =      0.00035 [cm^-1]
  Rotational constants: A =     17.92315  B =     17.92043  C =     10.55117 [MHz]
  Nuclear repulsion = 17174.730939518103696

  Charge       = -1
  Multiplicity = 1
  Electrons    = 642
  Nalpha       = 321
  Nbeta        = 321

  ==> Algorithm <==

  SCF Algorithm Type is DF.
  DIIS enabled.
  MOM disabled.
  Fractional occupation disabled.
  Guess Type is SAD.
  Energy threshold   = 1.00e-08
  Density threshold  = 1.00e-08
  Integral threshold = 1.00e-12

  ==> Primary Basis <==

  Basis Set: JUN-CC-PVDZ
    Blend: JUN-CC-PVDZ
    Number of shells: 880
    Number of basis functions: 1938
    Number of Cartesian functions: 2039
    Spherical Harmonics?: true
    Max angular momentum: 2

   => Loading Basis Set <=

    Name: (JUN-CC-PVDZ AUX)
    Role: JKFIT
    Keyword: DF_BASIS_SCF
    atoms 1                                                   entry B          line    90 file /opt/software/pc2/EB-SW/software/PSI4/1.9-foss-2022a/share/psi4/basis/jun-cc-pvdz-jkfit.gbs 
    atoms 2-5                                                 entry F          line   314 file /opt/software/pc2/EB-SW/software/PSI4/1.9-foss-2022a/share/psi4/basis/jun-cc-pvdz-jkfit.gbs 
    atoms 6-23, 30-42, 45-59, 62-78, 81-93, 98-108, 111-119   entry C          line   146 file /opt/software/pc2/EB-SW/software/PSI4/1.9-foss-2022a/share/psi4/basis/jun-cc-pvdz-jkfit.gbs 
    atoms 24-29, 43-44, 60-61, 79-80, 94-97, 109-110, 120-125 entry H          line    70 file /opt/software/pc2/EB-SW/software/PSI4/1.9-foss-2022a/share/psi4/basis/jun-cc-pvdz-jkfit.gbs 

  ==> Integral Setup <==

  ==> DiskDFJK: Density-Fitted J/K Matrices <==

    J tasked:                  Yes
    K tasked:                  Yes
    wK tasked:                  No
    OpenMP threads:             16
    Integrals threads:          16
    Memory [MiB]:            45776
    Algorithm:                Disk
    Integral Cache:           SAVE
    Schwarz Cutoff:          1E-12
    Fitting Condition:       1E-10

   => Auxiliary Basis Set <=

  Basis Set: (JUN-CC-PVDZ AUX)
    Blend: JUN-CC-PVDZ-JKFIT
    Number of shells: 2943
    Number of basis functions: 8531
    Number of Cartesian functions: 9791
    Spherical Harmonics?: true
    Max angular momentum: 3

  Minimum eigenvalue in the overlap matrix is 9.0472695862E-11.
  Reciprocal condition number of the overlap matrix is 3.9674694776E-12.
    Using canonical orthogonalization.
  Overall, 38 of 1938 possible MOs eliminated.


  ==> Pre-Iterations <==

  SCF Guess: Superposition of Atomic Densities via on-the-fly atomic UHF (no occupation information).

   -------------------------
    Irrep   Nso     Nmo    
   -------------------------
     A       1938    1900 
   -------------------------
    Total    1938    1900
   -------------------------

  ==> Iterations <==

                           Total Energy        Delta E     RMS |[F,P]|

   @DF-RHF iter SAD: -4084.99872631425751   -4.08500e+03   0.00000e+00 
   @DF-RHF iter   1: -4071.52554889066414    1.34732e+01   7.88047e-04 ADIIS/DIIS
   @DF-RHF iter   2: -4072.91724847357000   -1.39170e+00   3.07114e-04 ADIIS/DIIS
   @DF-RHF iter   3: -4073.07871916466047   -1.61471e-01   1.01602e-04 ADIIS/DIIS
   @DF-RHF iter   4: -4073.10020841462847   -2.14892e-02   3.66508e-05 DIIS
   @DF-RHF iter   5: -4073.10337342439470   -3.16501e-03   1.06817e-05 DIIS
   @DF-RHF iter   6: -4073.10379271506918   -4.19291e-04   4.17778e-06 DIIS
   @DF-RHF iter   7: -4073.10396857339902   -1.75858e-04   2.13304e-06 DIIS
   @DF-RHF iter   8: -4073.10402065577864   -5.20824e-05   1.15765e-06 DIIS
   @DF-RHF iter   9: -4073.10403608830620   -1.54325e-05   3.54888e-07 DIIS
   @DF-RHF iter  10: -4073.10403704747660   -9.59170e-07   1.70169e-07 DIIS
   @DF-RHF iter  11: -4073.10403721348212   -1.66006e-07   6.17657e-08 DIIS
   @DF-RHF iter  12: -4073.10403724680873   -3.33266e-08   3.13991e-08 DIIS
   @DF-RHF iter  13: -4073.10403725391006   -7.10133e-09   1.03638e-08 DIIS
   @DF-RHF iter  14: -4073.10403725461128   -7.01220e-10   4.34674e-09 DIIS
  Energy and wave function converged.


  ==> Post-Iterations <==

    Orbital Energies [Eh]
    ---------------------

    Doubly Occupied:                                                      

       1A    -26.065136     2A    -26.065004     3A    -26.064910  
       4A    -26.064824     5A    -11.211150     6A    -11.211148  
       7A    -11.211143     8A    -11.211136     9A    -11.211135  
      10A    -11.211131    11A    -11.211128    12A    -11.211123  
      13A    -11.211118    14A    -11.211113    15A    -11.211112  
      16A    -11.211105    17A    -11.210952    18A    -11.210947  
      19A    -11.210937    20A    -11.210933    21A    -11.210930  
      22A    -11.210923    23A    -11.209788    24A    -11.209767  
      25A    -11.209762    26A    -11.209700    27A    -11.209698  
      28A    -11.209623    29A    -11.209590    30A    -11.209508  
      31A    -11.209506    32A    -11.209426    33A    -11.209423  
      34A    -11.209391    35A    -11.208938    36A    -11.208867  
      37A    -11.208859    38A    -11.208708    39A    -11.208703  
      40A    -11.208571    41A    -11.208330    42A    -11.208292  
      43A    -11.208225    44A    -11.208222    45A    -11.208218  
      46A    -11.208213    47A    -11.208170    48A    -11.207989  
      49A    -11.207958    50A    -11.207955    51A    -11.207935  
      52A    -11.207931    53A    -11.207546    54A    -11.207535  
      55A    -11.207513    56A    -11.207484    57A    -11.207438  
      58A    -11.207436    59A    -11.207324    60A    -11.207323  
      61A    -11.207264    62A    -11.207200    63A    -11.207198  
      64A    -11.207142    65A    -11.207132    66A    -11.207110  
      67A    -11.207106    68A    -11.206928    69A    -11.206921  
      70A    -11.206916    71A    -11.206818    72A    -11.206749  
      73A    -11.206747    74A    -11.206238    75A    -11.206219  
      76A    -11.206211    77A    -11.206208    78A    -11.206203  
      79A    -11.206201    80A    -11.206198    81A    -11.206197  
      82A    -11.205808    83A    -11.204751    84A    -11.204748  
      85A    -11.204743    86A    -11.204741    87A    -11.204738  
      88A    -11.204736    89A    -11.203467    90A    -11.203466  
      91A    -11.203460    92A    -11.203406    93A    -11.203403  
      94A    -11.203399    95A    -11.203377    96A    -11.203375  
      97A    -11.203369    98A    -11.203315    99A    -11.203313  
     100A    -11.203309   101A     -7.537260   102A     -1.408914  
     103A     -1.349275   104A     -1.349138   105A     -1.348973  
     106A     -1.200021   107A     -1.186285   108A     -1.186282  
     109A     -1.168501   110A     -1.168495   111A     -1.162442  
     112A     -1.149759   113A     -1.143934   114A     -1.135468  
     115A     -1.135465   116A     -1.122668   117A     -1.122665  
     118A     -1.103246   119A     -1.103244   120A     -1.100231  
     121A     -1.093839   122A     -1.093836   123A     -1.076846  
     124A     -1.062421   125A     -1.062331   126A     -1.060924  
     127A     -1.060179   128A     -1.060165   129A     -1.036839  
     130A     -1.036825   131A     -1.026237   132A     -1.026236  
     133A     -1.015630   134A     -1.015600   135A     -1.012686  
     136A     -0.995450   137A     -0.995442   138A     -0.989140  
     139A     -0.988006   140A     -0.988005   141A     -0.972972  
     142A     -0.968366   143A     -0.968316   144A     -0.956176  
     145A     -0.954913   146A     -0.952363   147A     -0.948615  
     148A     -0.948568   149A     -0.940643   150A     -0.919275  
     151A     -0.919229   152A     -0.904890   153A     -0.904836  
     154A     -0.855260   155A     -0.855220   156A     -0.853032  
     157A     -0.852990   158A     -0.851377   159A     -0.839667  
     160A     -0.839607   161A     -0.838063   162A     -0.838005  
     163A     -0.837543   164A     -0.821535   165A     -0.819329  
     166A     -0.800751   167A     -0.795879   168A     -0.795858  
     169A     -0.793349   170A     -0.791236   171A     -0.783388  
     172A     -0.783375   173A     -0.777791   174A     -0.777787  
     175A     -0.734206   176A     -0.734191   177A     -0.731549  
     178A     -0.731527   179A     -0.730908   180A     -0.730888  
     181A     -0.730071   182A     -0.715619   183A     -0.708498  
     184A     -0.698811   185A     -0.683131   186A     -0.675775  
     187A     -0.675761   188A     -0.673711   189A     -0.673212  
     190A     -0.673192   191A     -0.666367   192A     -0.661965  
     193A     -0.661961   194A     -0.648832   195A     -0.648820  
     196A     -0.635202   197A     -0.635199   198A     -0.634262  
     199A     -0.631099   200A     -0.631088   201A     -0.627660  
     202A     -0.603045   203A     -0.600207   204A     -0.600023  
     205A     -0.599993   206A     -0.598892   207A     -0.598032  
     208A     -0.598017   209A     -0.589364   210A     -0.589336  
     211A     -0.589176   212A     -0.588366   213A     -0.584640  
     214A     -0.584612   215A     -0.577961   216A     -0.564856  
     217A     -0.564828   218A     -0.562933   219A     -0.557965  
     220A     -0.557959   221A     -0.547687   222A     -0.546927  
     223A     -0.546917   224A     -0.546656   225A     -0.545998  
     226A     -0.545961   227A     -0.544430   228A     -0.544419  
     229A     -0.543911   230A     -0.541679   231A     -0.540609  
     232A     -0.540606   233A     -0.535192   234A     -0.527942  
     235A     -0.527932   236A     -0.526432   237A     -0.526379  
     238A     -0.526293   239A     -0.523560   240A     -0.523557  
     241A     -0.522584   242A     -0.516837   243A     -0.516823  
     244A     -0.515941   245A     -0.515405   246A     -0.515376  
     247A     -0.511069   248A     -0.508271   249A     -0.507277  
     250A     -0.507257   251A     -0.503002   252A     -0.499300  
     253A     -0.497972   254A     -0.492552   255A     -0.482811  
     256A     -0.482800   257A     -0.481812   258A     -0.481795  
     259A     -0.477297   260A     -0.477279   261A     -0.475762  
     262A     -0.466005   263A     -0.465973   264A     -0.464349  
     265A     -0.464342   266A     -0.459178   267A     -0.459160  
     268A     -0.446851   269A     -0.445256   270A     -0.445214  
     271A     -0.445088   272A     -0.445062   273A     -0.441114  
     274A     -0.441105   275A     -0.436437   276A     -0.430985  
     277A     -0.426700   278A     -0.426697   279A     -0.423123  
     280A     -0.417468   281A     -0.415108   282A     -0.415103  
     283A     -0.406972   284A     -0.406451   285A     -0.406397  
     286A     -0.406313   287A     -0.394083   288A     -0.394021  
     289A     -0.388491   290A     -0.388035   291A     -0.388020  
     292A     -0.384248   293A     -0.383276   294A     -0.382967  
     295A     -0.382909   296A     -0.382838   297A     -0.355637  
     298A     -0.355612   299A     -0.335311   300A     -0.335308  
     301A     -0.333966   302A     -0.333918   303A     -0.331015  
     304A     -0.302792   305A     -0.302776   306A     -0.299059  
     307A     -0.284311   308A     -0.282288   309A     -0.282283  
     310A     -0.281377   311A     -0.281296   312A     -0.254428  
     313A     -0.249629   314A     -0.249339   315A     -0.249273  
     316A     -0.234903   317A     -0.206717   318A     -0.201006  
     319A     -0.200948   320A     -0.152859   321A     -0.152769  

    Virtual:                                                              

     322A      0.039785   323A      0.039864   324A      0.086986  
     325A      0.087233   326A      0.087244   327A      0.087496  
     328A      0.087559   329A      0.089062   330A      0.089748  
     331A      0.089768   332A      0.095116   333A      0.097733  
     334A      0.103188   335A      0.103201   336A      0.114470  
     337A      0.114474   338A      0.117655   339A      0.118298  
     340A      0.122375   341A      0.122437   342A      0.123621  
     343A      0.125534   344A      0.125924   345A      0.126150  
     346A      0.127864   347A      0.128222   348A      0.128318  
     349A      0.129859   350A      0.133933   351A      0.133964  
     352A      0.134426   353A      0.138662   354A      0.138677  
     355A      0.139771   356A      0.141902   357A      0.141955  
     358A      0.146402   359A      0.150272   360A      0.150326  
     361A      0.151610   362A      0.153068   363A      0.154766  
     364A      0.156310   365A      0.156398   366A      0.156916  
     367A      0.156999   368A      0.159945   369A      0.161629  
     370A      0.162141   371A      0.162172   372A      0.162703  
     373A      0.162835   374A      0.168916   375A      0.169576  
     376A      0.169663   377A      0.170145   378A      0.172450  
     379A      0.172665   380A      0.176798   381A      0.176844  
     382A      0.182086   383A      0.183912   384A      0.184037  
     385A      0.188683   386A      0.189046   387A      0.189389  
     388A      0.189513   389A      0.189562   390A      0.195726  
     391A      0.195788   392A      0.198316   393A      0.199534  
     394A      0.202760   395A      0.202932   396A      0.203673  
     397A      0.203737   398A      0.204731   399A      0.204954  
     400A      0.205507   401A      0.207903   402A      0.208000  
     403A      0.209284   404A      0.209390   405A      0.212219  
     406A      0.213217   407A      0.213574   408A      0.214440  
     409A      0.214555   410A      0.215552   411A      0.217290  
     412A      0.217354   413A      0.222439   414A      0.223422  
     415A      0.226345   416A      0.226356   417A      0.231911  
     418A      0.231998   419A      0.234629   420A      0.234841  
     421A      0.235099   422A      0.236643   423A      0.238891  
     424A      0.239555   425A      0.241386   426A      0.241747  
     427A      0.242383   428A      0.242444   429A      0.246836  
     430A      0.248031   431A      0.248140   432A      0.248985  
     433A      0.249270   434A      0.249449   435A      0.250124  
     436A      0.250285   437A      0.252435   438A      0.253599  
     439A      0.258757   440A      0.258819   441A      0.259444  
     442A      0.259547   443A      0.260544   444A      0.260777  
     445A      0.261649   446A      0.263478   447A      0.263950  
     448A      0.263977   449A      0.265126   450A      0.265193  
     451A      0.267075   452A      0.267105   453A      0.267764  
     454A      0.267780   455A      0.270978   456A      0.271088  
     457A      0.272929   458A      0.274985   459A      0.275793  
     460A      0.276284   461A      0.278977   462A      0.281121  
     463A      0.282250   464A      0.282310   465A      0.283045  
     466A      0.284717   467A      0.285567   468A      0.285631  
     469A      0.287838   470A      0.287914   471A      0.290923  
     472A      0.292457   473A      0.295596   474A      0.298664  
     475A      0.299244   476A      0.299357   477A      0.302053  
     478A      0.302138   479A      0.302999   480A      0.304486  
     481A      0.304896   482A      0.306405   483A      0.307113  
     484A      0.307155   485A      0.307723   486A      0.308495  
     487A      0.310168   488A      0.310189   489A      0.314467  
     490A      0.314557   491A      0.315374   492A      0.315982  
     493A      0.316098   494A      0.319615   495A      0.319666  
     496A      0.325747   497A      0.326945   498A      0.326994  
     499A      0.328845   500A      0.329049   501A      0.330986  
     502A      0.332326   503A      0.332623   504A      0.332698  
     505A      0.333650   506A      0.334549   507A      0.336107  
     508A      0.336171   509A      0.337480   510A      0.341258  
     511A      0.343154   512A      0.343999   513A      0.344937  
     514A      0.347800   515A      0.347887   516A      0.348610  
     517A      0.349579   518A      0.351887   519A      0.353010  
     520A      0.353082   521A      0.354403   522A      0.354453  
     523A      0.356200   524A      0.356492   525A      0.356840  
     526A      0.357575   527A      0.359782   528A      0.359805  
     529A      0.359889   530A      0.361569   531A      0.361614  
     532A      0.363718   533A      0.363781   534A      0.364616  
     535A      0.369120   536A      0.369284   537A      0.369390  
     538A      0.373763   539A      0.374003   540A      0.375297  
     541A      0.375389   542A      0.376662   543A      0.377307  
     544A      0.377354   545A      0.377767   546A      0.378243  
     547A      0.378690   548A      0.379041   549A      0.379662  
     550A      0.379790   551A      0.383821   552A      0.385231  
     553A      0.387323   554A      0.387420   555A      0.387779  
     556A      0.390337   557A      0.390351   558A      0.391946  
     559A      0.393612   560A      0.393725   561A      0.393814  
     562A      0.396536   563A      0.399687   564A      0.399716  
     565A      0.401155   566A      0.401695   567A      0.402628  
     568A      0.404186   569A      0.404499   570A      0.405342  
     571A      0.406235   572A      0.407651   573A      0.408208  
     574A      0.409564   575A      0.410150   576A      0.411714  
     577A      0.412310   578A      0.412534   579A      0.415158  
     580A      0.416036   581A      0.416070   582A      0.419479  
     583A      0.419985   584A      0.420031   585A      0.426604  
     586A      0.426650   587A      0.427554   588A      0.429038  
     589A      0.429227   590A      0.430995   591A      0.431009  
     592A      0.435813   593A      0.435990   594A      0.436051  
     595A      0.436389   596A      0.436454   597A      0.439703  
     598A      0.440482   599A      0.441415   600A      0.441868  
     601A      0.442580   602A      0.442897   603A      0.443982  
     604A      0.445298   605A      0.445336   606A      0.446504  
     607A      0.448026   608A      0.448079   609A      0.448176  
     610A      0.448235   611A      0.449494   612A      0.450940  
     613A      0.451920   614A      0.452125   615A      0.453124  
     616A      0.456056   617A      0.456177   618A      0.456213  
     619A      0.456443   620A      0.456673   621A      0.457449  
     622A      0.460479   623A      0.460510   624A      0.461190  
     625A      0.461402   626A      0.461684   627A      0.464402  
     628A      0.464527   629A      0.465372   630A      0.465504  
     631A      0.467325   632A      0.467554   633A      0.467777  
     634A      0.467937   635A      0.469266   636A      0.469587  
     637A      0.471386   638A      0.471983   639A      0.472896  
     640A      0.473015   641A      0.473094   642A      0.474909  
     643A      0.475496   644A      0.477757   645A      0.478688  
     646A      0.478815   647A      0.480884   648A      0.481087  
     649A      0.482000   650A      0.483057   651A      0.483431  
     652A      0.484390   653A      0.484512   654A      0.485639  
     655A      0.486425   656A      0.487772   657A      0.489325  
     658A      0.490760   659A      0.490920   660A      0.491482  
     661A      0.491705   662A      0.491826   663A      0.494808  
     664A      0.495570   665A      0.495897   666A      0.498306  
     667A      0.498606   668A      0.503105   669A      0.503589  
     670A      0.504244   671A      0.504743   672A      0.505141  
     673A      0.505533   674A      0.505726   675A      0.508558  
     676A      0.509332   677A      0.510607   678A      0.511339  
     679A      0.511756   680A      0.512672   681A      0.513441  
     682A      0.514858   683A      0.517155   684A      0.517311  
     685A      0.517594   686A      0.518706   687A      0.523839  
     688A      0.524176   689A      0.524501   690A      0.526333  
     691A      0.526414   692A      0.527291   693A      0.527375  
     694A      0.529436   695A      0.529989   696A      0.531134  
     697A      0.532258   698A      0.533292   699A      0.533558  
     700A      0.533780   701A      0.535076   702A      0.535730  
     703A      0.537302   704A      0.537421   705A      0.538282  
     706A      0.539727   707A      0.540221   708A      0.540585  
     709A      0.541702   710A      0.544489   711A      0.544804  
     712A      0.546148   713A      0.546708   714A      0.546924  
     715A      0.547556   716A      0.548819   717A      0.551232  
     718A      0.552482   719A      0.553130   720A      0.554171  
     721A      0.554688   722A      0.555475   723A      0.557815  
     724A      0.558167   725A      0.560247   726A      0.560429  
     727A      0.560959   728A      0.563432   729A      0.563615  
     730A      0.567929   731A      0.568754   732A      0.568796  
     733A      0.570004   734A      0.571015   735A      0.571344  
     736A      0.572522   737A      0.576026   738A      0.576102  
     739A      0.578148   740A      0.578730   741A      0.578957  
     742A      0.581641   743A      0.584469   744A      0.585962  
     745A      0.588002   746A      0.588133   747A      0.588396  
     748A      0.588555   749A      0.596914   750A      0.597368  
     751A      0.601213   752A      0.601637   753A      0.606787  
     754A      0.610214   755A      0.610284   756A      0.614153  
     757A      0.614371   758A      0.614868   759A      0.615433  
     760A      0.615895   761A      0.618367   762A      0.618533  
     763A      0.623507   764A      0.625314   765A      0.626029  
     766A      0.629776   767A      0.630246   768A      0.630968  
     769A      0.633825   770A      0.635589   771A      0.636113  
     772A      0.637138   773A      0.637858   774A      0.639069  
     775A      0.639172   776A      0.639593   777A      0.639883  
     778A      0.643538   779A      0.644006   780A      0.648146  
     781A      0.650046   782A      0.652005   783A      0.653965  
     784A      0.656383   785A      0.656708   786A      0.657055  
     787A      0.658286   788A      0.658729   789A      0.658870  
     790A      0.668398   791A      0.669502   792A      0.670950  
     793A      0.671999   794A      0.672372   795A      0.672614  
     796A      0.677165   797A      0.678957   798A      0.681587  
     799A      0.683983   800A      0.686490   801A      0.687121  
     802A      0.689331   803A      0.694585   804A      0.695688  
     805A      0.698286   806A      0.701636   807A      0.702667  
     808A      0.703476   809A      0.709718   810A      0.710039  
     811A      0.712205   812A      0.712434   813A      0.712483  
     814A      0.716231   815A      0.716499   816A      0.717870  
     817A      0.724125   818A      0.724624   819A      0.728252  
     820A      0.730684   821A      0.736571   822A      0.737584  
     823A      0.739399   824A      0.739817   825A      0.741719  
     826A      0.741804   827A      0.743394   828A      0.745053  
     829A      0.745473   830A      0.745691   831A      0.746296  
     832A      0.752327   833A      0.756485   834A      0.756636  
     835A      0.761883   836A      0.763693   837A      0.764326  
     838A      0.764561   839A      0.765660   840A      0.773890  
     841A      0.778551   842A      0.781210   843A      0.784073  
     844A      0.784696   845A      0.790634   846A      0.793200  
     847A      0.793473   848A      0.796102   849A      0.799748  
     850A      0.799950   851A      0.803814   852A      0.803911  
     853A      0.806267   854A      0.823971   855A      0.827321  
     856A      0.834725   857A      0.835923   858A      0.839728  
     859A      0.839921   860A      0.843798   861A      0.845425  
     862A      0.847282   863A      0.850355   864A      0.852242  
     865A      0.853625   866A      0.855670   867A      0.856761  
     868A      0.858332   869A      0.859366   870A      0.864610  
     871A      0.865128   872A      0.866047   873A      0.867013  
     874A      0.867893   875A      0.868663   876A      0.877340  
     877A      0.878329   878A      0.878821   879A      0.882862  
     880A      0.886189   881A      0.887111   882A      0.887465  
     883A      0.888280   884A      0.889292   885A      0.889487  
     886A      0.894199   887A      0.894951   888A      0.895809  
     889A      0.899329   890A      0.902929   891A      0.904107  
     892A      0.906811   893A      0.907221   894A      0.910543  
     895A      0.911030   896A      0.911547   897A      0.912898  
     898A      0.914197   899A      0.916473   900A      0.918420  
     901A      0.920709   902A      0.921966   903A      0.922399  
     904A      0.922645   905A      0.925518   906A      0.925924  
     907A      0.926176   908A      0.927916   909A      0.928467  
     910A      0.932509   911A      0.933287   912A      0.935529  
     913A      0.938487   914A      0.940266   915A      0.941952  
     916A      0.943437   917A      0.943628   918A      0.943855  
     919A      0.945042   920A      0.945516   921A      0.947241  
     922A      0.948007   923A      0.951576   924A      0.952804  
     925A      0.955289   926A      0.956204   927A      0.957355  
     928A      0.960443   929A      0.964452   930A      0.969921  
     931A      0.970679   932A      0.971107   933A      0.971462  
     934A      0.971789   935A      0.971992   936A      0.972556  
     937A      0.972674   938A      0.974178   939A      0.979097  
     940A      0.979496   941A      0.981844   942A      0.983504  
     943A      0.983622   944A      0.983990   945A      0.988137  
     946A      0.988524   947A      0.991168   948A      0.991971  
     949A      0.995297   950A      0.999161   951A      0.999752  
     952A      1.000183   953A      1.000650   954A      1.001377  
     955A      1.001885   956A      1.002015   957A      1.004046  
     958A      1.006598   959A      1.006862   960A      1.007050  
     961A      1.007108   962A      1.013693   963A      1.015088  
     964A      1.017310   965A      1.018240   966A      1.018753  
     967A      1.022839   968A      1.026047   969A      1.032807  
     970A      1.033521   971A      1.034457   972A      1.035229  
     973A      1.042858   974A      1.043325   975A      1.044509  
     976A      1.044547   977A      1.050408   978A      1.053502  
     979A      1.053665   980A      1.055418   981A      1.055734  
     982A      1.056295   983A      1.056840   984A      1.056965  
     985A      1.064813   986A      1.064830   987A      1.066850  
     988A      1.069434   989A      1.069542   990A      1.072054  
     991A      1.072530   992A      1.072610   993A      1.080303  
     994A      1.081837   995A      1.082152   996A      1.082430  
     997A      1.087215   998A      1.087438   999A      1.093791  
    1000A      1.096192  1001A      1.096363  1002A      1.097581  
    1003A      1.098286  1004A      1.098940  1005A      1.099918  
    1006A      1.100700  1007A      1.100812  1008A      1.101878  
    1009A      1.104265  1010A      1.104606  1011A      1.108578  
    1012A      1.108620  1013A      1.111632  1014A      1.112035  
    1015A      1.112282  1016A      1.114397  1017A      1.116024  
    1018A      1.119660  1019A      1.119930  1020A      1.120211  
    1021A      1.120357  1022A      1.121696  1023A      1.122170  
    1024A      1.122290  1025A      1.124064  1026A      1.124499  
    1027A      1.124752  1028A      1.125142  1029A      1.125584  
    1030A      1.125973  1031A      1.126375  1032A      1.127028  
    1033A      1.128758  1034A      1.128884  1035A      1.129888  
    1036A      1.130894  1037A      1.131765  1038A      1.132391  
    1039A      1.132883  1040A      1.133293  1041A      1.133755  
    1042A      1.134135  1043A      1.134571  1044A      1.135257  
    1045A      1.135718  1046A      1.136516  1047A      1.136881  
    1048A      1.136915  1049A      1.138852  1050A      1.139813  
    1051A      1.139942  1052A      1.147373  1053A      1.148488  
    1054A      1.148884  1055A      1.149307  1056A      1.150143  
    1057A      1.150789  1058A      1.153359  1059A      1.153429  
    1060A      1.154443  1061A      1.154757  1062A      1.155394  
    1063A      1.162230  1064A      1.162473  1065A      1.163500  
    1066A      1.166734  1067A      1.174260  1068A      1.174463  
    1069A      1.175650  1070A      1.176125  1071A      1.181817  
    1072A      1.182551  1073A      1.182573  1074A      1.184339  
    1075A      1.184925  1076A      1.186076  1077A      1.188097  
    1078A      1.190426  1079A      1.190773  1080A      1.193468  
    1081A      1.194104  1082A      1.196248  1083A      1.198170  
    1084A      1.200837  1085A      1.201824  1086A      1.203203  
    1087A      1.203323  1088A      1.204788  1089A      1.206252  
    1090A      1.208938  1091A      1.209046  1092A      1.214007  
    1093A      1.217351  1094A      1.218300  1095A      1.220919  
    1096A      1.222774  1097A      1.223523  1098A      1.228767  
    1099A      1.229022  1100A      1.233336  1101A      1.236920  
    1102A      1.238878  1103A      1.239880  1104A      1.240663  
    1105A      1.240757  1106A      1.245300  1107A      1.246309  
    1108A      1.254778  1109A      1.255160  1110A      1.255322  
    1111A      1.255922  1112A      1.256125  1113A      1.262357  
    1114A      1.262849  1115A      1.264315  1116A      1.265049  
    1117A      1.265578  1118A      1.268360  1119A      1.269678  
    1120A      1.270261  1121A      1.270605  1122A      1.274115  
    1123A      1.276771  1124A      1.285140  1125A      1.285905  
    1126A      1.297808  1127A      1.302170  1128A      1.302639  
    1129A      1.302861  1130A      1.303893  1131A      1.304109  
    1132A      1.310299  1133A      1.312772  1134A      1.313008  
    1135A      1.316083  1136A      1.318674  1137A      1.319331  
    1138A      1.320726  1139A      1.320791  1140A      1.330432  
    1141A      1.333411  1142A      1.333517  1143A      1.339355  
    1144A      1.341645  1145A      1.342282  1146A      1.344881  
    1147A      1.344945  1148A      1.346136  1149A      1.346402  
    1150A      1.347975  1151A      1.348439  1152A      1.352128  
    1153A      1.354390  1154A      1.354966  1155A      1.355418  
    1156A      1.361387  1157A      1.362755  1158A      1.363157  
    1159A      1.365265  1160A      1.367859  1161A      1.368678  
    1162A      1.368873  1163A      1.370333  1164A      1.371654  
    1165A      1.372524  1166A      1.377138  1167A      1.377200  
    1168A      1.380596  1169A      1.380653  1170A      1.384020  
    1171A      1.385549  1172A      1.385587  1173A      1.389282  
    1174A      1.392052  1175A      1.392250  1176A      1.399837  
    1177A      1.400064  1178A      1.401693  1179A      1.407904  
    1180A      1.408092  1181A      1.409650  1182A      1.410078  
    1183A      1.411722  1184A      1.412358  1185A      1.414045  
    1186A      1.414238  1187A      1.420281  1188A      1.421524  
    1189A      1.423181  1190A      1.425998  1191A      1.426277  
    1192A      1.427982  1193A      1.438782  1194A      1.439042  
    1195A      1.439921  1196A      1.443659  1197A      1.444009  
    1198A      1.445820  1199A      1.446212  1200A      1.456039  
    1201A      1.458067  1202A      1.458691  1203A      1.458942  
    1204A      1.459926  1205A      1.460116  1206A      1.460925  
    1207A      1.462512  1208A      1.466024  1209A      1.466822  
    1210A      1.471434  1211A      1.471875  1212A      1.474831  
    1213A      1.475243  1214A      1.478440  1215A      1.479352  
    1216A      1.479500  1217A      1.479593  1218A      1.484043  
    1219A      1.485008  1220A      1.485567  1221A      1.486884  
    1222A      1.486971  1223A      1.491705  1224A      1.491853  
    1225A      1.494329  1226A      1.502157  1227A      1.502392  
    1228A      1.503486  1229A      1.503599  1230A      1.503948  
    1231A      1.504229  1232A      1.504402  1233A      1.517897  
    1234A      1.519369  1235A      1.520345  1236A      1.521553  
    1237A      1.522039  1238A      1.523546  1239A      1.524345  
    1240A      1.531181  1241A      1.535231  1242A      1.535515  
    1243A      1.536311  1244A      1.543740  1245A      1.550000  
    1246A      1.550092  1247A      1.554312  1248A      1.554994  
    1249A      1.557469  1250A      1.557813  1251A      1.568720  
    1252A      1.569450  1253A      1.589540  1254A      1.589837  
    1255A      1.591862  1256A      1.595554  1257A      1.606083  
    1258A      1.606141  1259A      1.636953  1260A      1.637577  
    1261A      1.637710  1262A      1.642383  1263A      1.646852  
    1264A      1.650893  1265A      1.653812  1266A      1.656580  
    1267A      1.659092  1268A      1.659543  1269A      1.659965  
    1270A      1.660647  1271A      1.661220  1272A      1.662967  
    1273A      1.663950  1274A      1.666448  1275A      1.668149  
    1276A      1.668833  1277A      1.668909  1278A      1.671319  
    1279A      1.672104  1280A      1.672306  1281A      1.673934  
    1282A      1.675130  1283A      1.675681  1284A      1.678700  
    1285A      1.678908  1286A      1.679355  1287A      1.683855  
    1288A      1.684430  1289A      1.687410  1290A      1.687797  
    1291A      1.688103  1292A      1.688877  1293A      1.689965  
    1294A      1.690886  1295A      1.691616  1296A      1.692897  
    1297A      1.693105  1298A      1.693250  1299A      1.695547  
    1300A      1.698529  1301A      1.702504  1302A      1.702763  
    1303A      1.706922  1304A      1.707209  1305A      1.707403  
    1306A      1.707533  1307A      1.716761  1308A      1.717376  
    1309A      1.721181  1310A      1.721274  1311A      1.721446  
    1312A      1.721601  1313A      1.721933  1314A      1.724651  
    1315A      1.727076  1316A      1.728074  1317A      1.730531  
    1318A      1.731056  1319A      1.738902  1320A      1.740442  
    1321A      1.744887  1322A      1.746337  1323A      1.748463  
    1324A      1.748604  1325A      1.749457  1326A      1.751295  
    1327A      1.759691  1328A      1.759783  1329A      1.761944  
    1330A      1.766472  1331A      1.766528  1332A      1.766932  
    1333A      1.770200  1334A      1.772036  1335A      1.775295  
    1336A      1.775928  1337A      1.776213  1338A      1.776261  
    1339A      1.783477  1340A      1.788962  1341A      1.798571  
    1342A      1.799490  1343A      1.799894  1344A      1.800102  
    1345A      1.800924  1346A      1.815627  1347A      1.817296  
    1348A      1.819042  1349A      1.831581  1350A      1.834368  
    1351A      1.836160  1352A      1.836846  1353A      1.856357  
    1354A      1.856557  1355A      1.860869  1356A      1.868313  
    1357A      1.874373  1358A      1.875807  1359A      1.877582  
    1360A      1.877762  1361A      1.878006  1362A      1.879528  
    1363A      1.883491  1364A      1.883859  1365A      1.884360  
    1366A      1.888741  1367A      1.889240  1368A      1.889632  
    1369A      1.890619  1370A      1.898081  1371A      1.899240  
    1372A      1.905569  1373A      1.905652  1374A      1.911608  
    1375A      1.912019  1376A      1.915355  1377A      1.915540  
    1378A      1.917027  1379A      1.917303  1380A      1.921177  
    1381A      1.921946  1382A      1.922421  1383A      1.922594  
    1384A      1.924577  1385A      1.930844  1386A      1.931294  
    1387A      1.932196  1388A      1.934294  1389A      1.935139  
    1390A      1.935703  1391A      1.936654  1392A      1.938140  
    1393A      1.941584  1394A      1.942507  1395A      1.943334  
    1396A      1.943677  1397A      1.954241  1398A      1.954458  
    1399A      1.955257  1400A      1.955653  1401A      1.961792  
    1402A      1.962973  1403A      1.968040  1404A      1.969086  
    1405A      1.973395  1406A      1.975064  1407A      1.975193  
    1408A      1.977464  1409A      1.978244  1410A      1.978445  
    1411A      1.985831  1412A      1.986704  1413A      1.986911  
    1414A      1.988047  1415A      1.989454  1416A      1.990268  
    1417A      1.992590  1418A      1.994823  1419A      1.995010  
    1420A      1.996505  1421A      1.996866  1422A      2.001424  
    1423A      2.002526  1424A      2.003081  1425A      2.005081  
    1426A      2.005894  1427A      2.009344  1428A      2.010544  
    1429A      2.010906  1430A      2.011441  1431A      2.012001  
    1432A      2.014839  1433A      2.017576  1434A      2.020582  
    1435A      2.021268  1436A      2.022045  1437A      2.023043  
    1438A      2.026159  1439A      2.028059  1440A      2.034106  
    1441A      2.034535  1442A      2.037856  1443A      2.039934  
    1444A      2.040625  1445A      2.040668  1446A      2.042961  
    1447A      2.044232  1448A      2.046370  1449A      2.046659  
    1450A      2.047003  1451A      2.055552  1452A      2.058376  
    1453A      2.062690  1454A      2.063987  1455A      2.064389  
    1456A      2.067329  1457A      2.067450  1458A      2.069024  
    1459A      2.069762  1460A      2.071565  1461A      2.072162  
    1462A      2.073460  1463A      2.074068  1464A      2.074745  
    1465A      2.080417  1466A      2.082370  1467A      2.084367  
    1468A      2.084941  1469A      2.086946  1470A      2.088557  
    1471A      2.090143  1472A      2.091234  1473A      2.099489  
    1474A      2.100887  1475A      2.103691  1476A      2.105514  
    1477A      2.107807  1478A      2.108641  1479A      2.110884  
    1480A      2.111360  1481A      2.112378  1482A      2.112475  
    1483A      2.118641  1484A      2.119669  1485A      2.121033  
    1486A      2.121197  1487A      2.125287  1488A      2.128063  
    1489A      2.129284  1490A      2.129990  1491A      2.130874  
    1492A      2.132024  1493A      2.133370  1494A      2.133516  
    1495A      2.134678  1496A      2.134978  1497A      2.136611  
    1498A      2.138811  1499A      2.139742  1500A      2.139961  
    1501A      2.140146  1502A      2.140302  1503A      2.140795  
    1504A      2.141396  1505A      2.144523  1506A      2.144835  
    1507A      2.145360  1508A      2.149516  1509A      2.149743  
    1510A      2.150939  1511A      2.151657  1512A      2.151917  
    1513A      2.153460  1514A      2.154209  1515A      2.158150  
    1516A      2.159796  1517A      2.163276  1518A      2.163989  
    1519A      2.164187  1520A      2.164627  1521A      2.165057  
    1522A      2.166619  1523A      2.167998  1524A      2.169470  
    1525A      2.171544  1526A      2.177353  1527A      2.177753  
    1528A      2.178230  1529A      2.179227  1530A      2.179552  
    1531A      2.179858  1532A      2.182832  1533A      2.182970  
    1534A      2.187057  1535A      2.187208  1536A      2.190621  
    1537A      2.193560  1538A      2.193834  1539A      2.194235  
    1540A      2.194865  1541A      2.195527  1542A      2.198183  
    1543A      2.206177  1544A      2.206961  1545A      2.209710  
    1546A      2.209912  1547A      2.211061  1548A      2.211242  
    1549A      2.211647  1550A      2.211760  1551A      2.212623  
    1552A      2.213296  1553A      2.222480  1554A      2.222818  
    1555A      2.231355  1556A      2.231751  1557A      2.232452  
    1558A      2.233382  1559A      2.239911  1560A      2.240743  
    1561A      2.242963  1562A      2.244623  1563A      2.245458  
    1564A      2.247777  1565A      2.249675  1566A      2.250394  
    1567A      2.251744  1568A      2.252648  1569A      2.253720  
    1570A      2.254165  1571A      2.254867  1572A      2.255542  
    1573A      2.256471  1574A      2.260716  1575A      2.265063  
    1576A      2.265450  1577A      2.272113  1578A      2.272301  
    1579A      2.273138  1580A      2.274287  1581A      2.277204  
    1582A      2.277408  1583A      2.280115  1584A      2.281126  
    1585A      2.282794  1586A      2.283346  1587A      2.291233  
    1588A      2.291595  1589A      2.292220  1590A      2.293902  
    1591A      2.297560  1592A      2.298063  1593A      2.301380  
    1594A      2.302256  1595A      2.309625  1596A      2.310877  
    1597A      2.313636  1598A      2.314961  1599A      2.316965  
    1600A      2.318735  1601A      2.327534  1602A      2.333785  
    1603A      2.335377  1604A      2.340734  1605A      2.341208  
    1606A      2.346486  1607A      2.349161  1608A      2.354506  
    1609A      2.354904  1610A      2.360160  1611A      2.368767  
    1612A      2.376005  1613A      2.376392  1614A      2.376877  
    1615A      2.378599  1616A      2.380744  1617A      2.381352  
    1618A      2.382895  1619A      2.385315  1620A      2.386444  
    1621A      2.386982  1622A      2.391528  1623A      2.393238  
    1624A      2.393773  1625A      2.393940  1626A      2.396414  
    1627A      2.397139  1628A      2.397417  1629A      2.402432  
    1630A      2.402667  1631A      2.421771  1632A      2.425932  
    1633A      2.426499  1634A      2.434363  1635A      2.439347  
    1636A      2.442833  1637A      2.443870  1638A      2.445158  
    1639A      2.449433  1640A      2.469498  1641A      2.470839  
    1642A      2.475322  1643A      2.478666  1644A      2.484458  
    1645A      2.492931  1646A      2.494869  1647A      2.504073  
    1648A      2.505021  1649A      2.515344  1650A      2.515439  
    1651A      2.518788  1652A      2.519117  1653A      2.522781  
    1654A      2.523061  1655A      2.541258  1656A      2.541630  
    1657A      2.546920  1658A      2.552174  1659A      2.556306  
    1660A      2.557100  1661A      2.561513  1662A      2.566905  
    1663A      2.590709  1664A      2.590752  1665A      2.590981  
    1666A      2.592853  1667A      2.593633  1668A      2.596843  
    1669A      2.597603  1670A      2.599132  1671A      2.600497  
    1672A      2.602222  1673A      2.609252  1674A      2.609437  
    1675A      2.615748  1676A      2.621266  1677A      2.622218  
    1678A      2.629512  1679A      2.632950  1680A      2.633403  
    1681A      2.636014  1682A      2.637064  1683A      2.637805  
    1684A      2.638067  1685A      2.642506  1686A      2.644280  
    1687A      2.652028  1688A      2.652210  1689A      2.663575  
    1690A      2.663729  1691A      2.664031  1692A      2.664606  
    1693A      2.667425  1694A      2.668344  1695A      2.684015  
    1696A      2.691886  1697A      2.692666  1698A      2.694859  
    1699A      2.696946  1700A      2.697910  1701A      2.700164  
    1702A      2.701071  1703A      2.702731  1704A      2.706087  
    1705A      2.706481  1706A      2.717539  1707A      2.717973  
    1708A      2.718844  1709A      2.720314  1710A      2.720517  
    1711A      2.726117  1712A      2.727333  1713A      2.727481  
    1714A      2.735494  1715A      2.737273  1716A      2.738677  
    1717A      2.742234  1718A      2.742757  1719A      2.743165  
    1720A      2.743715  1721A      2.747590  1722A      2.748740  
    1723A      2.756031  1724A      2.771084  1725A      2.780875  
    1726A      2.781248  1727A      2.781875  1728A      2.782119  
    1729A      2.782210  1730A      2.803829  1731A      2.813264  
    1732A      2.813854  1733A      2.826373  1734A      2.828929  
    1735A      2.832034  1736A      2.832325  1737A      2.851725  
    1738A      2.852274  1739A      2.854375  1740A      2.854515  
    1741A      2.854676  1742A      2.861560  1743A      2.864288  
    1744A      2.866840  1745A      2.867233  1746A      2.867648  
    1747A      2.869617  1748A      2.880922  1749A      2.881159  
    1750A      2.892001  1751A      2.892699  1752A      2.893358  
    1753A      2.893535  1754A      2.897300  1755A      2.913276  
    1756A      2.917015  1757A      2.917529  1758A      2.921078  
    1759A      2.922283  1760A      2.925812  1761A      2.949595  
    1762A      2.949847  1763A      2.950455  1764A      2.950572  
    1765A      2.966125  1766A      2.967596  1767A      2.967697  
    1768A      2.969631  1769A      2.977215  1770A      2.979821  
    1771A      2.985265  1772A      2.985282  1773A      3.013905  
    1774A      3.015053  1775A      3.015560  1776A      3.026666  
    1777A      3.042564  1778A      3.043299  1779A      3.080453  
    1780A      3.081303  1781A      3.085577  1782A      3.088831  
    1783A      3.097983  1784A      3.098506  1785A      3.099107  
    1786A      3.109356  1787A      3.109423  1788A      3.111978  
    1789A      3.124239  1790A      3.158281  1791A      3.162875  
    1792A      3.163175  1793A      3.173572  1794A      3.178685  
    1795A      3.179170  1796A      3.183696  1797A      3.185357  
    1798A      3.192252  1799A      3.193127  1800A      3.199448  
    1801A      3.199761  1802A      3.200236  1803A      3.200725  
    1804A      3.203453  1805A      3.211808  1806A      3.220508  
    1807A      3.223103  1808A      3.224895  1809A      3.225214  
    1810A      3.243180  1811A      3.243820  1812A      3.269743  
    1813A      3.273305  1814A      3.303726  1815A      3.309128  
    1816A      3.312405  1817A      3.312901  1818A      3.313520  
    1819A      3.315430  1820A      3.319026  1821A      3.322110  
    1822A      3.325542  1823A      3.326274  1824A      3.343934  
    1825A      3.345552  1826A      3.346934  1827A      3.353662  
    1828A      3.413551  1829A      3.414441  1830A      3.422261  
    1831A      3.468352  1832A      3.482041  1833A      3.485274  
    1834A      3.492574  1835A      3.499262  1836A      3.502446  
    1837A      3.514432  1838A      3.516976  1839A      3.518558  
    1840A      3.523634  1841A      3.526642  1842A      3.533771  
    1843A      3.537941  1844A      3.546622  1845A      3.561762  
    1846A      3.592352  1847A      3.626670  1848A      3.628414  
    1849A      3.634798  1850A      3.641351  1851A      3.688031  
    1852A      3.691287  1853A      3.716504  1854A      3.718576  
    1855A      3.757301  1856A      3.800041  1857A      3.800593  
    1858A      3.802479  1859A      3.816413  1860A      3.829604  
    1861A      3.832590  1862A      3.892958  1863A      3.894730  
    1864A      3.922835  1865A      3.926039  1866A      3.956306  
    1867A      3.964943  1868A      3.991298  1869A      3.993649  
    1870A      3.999860  1871A      4.000798  1872A      4.010910  
    1873A      4.018461  1874A      4.024064  1875A      4.077548  
    1876A      4.080544  1877A      4.124607  1878A      4.174484  
    1879A      4.174712  1880A      4.174772  1881A      4.202308  
    1882A      4.202330  1883A      4.202957  1884A      4.203168  
    1885A      4.203256  1886A      4.235165  1887A      4.235205  
    1888A      4.240157  1889A      4.283795  1890A      4.356798  
    1891A      4.448074  1892A      4.449747  1893A      4.449976  
    1894A      4.450240  1895A      4.650725  1896A      4.650948  
    1897A      4.651057  1898A      4.751146  1899A      4.786712  
    1900A      4.787076  

    Final Occupation by Irrep:
              A 
    DOCC [   321 ]
    NA   [   321 ]
    NB   [   321 ]

  @DF-RHF Final Energy: -4073.10403725461128

   => Energetics <=

    Nuclear Repulsion Energy =          17174.7309395181036962
    One-Electron Energy =              -39829.8720483842043905
    Two-Electron Energy =               18582.0370716114884999
    Total Energy =                      -4073.1040372546121944

Computation Completed


Properties will be evaluated at   0.000000,   0.000000,   0.000000 [a0]

Properties computed using the SCF density matrix


 Multipole Moments:

 ------------------------------------------------------------------------------------
     Multipole            Electronic (a.u.)      Nuclear  (a.u.)        Total (a.u.)
 ------------------------------------------------------------------------------------

 L = 1.  Multiply by 2.5417464519 to convert [e a0] to [Debye]
 Dipole X            :         -0.0007693           -0.0000548           -0.0008241
 Dipole Y            :          0.0009298           -0.0002464            0.0006834
 Dipole Z            :        -31.1195013           42.8478129           11.7283116
 Magnitude           :                                                   11.7283117

 ------------------------------------------------------------------------------------

*** tstop() called on n2cn0902 at Sat Jan 27 14:28:15 2024
Module time:
	user time   =   24580.58 seconds =     409.68 minutes
	system time =    1380.66 seconds =      23.01 minutes
	total time  =      13590 seconds =     226.50 minutes
Total time:
	user time   =   24580.58 seconds =     409.68 minutes
	system time =    1380.66 seconds =      23.01 minutes
	total time  =      13590 seconds =     226.50 minutes

  //>>>>>>>>>>>>>>>>>>>>>>>>>>>>>>>>>>>//
  //            Monomer A HF           //
  //<<<<<<<<<<<<<<<<<<<<<<<<<<<<<<<<<<<//

   => Libint2 <=

    Primary   basis highest AM E, G, H:  5, 4, 3
    Auxiliary basis highest AM E, G, H:  6, 5, 4
    Onebody   basis highest AM E, G, H:  6, 5, 4
    Solid Harmonics ordering:            gaussian

*** tstart() called on n2cn0902
*** at Sat Jan 27 14:28:15 2024

   => Loading Basis Set <=

    Name: JUN-CC-PVDZ
    Role: ORBITAL
    Keyword: BASIS
    atoms 1                                                   entry B          line   130 file /opt/software/pc2/EB-SW/software/PSI4/1.9-foss-2022a/share/psi4/basis/jun-cc-pvdz.gbs 
    atoms 2-5                                                 entry F          line   266 file /opt/software/pc2/EB-SW/software/PSI4/1.9-foss-2022a/share/psi4/basis/jun-cc-pvdz.gbs 
    atoms 6-23, 30-42, 45-59, 62-78, 81-93, 98-108, 111-119   entry C          line   164 file /opt/software/pc2/EB-SW/software/PSI4/1.9-foss-2022a/share/psi4/basis/jun-cc-pvdz.gbs 
    atoms 24-29, 43-44, 60-61, 79-80, 94-97, 109-110, 120-125 entry H          line    36 file /opt/software/pc2/EB-SW/software/PSI4/1.9-foss-2022a/share/psi4/basis/jun-cc-pvdz.gbs 


         ---------------------------------------------------------
                                   SCF
               by Justin Turney, Rob Parrish, Andy Simmonett
                          and Daniel G. A. Smith
                              RHF Reference
                       16 Threads,  61035 MiB Core
         ---------------------------------------------------------

  ==> Geometry <==

    Molecular point group: c1
    Full point group: C1

    Geometry (in Angstrom), charge = -1, multiplicity = 1:

       Center              X                  Y                   Z               Mass       
    ------------   -----------------  -----------------  -----------------  -----------------
         B           -0.000201921932     0.000288800891    -6.704065388158    11.009305360000
         F           -0.000004162732     0.000014527991    -5.291280388158    18.998403162730
         F            1.147855837268     0.675795727991    -7.175206388158    18.998403162730
         F            0.011913897268    -1.331996472009    -7.175004388158    18.998403162730
         F           -1.159670162732     0.656088027991    -7.174925388158    18.998403162730
      Gh(C)          -3.668445426752     7.803766698073     0.497800653177    12.000000000000
      Gh(C)          -4.847602882078     7.131256359331     0.495434078245    12.000000000000
      Gh(C)          -4.894963461907     5.696344931522     0.494861167147    12.000000000000
      Gh(C)          -3.653744841505     4.980744868950     0.502521608876    12.000000000000
      Gh(C)          -2.409429284226     7.113995564665     0.497994995437    12.000000000000
      Gh(C)          -2.425481506836     5.681136478894     0.490990106567    12.000000000000
      Gh(C)          -1.194748179167     7.786158722300     0.499467175979    12.000000000000
      Gh(C)           0.037954866205     7.099436173748     0.497296471674    12.000000000000
      Gh(C)           0.030328424687     5.669504087695     0.491813086759    12.000000000000
      Gh(C)          -1.200988670637     4.969284875906     0.500782820692    12.000000000000
      Gh(C)           1.277953663083     7.772873971185     0.498672320235    12.000000000000
      Gh(C)           2.485353921992     7.087711413228     0.496397832330    12.000000000000
      Gh(C)           2.486124522185     5.654785338231     0.489460083343    12.000000000000
      Gh(C)           1.254078756912     4.956092641655     0.501088024931    12.000000000000
      Gh(C)           3.751710428674     7.763926678971     0.496524683711    12.000000000000
      Gh(C)           4.923561893453     7.078795304981     0.494468203003    12.000000000000
      Gh(C)           4.955603108594     5.643461991360     0.494307790196    12.000000000000
      Gh(C)           3.706797371473     4.941224736324     0.499399350365    12.000000000000
      Gh(H)          -3.658525300490     8.890841947126     0.499485641427     1.007825032230
      Gh(H)          -1.189217492488     8.874135615351     0.503439052421     1.007825032230
      Gh(H)           1.284290076155     8.860847963479     0.502831144376     1.007825032230
      Gh(H)           3.753537924068     8.851049806963     0.498047208026     1.007825032230
      Gh(H)           5.869954540475     7.613809362646     0.493542835960     1.007825032230
      Gh(H)          -5.788235870234     7.676316740925     0.493874230889     1.007825032230
[...]
    1498A      2.111469  1499A      2.111685  1500A      2.111860  
    1501A      2.112960  1502A      2.114603  1503A      2.116641  
    1504A      2.117772  1505A      2.119695  1506A      2.126008  
    1507A      2.126529  1508A      2.126817  1509A      2.127030  
    1510A      2.127514  1511A      2.127543  1512A      2.129246  
    1513A      2.130686  1514A      2.134625  1515A      2.135088  
    1516A      2.137262  1517A      2.137981  1518A      2.142939  
    1519A      2.143068  1520A      2.143136  1521A      2.143840  
    1522A      2.144261  1523A      2.154298  1524A      2.154883  
    1525A      2.157187  1526A      2.157584  1527A      2.158663  
    1528A      2.159322  1529A      2.159768  1530A      2.159977  
    1531A      2.162439  1532A      2.162791  1533A      2.171135  
    1534A      2.171424  1535A      2.179866  1536A      2.180815  
    1537A      2.181172  1538A      2.182260  1539A      2.188218  
    1540A      2.188826  1541A      2.190706  1542A      2.191488  
    1543A      2.192545  1544A      2.194953  1545A      2.197065  
    1546A      2.197995  1547A      2.200182  1548A      2.200491  
    1549A      2.200728  1550A      2.201352  1551A      2.202974  
    1552A      2.204107  1553A      2.205502  1554A      2.209120  
    1555A      2.213606  1556A      2.213891  1557A      2.220132  
    1558A      2.222142  1559A      2.222683  1560A      2.224146  
    1561A      2.224725  1562A      2.224770  1563A      2.228766  
    1564A      2.231987  1565A      2.232276  1566A      2.233086  
    1567A      2.238647  1568A      2.238805  1569A      2.239385  
    1570A      2.241329  1571A      2.247455  1572A      2.247948  
    1573A      2.248322  1574A      2.248962  1575A      2.260301  
    1576A      2.261462  1577A      2.263361  1578A      2.264857  
    1579A      2.266492  1580A      2.269505  1581A      2.275175  
    1582A      2.282788  1583A      2.284229  1584A      2.290320  
    1585A      2.290973  1586A      2.296251  1587A      2.296741  
    1588A      2.303703  1589A      2.304110  1590A      2.309041  
    1591A      2.314949  1592A      2.324418  1593A      2.324874  
    1594A      2.325162  1595A      2.327077  1596A      2.329360  
    1597A      2.330530  1598A      2.331066  1599A      2.332936  
    1600A      2.334237  1601A      2.334987  1602A      2.339602  
    1603A      2.341344  1604A      2.342123  1605A      2.342298  
    1606A      2.344755  1607A      2.345778  1608A      2.346275  
    1609A      2.349035  1610A      2.349387  1611A      2.367949  
    1612A      2.372175  1613A      2.372843  1614A      2.383560  
    1615A      2.387913  1616A      2.390257  1617A      2.391542  
    1618A      2.392588  1619A      2.396903  1620A      2.418285  
    1621A      2.419458  1622A      2.423510  1623A      2.427502  
    1624A      2.431955  1625A      2.441539  1626A      2.443475  
    1627A      2.451916  1628A      2.453050  1629A      2.464265  
    1630A      2.464307  1631A      2.467695  1632A      2.467970  
    1633A      2.471891  1634A      2.472149  1635A      2.490933  
    1636A      2.491318  1637A      2.494790  1638A      2.501636  
    1639A      2.505955  1640A      2.506920  1641A      2.511425  
    1642A      2.516144  1643A      2.539079  1644A      2.539147  
    1645A      2.539945  1646A      2.541835  1647A      2.542627  
    1648A      2.544745  1649A      2.547496  1650A      2.548415  
    1651A      2.549108  1652A      2.551108  1653A      2.556501  
    1654A      2.556657  1655A      2.564178  1656A      2.571104  
    1657A      2.571440  1658A      2.579943  1659A      2.583634  
    1660A      2.584105  1661A      2.585073  1662A      2.586222  
    1663A      2.588440  1664A      2.588681  1665A      2.593185  
    1666A      2.593472  1667A      2.601270  1668A      2.601406  
    1669A      2.612618  1670A      2.612857  1671A      2.613189  
    1672A      2.613629  1673A      2.616402  1674A      2.617321  
    1675A      2.632507  1676A      2.640522  1677A      2.641461  
    1678A      2.643631  1679A      2.645363  1680A      2.647295  
    1681A      2.648578  1682A      2.649187  1683A      2.652710  
    1684A      2.655657  1685A      2.656025  1686A      2.665956  
    1687A      2.666039  1688A      2.667533  1689A      2.670315  
    1690A      2.670529  1691A      2.673537  1692A      2.677105  
    1693A      2.677525  1694A      2.684194  1695A      2.685501  
    1696A      2.687022  1697A      2.691025  1698A      2.691195  
    1699A      2.691521  1700A      2.692317  1701A      2.696017  
    1702A      2.697244  1703A      2.703929  1704A      2.720572  
    1705A      2.730658  1706A      2.730785  1707A      2.730920  
    1708A      2.731166  1709A      2.731848  1710A      2.752684  
    1711A      2.760082  1712A      2.760660  1713A      2.772822  
    1714A      2.775818  1715A      2.779798  1716A      2.780290  
    1717A      2.799009  1718A      2.799838  1719A      2.801368  
    1720A      2.802148  1721A      2.802196  1722A      2.807902  
    1723A      2.809829  1724A      2.810910  1725A      2.811882  
    1726A      2.813886  1727A      2.814659  1728A      2.815499  
    1729A      2.815790  1730A      2.815964  1731A      2.827932  
    1732A      2.828150  1733A      2.840098  1734A      2.840750  
    1735A      2.841511  1736A      2.841660  1737A      2.845670  
    1738A      2.861481  1739A      2.864872  1740A      2.865323  
    1741A      2.869776  1742A      2.870964  1743A      2.874069  
    1744A      2.895878  1745A      2.896764  1746A      2.912369  
    1747A      2.917622  1748A      2.917733  1749A      2.927391  
    1750A      2.929622  1751A      2.934709  1752A      2.934742  
    1753A      2.962958  1754A      2.964740  1755A      2.965264  
    1756A      2.976070  1757A      2.991670  1758A      2.992414  
    1759A      3.029105  1760A      3.029858  1761A      3.035285  
    1762A      3.038494  1763A      3.046733  1764A      3.047390  
    1765A      3.047947  1766A      3.057453  1767A      3.057496  
    1768A      3.063205  1769A      3.072805  1770A      3.108355  
    1771A      3.112711  1772A      3.112997  1773A      3.122416  
    1774A      3.126990  1775A      3.127621  1776A      3.132381  
    1777A      3.133987  1778A      3.141838  1779A      3.142859  
    1780A      3.148029  1781A      3.148563  1782A      3.149400  
    1783A      3.149994  1784A      3.153492  1785A      3.162056  
    1786A      3.167692  1787A      3.173102  1788A      3.174789  
    1789A      3.175111  1790A      3.193009  1791A      3.193694  
    1792A      3.219988  1793A      3.252812  1794A      3.259358  
    1795A      3.260750  1796A      3.261326  1797A      3.261963  
    1798A      3.264215  1799A      3.268067  1800A      3.271152  
    1801A      3.274524  1802A      3.275267  1803A      3.292498  
    1804A      3.293859  1805A      3.295077  1806A      3.302370  
    1807A      3.361083  1808A      3.362017  1809A      3.369575  
    1810A      3.415677  1811A      3.429568  1812A      3.432002  
    1813A      3.436860  1814A      3.445363  1815A      3.448493  
    1816A      3.460719  1817A      3.464402  1818A      3.465249  
    1819A      3.470908  1820A      3.473858  1821A      3.480907  
    1822A      3.484317  1823A      3.493409  1824A      3.509069  
    1825A      3.538978  1826A      3.574240  1827A      3.575923  
    1828A      3.582313  1829A      3.589912  1830A      3.635276  
    1831A      3.638482  1832A      3.664464  1833A      3.666637  
    1834A      3.704900  1835A      3.747183  1836A      3.749162  
    1837A      3.750398  1838A      3.762999  1839A      3.778557  
    1840A      3.778895  1841A      3.841811  1842A      3.843128  
    1843A      3.871412  1844A      3.874555  1845A      3.904544  
    1846A      3.912874  1847A      3.937743  1848A      3.939750  
    1849A      3.948207  1850A      3.949141  1851A      3.958394  
    1852A      3.964575  1853A      3.970715  1854A      4.024597  
    1855A      4.027403  1856A      4.070673  1857A      4.184464  
    1858A      4.184927  1859A      4.203369  1860A      4.228819  
    1861A      4.301256  1862A      4.325025  1863A      4.392826  
    1864A      5.747497  1865A      5.748380  1866A      5.748393  
    1867A      5.752099  1868A      5.752114  1869A      5.757364  
    1870A      5.759057  1871A      5.759060  1872A      5.778039  
    1873A      5.778085  1874A      5.782681  1875A      6.018644  
    1876A      6.019403  1877A      6.019747  1878A      6.192076  
    1879A      6.325821  1880A      6.326146  1881A      6.372766  
    1882A      6.373122  1883A      6.374474  1884A      7.148652  
    1885A      7.149661  1886A      7.224150  1887A      7.224256  
    1888A      7.226515  1889A      7.238428  1890A      7.255249  
    1891A      7.255533  1892A      7.453706  1893A      7.453942  
    1894A      7.470896  1895A      7.588936  1896A     12.595285  
    1897A     42.907072  1898A     42.907186  1899A     42.912353  
    1900A     42.936869  

    Final Occupation by Irrep:
              A 
    DOCC [   300 ]
    NA   [   300 ]
    NB   [   300 ]

  @DF-RHF Final Energy: -3650.33757871121998

   => Energetics <=

    Nuclear Repulsion Energy =          15611.4211649754324753
    One-Electron Energy =              -36072.0746387952676741
    Two-Electron Energy =               16810.3158951086152229
    Total Energy =                      -3650.3375787112199760

Computation Completed


Properties will be evaluated at   0.000000,   0.000000,   0.000000 [a0]

Properties computed using the SCF density matrix


 Multipole Moments:

 ------------------------------------------------------------------------------------
     Multipole            Electronic (a.u.)      Nuclear  (a.u.)        Total (a.u.)
 ------------------------------------------------------------------------------------

 L = 1.  Multiply by 2.5417464519 to convert [e a0] to [Debye]
 Dipole X            :         -0.0009305            0.0002304           -0.0007000
 Dipole Y            :          0.0010697           -0.0013052           -0.0002356
 Dipole Z            :       -562.2714727          562.2731970            0.0017243
 Magnitude           :                                                    0.0018758

 ------------------------------------------------------------------------------------

*** tstop() called on n2cn0902 at Sat Jan 27 17:21:51 2024
Module time:
	user time   =   16592.11 seconds =     276.54 minutes
	system time =     925.74 seconds =      15.43 minutes
	total time  =       6329 seconds =     105.48 minutes
Total time:
	user time   =   45360.78 seconds =     756.01 minutes
	system time =    2629.98 seconds =      43.83 minutes
	total time  =      24006 seconds =     400.10 minutes
  Constructing Basis Sets for SAPT...

   => Loading Basis Set <=

    Name: (JUN-CC-PVDZ AUX)
    Role: RIFIT
    Keyword: DF_BASIS_SAPT
    atoms 1                                                   entry B          line    56 file /opt/software/pc2/EB-SW/software/PSI4/1.9-foss-2022a/share/psi4/basis/jun-cc-pvdz-ri.gbs 
    atoms 2-5                                                 entry F          line   232 file /opt/software/pc2/EB-SW/software/PSI4/1.9-foss-2022a/share/psi4/basis/jun-cc-pvdz-ri.gbs 
    atoms 6-23, 30-42, 45-59, 62-78, 81-93, 98-108, 111-119   entry C          line   100 file /opt/software/pc2/EB-SW/software/PSI4/1.9-foss-2022a/share/psi4/basis/jun-cc-pvdz-ri.gbs 
    atoms 24-29, 43-44, 60-61, 79-80, 94-97, 109-110, 120-125 entry H          line    30 file /opt/software/pc2/EB-SW/software/PSI4/1.9-foss-2022a/share/psi4/basis/jun-cc-pvdz-ri.gbs 

   => Loading Basis Set <=

    Name: (JUN-CC-PVDZ AUX)
    Role: JKFIT
    Keyword: DF_BASIS_ELST
    atoms 1                                                   entry B          line    90 file /opt/software/pc2/EB-SW/software/PSI4/1.9-foss-2022a/share/psi4/basis/jun-cc-pvdz-jkfit.gbs 
    atoms 2-5                                                 entry F          line   314 file /opt/software/pc2/EB-SW/software/PSI4/1.9-foss-2022a/share/psi4/basis/jun-cc-pvdz-jkfit.gbs 
    atoms 6-23, 30-42, 45-59, 62-78, 81-93, 98-108, 111-119   entry C          line   146 file /opt/software/pc2/EB-SW/software/PSI4/1.9-foss-2022a/share/psi4/basis/jun-cc-pvdz-jkfit.gbs 
    atoms 24-29, 43-44, 60-61, 79-80, 94-97, 109-110, 120-125 entry H          line    70 file /opt/software/pc2/EB-SW/software/PSI4/1.9-foss-2022a/share/psi4/basis/jun-cc-pvdz-jkfit.gbs 


  //>>>>>>>>>>>>>>>>>>>>>>>>>>>>>>>>>>>//
  //               SSAPT0              //
  //<<<<<<<<<<<<<<<<<<<<<<<<<<<<<<<<<<<//


*** tstart() called on n2cn0902
*** at Sat Jan 27 17:21:53 2024

        SAPT0  
    Ed Hohenstein
     6 June 2009

      Orbital Information
  --------------------------
    NSO        =      1938
    NMO        =      1900
    NRI        =      6901
    NRI (Elst) =      8531
    NOCC A     =        21
    NOCC B     =       300
    FOCC A     =         5
    FOCC B     =        96
    NVIR A     =      1879
    NVIR B     =      1600

    Elst10,r            =     0.008078105855 [Eh]
    Exch10              =    -0.000000220979 [Eh]
    Exch10 (S^2)        =    -0.000000220978 [Eh]

    Iter     Energy [mEh]          dE [mEh]         Residual      Time [s]
       1      -0.00343528       0.003435279       0.433092513           514
       2      -0.00403196       0.000596683       0.226823255          1042
       3      -0.00429238       0.000260421       0.040601776          1581
       4      -0.00429312       0.000000733       0.008927990          2243
       5      -0.00428684      -0.000006278       0.001268308          2854
       6      -0.00428777       0.000000936       0.000253907          3457
       7      -0.00428775      -0.000000019       0.000089048          4166
       8      -0.00428773      -0.000000023       0.000018979          4682
       9      -0.00428773      -0.000000003       0.000002861          5218
      10      -0.00428773       0.000000001       0.000000444          5983

    CHF Iterations converged


    Iter     Energy [mEh]          dE [mEh]         Residual      Time [s]
       1      -4.68278472       4.682784721      37.615908410           629
       2      -3.00938544      -1.673399283       4.402714372          1305
       3      -2.99521338      -0.014172064       1.479974804          2078
       4      -3.04921853       0.054005155       0.458562453          2793
       5      -3.05620342       0.006984886       0.156984302          3540
       6      -3.05557563      -0.000627781       0.101332950          4142
       7      -3.05406932      -0.001506311       0.043226226          4801
       8      -3.05418301       0.000113688       0.022159600          5684
       9      -3.05450652       0.000323509       0.012579471          6709
      10      -3.05443669      -0.000069828       0.011607283          7387
      11      -3.05437378      -0.000062910       0.005085520          8119
      12      -3.05437986       0.000006079       0.002258452          8865
      13      -3.05439248       0.000012619       0.000838021          9663
      14      -3.05439531       0.000002827       0.000280796         10307
      15      -3.05439388      -0.000001424       0.000165943         10933
      16      -3.05439254      -0.000001346       0.000095625         11799
      17      -3.05439321       0.000000677       0.000051640         13041
      18      -3.05439344       0.000000228       0.000018268         14556
      19      -3.05439332      -0.000000123       0.000008823         16046
      20      -3.05439329      -0.000000026       0.000003734         17237
      21      -3.05439331       0.000000015       0.000001937         18495
      22      -3.05439332       0.000000008       0.000001024         19636
      23      -3.05439332      -0.000000002       0.000000437         20831

    CHF Iterations converged

    Ind20,r (A<-B)      =    -0.000004287729 [Eh]
    Ind20,r (B<-A)      =    -0.003054393315 [Eh]
    Ind20,r             =    -0.003058681044 [Eh]
    Exch-Ind20,r (A<-B) =     0.000000088704 [Eh]
    Exch-Ind20,r (B<-A) =     0.000000427970 [Eh]
    Exch-Ind20,r        =     0.000000516674 [Eh]
    Disp20              =    -0.000441553328 [Eh]
    Disp20 (SS)         =    -0.000220776664 [Eh]
    Disp20 (OS)         =    -0.000220776664 [Eh]
    Exch-Disp20         =     0.000000200944 [Eh]
    Exch-Disp20 (SS)    =     0.000000156383 [Eh]
    Exch-Disp20 (OS)    =     0.000000044561 [Eh]

    SAPT Results 
  --------------------------------------------------------------------------------------------------------
    Electrostatics                  8.07810585 [mEh]       5.06908795 [kcal/mol]      21.20906400 [kJ/mol]
      Elst10,r                      8.07810585 [mEh]       5.06908795 [kcal/mol]      21.20906400 [kJ/mol]

    Exchange                       -0.00022098 [mEh]      -0.00013867 [kcal/mol]      -0.00058018 [kJ/mol]
      Exch10                       -0.00022098 [mEh]      -0.00013867 [kcal/mol]      -0.00058018 [kJ/mol]
      Exch10(S^2)                  -0.00022098 [mEh]      -0.00013867 [kcal/mol]      -0.00058018 [kJ/mol]

    Induction                      -3.04261540 [mEh]      -1.90926999 [kcal/mol]      -7.98838564 [kJ/mol]
      Ind20,r                      -3.05868104 [mEh]      -1.91935133 [kcal/mol]      -8.03056598 [kJ/mol]
      Exch-Ind20,r                  0.00051667 [mEh]       0.00032422 [kcal/mol]       0.00135653 [kJ/mol]
      delta HF,r (2)                0.01554897 [mEh]       0.00975712 [kcal/mol]       0.04082381 [kJ/mol]

    Dispersion                     -0.44135238 [mEh]      -0.27695280 [kcal/mol]      -1.15877052 [kJ/mol]
      Disp20                       -0.44155333 [mEh]      -0.27707890 [kcal/mol]      -1.15929810 [kJ/mol]
      Exch-Disp20                   0.00020094 [mEh]       0.00012609 [kcal/mol]       0.00052758 [kJ/mol]
      Disp20 (SS)                  -0.22077666 [mEh]      -0.13853945 [kcal/mol]      -0.57964905 [kJ/mol]
      Disp20 (OS)                  -0.22077666 [mEh]      -0.13853945 [kcal/mol]      -0.57964905 [kJ/mol]
      Exch-Disp20 (SS)              0.00015638 [mEh]       0.00009813 [kcal/mol]       0.00041058 [kJ/mol]
      Exch-Disp20 (OS)              0.00004456 [mEh]       0.00002796 [kcal/mol]       0.00011700 [kJ/mol]

  Total HF                          5.03526947 [mEh]       3.15967930 [kcal/mol]      13.22009818 [kJ/mol]
  Total SAPT0                       4.59391709 [mEh]       2.88272649 [kcal/mol]      12.06132765 [kJ/mol]

  Special recipe for scaled SAPT0 (see Manual):
    Electrostatics sSAPT0           8.07810585 [mEh]       5.06908795 [kcal/mol]      21.20906400 [kJ/mol]
    Exchange sSAPT0                -0.00022098 [mEh]      -0.00013867 [kcal/mol]      -0.00058018 [kJ/mol]
    Induction sSAPT0               -3.04261540 [mEh]      -1.90926999 [kcal/mol]      -7.98838564 [kJ/mol]
    Dispersion sSAPT0              -0.44135238 [mEh]      -0.27695280 [kcal/mol]      -1.15877052 [kJ/mol]
  Total sSAPT0                      4.59391709 [mEh]       2.88272649 [kcal/mol]      12.06132765 [kJ/mol]
  --------------------------------------------------------------------------------------------------------

*** tstop() called on n2cn0902 at Mon Jan 29 12:00:32 2024
Module time:
	user time   =   64038.49 seconds =    1067.31 minutes
	system time =    3496.78 seconds =      58.28 minutes
	total time  =     153519 seconds =    2558.65 minutes
Total time:
	user time   =  109400.69 seconds =    1823.34 minutes
	system time =    6126.76 seconds =     102.11 minutes
	total time  =     177527 seconds =    2958.78 minutes

    Psi4 stopped on: Monday, 29 January 2024 12:00PM
    Psi4 wall time for execution: 2 days, 1:18:49.55

*** Psi4 exiting successfully. Buy a developer a beer!
