
    -----------------------------------------------------------------------
          Psi4: An Open-Source Ab Initio Electronic Structure Package
                               Psi4 1.9 release

                         Git: Rev {} zzzzzzz 


    D. G. A. Smith, L. A. Burns, A. C. Simmonett, R. M. Parrish,
    M. C. Schieber, R. Galvelis, P. Kraus, H. Kruse, R. Di Remigio,
    A. Alenaizan, A. M. James, S. Lehtola, J. P. Misiewicz, M. Scheurer,
    R. A. Shaw, J. B. Schriber, Y. Xie, Z. L. Glick, D. A. Sirianni,
    J. S. O'Brien, J. M. Waldrop, A. Kumar, E. G. Hohenstein,
    B. P. Pritchard, B. R. Brooks, H. F. Schaefer III, A. Yu. Sokolov,
    K. Patkowski, A. E. DePrince III, U. Bozkaya, R. A. King,
    F. A. Evangelista, J. M. Turney, T. D. Crawford, C. D. Sherrill,
    J. Chem. Phys. 152(18) 184108 (2020). https://doi.org/10.1063/5.0006002

                            Additional Code Authors
    E. T. Seidl, C. L. Janssen, E. F. Valeev, M. L. Leininger,
    J. F. Gonthier, R. M. Richard, H. R. McAlexander, M. Saitow, X. Wang,
    P. Verma, M. H. Lechner, A. Jiang, S. Behnle, A. G. Heide,
    M. F. Herbst, and D. L. Poole

             Previous Authors, Complete List of Code Contributors,
                       and Citations for Specific Modules
    https://github.com/psi4/psi4/blob/master/codemeta.json
    https://github.com/psi4/psi4/graphs/contributors
    http://psicode.org/psi4manual/master/introduction.html#citing-psifour

    -----------------------------------------------------------------------


    Psi4 started on: Monday, 22 January 2024 07:18PM

    Process ID: 1560417
    Host:       d-17-1-1
    PSIDATADIR: /home/gridsan/tfroembgen/.conda/envs/psi4test/share/psi4
    Memory:     500.0 MiB
    Threads:    12
    
  ==> Input File <==

--------------------------------------------------------------------------
memory 32 GB # how much memory is available ! Depends on the nodes/cores !

molecule dimer {
# monomer A
+1 1    # Charge and multiplicity
C  0.680067 -0.008042 -6.015929
C -0.680504 -0.006014 -6.015545
N -1.085635 -0.005016 -4.697221
C  0.000108 -0.001740 -3.915820
C -2.477365  0.044390 -4.229242
N  1.085222 -0.005016 -4.697221
H  1.385146 -0.015870 -6.833368
H -1.385302 -0.006204 -6.833214
H -0.000009  0.000007 -2.834731
C  2.478117 -0.021908 -4.232123
H  2.490592  0.005437 -3.141870
H  2.967028 -0.935354 -4.579299
H  3.001428  0.853575 -4.623595
H -2.857359  1.066461 -4.309201
H -3.082679 -0.625694 -4.842306
H -2.518128 -0.282594 -3.189294
--
# monomer B
0 1     # Charge and multiplicity
C   1.22531237526482      0.70753866091955      0.00613762728373
C   1.22532433589282     -0.70753852257020     -0.00619318228664
C   -0.00000567409046      1.41496628609039     -0.00672680580738
C   2.45644923379077      1.41832825917820      0.00902448468363
C   0.00001130712078     -1.41497612663474      0.00347275151708
C   -1.22530046906674      0.70754574598412      0.00838914760619
C   2.45643823516184     -1.41832293188077     -0.00843833914343
C   -0.00000085313587      2.83680140328112     -0.00913035594137
C   3.68182717731192      0.70931832800114     -0.00808954934571
C   2.45512052870677      2.83422403348893     -0.00819210630633
C   3.68182158506039     -0.70933346742900      0.00798293467272
C   -1.22531311884624     -0.70752714354401     -0.00512042085974
C   1.22670006104402      3.54346985599427      0.00816696660346
C   0.00000526469929     -2.83678176723568      0.00832091913869
C   -2.45643555300670      1.41831729028492      0.00842454345199
C   2.45512389762097     -2.83422965658853      0.00783102630520
C   -1.22671388474763      3.54346943575023      0.00827029982280
C   4.91451777504333      1.42717324448953     -0.00160886631602
C   3.69315067131765      3.54279566454522     -0.00155906667985
C   -2.45643712022637     -1.41831290883911     -0.00846337726810
C   1.22670532178455     -3.54347386990643     -0.00780316414624
C   -2.45512491866593      2.83421703463423     -0.00818572995999
C   4.91452486062398     -1.42718653794377      0.00136387641845
C   1.22142509354026      4.97013443726031      0.00150231067809
C   4.89300870916237      2.82518837202648     -0.00039219795739
C   -1.22669652864725     -3.54347062507680     -0.00753595973677
C   -3.68181849668397      0.70932533873199     -0.00807686886569
C   3.69314758099218     -3.54280096939050      0.00148176697923
C   -1.22143177215231      4.97012866986289      0.00168580605083
C   6.13477145276790      0.68054831910577     -0.00083909176631
C   3.65678936045204      4.97295361556775     -0.00065042889723
C   -2.45512642789169     -2.83421472106065      0.00758666850712
C   -3.68181869921921     -0.70932533146830      0.00810055625144
C   4.89301309775526     -2.82519973363176      0.00021895393805
C   -0.00000059327114      5.65044773803267      0.00045449734393
C   6.13477559217374     -0.68055448207492      0.00042622874941
C   2.47813196269732      5.65357712333155      0.00063835075260
C   1.22142288457925     -4.97012668293268     -0.00129718634452
C   -3.69316190412301      3.54279732619245     -0.00139355922051
C   -1.22142804110313     -4.97011793159564     -0.00140994817719
C   -4.91452132810043      1.42717581899491     -0.00153192130862
C   3.65678749952045     -4.97295485423912      0.00080007163680
C   -2.47813805026426      5.65357479452875      0.00092287576113
C   -3.69314125872231     -3.54278984697859      0.00136564082345
C   -4.91451200321153     -1.42718062802730      0.00139857359209
C   -0.00000552908399     -5.65043791501335      0.00005899322272
C   -4.89302000425900      2.82518897091939     -0.00040227981744
C   2.47812647313991     -5.65357317188818     -0.00029052915548
C   -3.65679823041642      4.97295655404175     -0.00047374852278
C   -4.89299899901461     -2.82519139505969      0.00006491824035
C   -2.47812801824129     -5.65356579800621     -0.00056571680280
C   -6.13477002348955      0.68054913825639     -0.00086464346868
C   -3.65678835334731     -4.97294365097028      0.00058578382008
C   -6.13476456307132     -0.68055354348201      0.00040575295444
H   5.83528897565761      3.36927626695423      0.00396712770529
H   7.07385965258860      1.22821762089947     -0.00037744837300
H   4.60066374401555      5.51238117445323     -0.00014522814529
H   5.83528386714679     -3.36930568472863     -0.00423551337640
H   -0.00001167146422      6.73853104613662     -0.00389474766392
H   7.07386165167227     -1.22822657074368     -0.00008250934481
H   2.47331421164041      6.74068466339473      0.00017162982210
H   4.60066897122302     -5.51237575717576      0.00039007446835
H   -2.47331820069565      6.74068209160650      0.00047297644710
H   -0.00000978838621     -6.73852780445195      0.00458867820736
H   -5.83530143450167      3.36927132229595      0.00410314985360
H   2.47330840367253     -6.74068500242887      0.00027980126949
H   -4.60067436136587      5.51237839860371      0.00002010017831
H   -5.83527902699321     -3.36928859177951     -0.00451481925734
H   -2.47329986759855     -6.74067870613986     -0.00016951527498
H   -7.07385728692578      1.22822084484047     -0.00046143985387
H   -4.60067330624313     -5.51236229778631      0.00021776644566
H   -7.07385645456741     -1.22822025997701     -0.00017736581114

    units angstrom      # Angstroms are the default
    no_reorient         # Geometry fixed, default
    symmetry c1         # C1 symmetry, default
}

set {
    scf_type DF         # Density fitting, faster than exact integrals
    freeze_core True    # Freeze core electrons
    basis jun-cc-pVDZ   # Jun-cc-pVDZ basis set, recommended for sSAPT0 in https://doi.org/10.1063/1.4867135
}

energy('ssapt0')        # Compute sSAPT0 energy, includes also SAPT0
--------------------------------------------------------------------------

  Memory set to  29.802 GiB by Python driver.

Scratch directory: /state/partition1/slurm_tmp/24798266.4294967291.0/
   => Loading Basis Set <=

    Name: JUN-CC-PVDZ
    Role: ORBITAL
    Keyword: BASIS
    atoms 1-2, 4-5, 10, 17-70 entry C          line   164 file /home/gridsan/tfroembgen/.conda/envs/psi4test/share/psi4/basis/jun-cc-pvdz.gbs 
    atoms 3, 6                entry N          line   198 file /home/gridsan/tfroembgen/.conda/envs/psi4test/share/psi4/basis/jun-cc-pvdz.gbs 
    atoms 7-9, 11-16, 71-88   entry H          line    36 file /home/gridsan/tfroembgen/.conda/envs/psi4test/share/psi4/basis/jun-cc-pvdz.gbs 

   => Loading Basis Set <=

    Name: JUN-CC-PVDZ
    Role: ORBITAL
    Keyword: BASIS
    atoms 1-2, 4-5, 10, 17-70 entry C          line   164 file /home/gridsan/tfroembgen/.conda/envs/psi4test/share/psi4/basis/jun-cc-pvdz.gbs 
    atoms 3, 6                entry N          line   198 file /home/gridsan/tfroembgen/.conda/envs/psi4test/share/psi4/basis/jun-cc-pvdz.gbs 
    atoms 7-9, 11-16, 71-88   entry H          line    36 file /home/gridsan/tfroembgen/.conda/envs/psi4test/share/psi4/basis/jun-cc-pvdz.gbs 


  //>>>>>>>>>>>>>>>>>>>>>>>>>>>>>>>>>>>//
  //              Dimer HF             //
  //<<<<<<<<<<<<<<<<<<<<<<<<<<<<<<<<<<<//

   => Libint2 <=

    Primary   basis highest AM E, G, H:  7, 7, 4
    Auxiliary basis highest AM E, G, H:  7, 7, 5
    Onebody   basis highest AM E, G, H:  7, 7, 5
    Solid Harmonics ordering:            gaussian

*** tstart() called on d-17-1-1
*** at Mon Jan 22 19:18:14 2024

   => Loading Basis Set <=

    Name: JUN-CC-PVDZ
    Role: ORBITAL
    Keyword: BASIS
    atoms 1-2, 4-5, 10, 17-70 entry C          line   164 file /home/gridsan/tfroembgen/.conda/envs/psi4test/share/psi4/basis/jun-cc-pvdz.gbs 
    atoms 3, 6                entry N          line   198 file /home/gridsan/tfroembgen/.conda/envs/psi4test/share/psi4/basis/jun-cc-pvdz.gbs 
    atoms 7-9, 11-16, 71-88   entry H          line    36 file /home/gridsan/tfroembgen/.conda/envs/psi4test/share/psi4/basis/jun-cc-pvdz.gbs 


         ---------------------------------------------------------
                                   SCF
               by Justin Turney, Rob Parrish, Andy Simmonett
                          and Daniel G. A. Smith
                              RHF Reference
                       12 Threads,  30517 MiB Core
         ---------------------------------------------------------

  ==> Geometry <==

    Molecular point group: c1
    Full point group: C1

    Geometry (in Angstrom), charge = 1, multiplicity = 1:

       Center              X                  Y                   Z               Mass       
    ------------   -----------------  -----------------  -----------------  -----------------
         C            0.680066520158    -0.008042372515    -5.405400721530    12.000000000000
         C           -0.680504479842    -0.006014372515    -5.405016721530    12.000000000000
         N           -1.085635479842    -0.005016372515    -4.086692721530    14.003074004430
         C            0.000107520158    -0.001740372515    -3.305291721530    12.000000000000
         C           -2.477365479842     0.044389627485    -3.618713721530    12.000000000000
         N            1.085221520158    -0.005016372515    -4.086692721530    14.003074004430
         H            1.385145520158    -0.015870372515    -6.222839721530     1.007825032230
         H           -1.385302479842    -0.006204372515    -6.222685721530     1.007825032230
         H           -0.000009479842     0.000006627485    -2.224202721530     1.007825032230
         C            2.478116520158    -0.021908372515    -3.621594721530    12.000000000000
         H            2.490591520158     0.005436627485    -2.531341721530     1.007825032230
         H            2.967027520158    -0.935354372515    -3.968770721530     1.007825032230
         H            3.001427520158     0.853574627485    -4.013066721530     1.007825032230
         H           -2.857359479842     1.066460627485    -3.698672721530     1.007825032230
         H           -3.082679479842    -0.625694372515    -4.231777721530     1.007825032230
         H           -2.518128479842    -0.282594372515    -2.578765721530     1.007825032230
         C            1.225311895423     0.707538288405     0.616665905754    12.000000000000
         C            1.225323856051    -0.707538895085     0.604335096184    12.000000000000
         C           -0.000006153932     1.414965913575     0.603801472663    12.000000000000
         C            2.456448753949     1.418327886663     0.619552763154    12.000000000000
         C            0.000010827279    -1.414976499150     0.614001029987    12.000000000000
         C           -1.225300948908     0.707545373469     0.618917426076    12.000000000000
         C            2.456437755320    -1.418323304396     0.602089939327    12.000000000000
         C           -0.000001332978     2.836801030766     0.601397922529    12.000000000000
         C            3.681826697470     0.709317955486     0.602438729125    12.000000000000
         C            2.455120048865     2.834223660974     0.602336172164    12.000000000000
         C            3.681821105219    -0.709333839944     0.618511213143    12.000000000000
         C           -1.225313598688    -0.707527516059     0.605407857610    12.000000000000
         C            1.226699581202     3.543469483479     0.618695245074    12.000000000000
         C            0.000004784858    -2.836782139751     0.618849197609    12.000000000000
         C           -2.456436032848     1.418316917770     0.618952821922    12.000000000000
         C            2.455123417779    -2.834230029103     0.618359304775    12.000000000000
         C           -1.226714364589     3.543469063235     0.618798578293    12.000000000000
         C            4.914517295202     1.427172871975     0.608919412154    12.000000000000
         C            3.693150191476     3.542795292030     0.608969211790    12.000000000000
         C           -2.456437600068    -1.418313281354     0.602064901202    12.000000000000
         C            1.226704841943    -3.543474242421     0.602725114324    12.000000000000
         C           -2.455125398508     2.834216662119     0.602342548510    12.000000000000
         C            4.914524380782    -1.427186910459     0.611892154889    12.000000000000
         C            1.221424613699     4.970134064745     0.612030589148    12.000000000000
         C            4.893008229321     2.825187999512     0.610136080513    12.000000000000
         C           -1.226697008489    -3.543470997592     0.602992318733    12.000000000000
         C           -3.681818976526     0.709324966217     0.602451409605    12.000000000000
         C            3.693147101150    -3.542801341905     0.612010045449    12.000000000000
         C           -1.221432251994     4.970128297348     0.612214084521    12.000000000000
         C            6.134770972926     0.680547946591     0.609689186704    12.000000000000
         C            3.656788880610     4.972953243053     0.609877849573    12.000000000000
         C           -2.455126907733    -2.834215093576     0.618114946977    12.000000000000
         C           -3.681819179061    -0.709325703983     0.618628834722    12.000000000000
         C            4.893012617914    -2.825200106147     0.610747232408    12.000000000000
         C           -0.000001073113     5.650447365518     0.610982775814    12.000000000000
         C            6.134775112332    -0.680554854590     0.610954507220    12.000000000000
         C            2.478131482856     5.653576750817     0.611166629223    12.000000000000
         C            1.221422404738    -4.970127055448     0.609231092126    12.000000000000
         C           -3.693162383965     3.542796953677     0.609134719250    12.000000000000
         C           -1.221428520945    -4.970118304111     0.609118330293    12.000000000000
         C           -4.914521807942     1.427175446480     0.608996357162    12.000000000000
         C            3.656787019679    -4.972955226754     0.611328350107    12.000000000000
         C           -2.478138530106     5.653574422014     0.611451154231    12.000000000000
         C           -3.693141738564    -3.542790219494     0.611893919294    12.000000000000
         C           -4.914512483053    -1.427181000542     0.611926852062    12.000000000000
         C           -0.000006008926    -5.650438287528     0.610587271693    12.000000000000
         C           -4.893020484101     2.825188598404     0.610125998653    12.000000000000
         C            2.478125993298    -5.653573544403     0.610237749315    12.000000000000
         C           -3.656798710258     4.972956181527     0.610054529947    12.000000000000
         C           -4.892999478856    -2.825191767575     0.610593196711    12.000000000000
         C           -2.478128498083    -5.653566170521     0.609962561667    12.000000000000
         C           -6.134770503331     0.680548765741     0.609663635002    12.000000000000
         C           -3.656788833189    -4.972944023485     0.611114062290    12.000000000000
         C           -6.134765042913    -0.680553915997     0.610934031425    12.000000000000
         H            5.835288495816     3.369275894439     0.614495406176     1.007825032230
         H            7.073859172747     1.228217248385     0.610150830097     1.007825032230
         H            4.600663264174     5.512380801938     0.610383050325     1.007825032230
         H            5.835283387305    -3.369306057244     0.606292765094     1.007825032230
         H           -0.000012151306     6.738530673622     0.606633530806     1.007825032230
         H            7.073861171831    -1.228226943259     0.610445769125     1.007825032230
         H            2.473313731799     6.740684290880     0.610699908292     1.007825032230
         H            4.600668491381    -5.512376129691     0.610918352939     1.007825032230
         H           -2.473318680537     6.740681719092     0.611001254917     1.007825032230
         H           -0.000010268228    -6.738528176967     0.615116956678     1.007825032230
         H           -5.835301914343     3.369270949781     0.614631428324     1.007825032230
         H            2.473307923831    -6.740685374944     0.610808079740     1.007825032230
         H           -4.600674841208     5.512378026089     0.610548378649     1.007825032230
         H           -5.835279506835    -3.369288964294     0.606013459213     1.007825032230
         H           -2.473300347440    -6.740679078655     0.610358763195     1.007825032230
         H           -7.073857766768     1.228220472326     0.610066838616     1.007825032230
         H           -4.600673786085    -5.512362670301     0.610746044916     1.007825032230
         H           -7.073856934409    -1.228220632492     0.610350912659     1.007825032230

  Running in c1 symmetry.

  Rotational constants: A =      0.00175  B =      0.00171  C =      0.00109 [cm^-1]
  Rotational constants: A =     52.48887  B =     51.21592  C =     32.71081 [MHz]
  Nuclear repulsion = 8206.952637787795538

  Charge       = 1
  Multiplicity = 1
  Electrons    = 394
  Nalpha       = 197
  Nbeta        = 197

  ==> Algorithm <==

  SCF Algorithm Type is DF.
  DIIS enabled.
  MOM disabled.
  Fractional occupation disabled.
  Guess Type is SAD.
  Energy threshold   = 1.00e-08
  Density threshold  = 1.00e-08
  Integral threshold = 1.00e-12

  ==> Primary Basis <==

  Basis Set: JUN-CC-PVDZ
    Blend: JUN-CC-PVDZ
    Number of shells: 569
    Number of basis functions: 1233
    Number of Cartesian functions: 1294
    Spherical Harmonics?: true
    Max angular momentum: 2

   => Loading Basis Set <=

    Name: (JUN-CC-PVDZ AUX)
    Role: JKFIT
    Keyword: DF_BASIS_SCF
    atoms 1-2, 4-5, 10, 17-70 entry C          line   146 file /home/gridsan/tfroembgen/.conda/envs/psi4test/share/psi4/basis/jun-cc-pvdz-jkfit.gbs 
    atoms 3, 6                entry N          line   202 file /home/gridsan/tfroembgen/.conda/envs/psi4test/share/psi4/basis/jun-cc-pvdz-jkfit.gbs 
    atoms 7-9, 11-16, 71-88   entry H          line    70 file /home/gridsan/tfroembgen/.conda/envs/psi4test/share/psi4/basis/jun-cc-pvdz-jkfit.gbs 

  ==> Integral Setup <==

  ==> DiskDFJK: Density-Fitted J/K Matrices <==

    J tasked:                  Yes
    K tasked:                  Yes
    wK tasked:                  No
    OpenMP threads:             12
    Integrals threads:          12
    Memory [MiB]:            22888
    Algorithm:                Disk
    Integral Cache:           SAVE
    Schwarz Cutoff:          1E-12
    Fitting Condition:       1E-10

   => Auxiliary Basis Set <=

  Basis Set: (JUN-CC-PVDZ AUX)
    Blend: JUN-CC-PVDZ-JKFIT
    Number of shells: 1890
    Number of basis functions: 5440
    Number of Cartesian functions: 6226
    Spherical Harmonics?: true
    Max angular momentum: 3

  Minimum eigenvalue in the overlap matrix is 7.2086494484E-10.
  Reciprocal condition number of the overlap matrix is 3.0770077838E-11.
    Using canonical orthogonalization.
  Overall, 14 of 1233 possible MOs eliminated.


  ==> Pre-Iterations <==

  SCF Guess: Superposition of Atomic Densities via on-the-fly atomic UHF (no occupation information).

   -------------------------
    Irrep   Nso     Nmo    
   -------------------------
     A       1233    1219 
   -------------------------
    Total    1233    1219
   -------------------------

  ==> Iterations <==

                           Total Energy        Delta E     RMS |[F,P]|

   @DF-RHF iter SAD: -2365.51721892023852   -2.36552e+03   0.00000e+00 
   @DF-RHF iter   1: -2358.21519911997711    7.30202e+00   9.43753e-04 DIIS/ADIIS
   @DF-RHF iter   2: -2359.10871919049077   -8.93520e-01   3.19393e-04 DIIS/ADIIS
   @DF-RHF iter   3: -2359.19753795283850   -8.88188e-02   1.18619e-04 DIIS/ADIIS
   @DF-RHF iter   4: -2359.21052672062433   -1.29888e-02   4.31607e-05 DIIS
   @DF-RHF iter   5: -2359.21231002172271   -1.78330e-03   8.98580e-06 DIIS
   @DF-RHF iter   6: -2359.21248058387118   -1.70562e-04   4.62565e-06 DIIS
   @DF-RHF iter   7: -2359.21254200772364   -6.14239e-05   2.19054e-06 DIIS
   @DF-RHF iter   8: -2359.21256100717756   -1.89995e-05   1.14946e-06 DIIS
   @DF-RHF iter   9: -2359.21256544588050   -4.43870e-06   3.03420e-07 DIIS
   @DF-RHF iter  10: -2359.21256569548950   -2.49609e-07   9.99010e-08 DIIS
   @DF-RHF iter  11: -2359.21256571487811   -1.93886e-08   4.01766e-08 DIIS
   @DF-RHF iter  12: -2359.21256571891126   -4.03315e-09   2.03810e-08 DIIS
   @DF-RHF iter  13: -2359.21256571970798   -7.96717e-10   6.47376e-09 DIIS
  Energy and wave function converged.


  ==> Post-Iterations <==

    Orbital Energies [Eh]
    ---------------------

    Doubly Occupied:                                                      

       1A    -15.805432     2A    -15.804948     3A    -11.498848  
       4A    -11.434178     5A    -11.432620     6A    -11.420384  
       7A    -11.420358     8A    -11.343502     9A    -11.343136  
      10A    -11.342842    11A    -11.342061    12A    -11.341695  
      13A    -11.341323    14A    -11.337959    15A    -11.337956  
      16A    -11.337867    17A    -11.337805    18A    -11.336785  
      19A    -11.336676    20A    -11.335429    21A    -11.335405  
      22A    -11.334508    23A    -11.334471    24A    -11.334346  
      25A    -11.334284    26A    -11.334254    27A    -11.334194  
      28A    -11.333194    29A    -11.333183    30A    -11.333065  
      31A    -11.333058    32A    -11.332860    33A    -11.332847  
      34A    -11.332786    35A    -11.332783    36A    -11.332230  
      37A    -11.332227    38A    -11.332221    39A    -11.332197  
      40A    -11.331460    41A    -11.331405    42A    -11.331383  
      43A    -11.331326    44A    -11.325418    45A    -11.325373  
      46A    -11.325335    47A    -11.325313    48A    -11.324260  
      49A    -11.324253    50A    -11.323681    51A    -11.323679  
      52A    -11.322384    53A    -11.322367    54A    -11.322357  
      55A    -11.322352    56A    -11.322244    57A    -11.322242  
      58A    -11.320932    59A    -11.320923    60A    -11.320913  
      61A    -11.320900    62A     -1.549584    63A     -1.405016  
      64A     -1.324060    65A     -1.297391    66A     -1.296369  
      67A     -1.265128    68A     -1.264998    69A     -1.259020  
      70A     -1.231609    71A     -1.224073    72A     -1.213085  
      73A     -1.212240    74A     -1.210856    75A     -1.187053  
      76A     -1.187002    77A     -1.160395    78A     -1.158560  
      79A     -1.158537    80A     -1.155078    81A     -1.139414  
      82A     -1.139408    83A     -1.113884    84A     -1.101407  
      85A     -1.099731    86A     -1.099128    87A     -1.091315  
      88A     -1.090136    89A     -1.085837    90A     -1.062764  
      91A     -1.062514    92A     -1.035896    93A     -1.035763  
      94A     -0.994770    95A     -0.969120    96A     -0.968948  
      97A     -0.967868    98A     -0.965177    99A     -0.962882  
     100A     -0.962537   101A     -0.957170   102A     -0.957074  
     103A     -0.935779   104A     -0.909421   105A     -0.892956  
     106A     -0.892395   107A     -0.888368   108A     -0.887923  
     109A     -0.887513   110A     -0.867896   111A     -0.867820  
     112A     -0.822906   113A     -0.822040   114A     -0.820684  
     115A     -0.809532   116A     -0.809064   117A     -0.805545  
     118A     -0.805426   119A     -0.791593   120A     -0.789117  
     121A     -0.782829   122A     -0.773166   123A     -0.772632  
     124A     -0.768509   125A     -0.767977   126A     -0.762358  
     127A     -0.757936   128A     -0.755353   129A     -0.734293  
     130A     -0.728650   131A     -0.727184   132A     -0.723239  
     133A     -0.723152   134A     -0.713033   135A     -0.712712  
     136A     -0.704541   137A     -0.702584   138A     -0.702497  
     139A     -0.702354   140A     -0.696986   141A     -0.689065  
     142A     -0.685780   143A     -0.676979   144A     -0.676062  
     145A     -0.673460   146A     -0.672829   147A     -0.668572  
     148A     -0.667919   149A     -0.667407   150A     -0.656810  
     151A     -0.654536   152A     -0.653330   153A     -0.641902  
     154A     -0.641470   155A     -0.639770   156A     -0.639575  
     157A     -0.634003   158A     -0.627782   159A     -0.627418  
     160A     -0.614001   161A     -0.613758   162A     -0.611485  
     163A     -0.611477   164A     -0.607221   165A     -0.603729  
     166A     -0.596922   167A     -0.596403   168A     -0.573019  
     169A     -0.569358   170A     -0.568482   171A     -0.566386  
     172A     -0.562763   173A     -0.560000   174A     -0.556003  
     175A     -0.555858   176A     -0.549045   177A     -0.547853  
     178A     -0.527551   179A     -0.527163   180A     -0.512439  
     181A     -0.512423   182A     -0.497234   183A     -0.481783  
     184A     -0.481285   185A     -0.480156   186A     -0.448240  
     187A     -0.448023   188A     -0.423826   189A     -0.417230  
     190A     -0.416767   191A     -0.416155   192A     -0.384761  
     193A     -0.369832   194A     -0.361396   195A     -0.361286  
     196A     -0.299868   197A     -0.299493  

    Virtual:                                                              

     198A     -0.060901   199A     -0.060514   200A     -0.041421  
     201A     -0.039150   202A     -0.034858   203A     -0.021235  
     204A     -0.014218   205A     -0.013392   206A     -0.011989  
     207A     -0.011831   208A     -0.010562   209A     -0.007501  
     210A     -0.004058   211A     -0.003165   212A      0.001623  
     213A      0.002882   214A      0.005577   215A      0.007934  
     216A      0.010293   217A      0.010628   218A      0.011920  
     219A      0.012322   220A      0.015276   221A      0.016789  
     222A      0.017059   223A      0.019727   224A      0.019941  
     225A      0.022024   226A      0.022618   227A      0.024078  
     228A      0.027527   229A      0.031256   230A      0.033325  
     231A      0.035357   232A      0.035562   233A      0.037711  
     234A      0.043382   235A      0.045137   236A      0.046770  
     237A      0.047877   238A      0.049079   239A      0.051304  
     240A      0.052675   241A      0.054899   242A      0.055924  
     243A      0.059778   244A      0.062158   245A      0.062971  
     246A      0.066883   247A      0.067218   248A      0.067475  
     249A      0.071260   250A      0.072187   251A      0.074766  
     252A      0.075232   253A      0.077679   254A      0.077936  
     255A      0.085446   256A      0.086363   257A      0.087016  
     258A      0.087279   259A      0.091204   260A      0.092895  
     261A      0.095049   262A      0.096301   263A      0.099683  
     264A      0.101721   265A      0.103071   266A      0.103413  
     267A      0.104728   268A      0.105931   269A      0.110210  
     270A      0.111303   271A      0.112141   272A      0.112927  
     273A      0.114888   274A      0.119777   275A      0.121503  
     276A      0.122209   277A      0.123015   278A      0.123298  
     279A      0.126186   280A      0.127755   281A      0.129143  
     282A      0.129336   283A      0.135338   284A      0.137876  
     285A      0.140764   286A      0.142935   287A      0.144168  
     288A      0.145045   289A      0.147176   290A      0.147677  
     291A      0.148889   292A      0.152069   293A      0.152573  
     294A      0.152758   295A      0.153369   296A      0.154348  
     297A      0.156021   298A      0.156749   299A      0.158493  
     300A      0.160845   301A      0.162438   302A      0.163734  
     303A      0.164669   304A      0.165911   305A      0.167033  
     306A      0.168936   307A      0.169914   308A      0.171648  
     309A      0.172621   310A      0.172710   311A      0.173572  
     312A      0.173921   313A      0.178837   314A      0.179212  
     315A      0.180989   316A      0.184225   317A      0.185149  
     318A      0.189977   319A      0.190234   320A      0.191506  
     321A      0.192822   322A      0.193923   323A      0.198050  
     324A      0.198620   325A      0.199294   326A      0.199824  
     327A      0.200321   328A      0.201008   329A      0.201149  
     330A      0.204415   331A      0.205853   332A      0.207110  
     333A      0.208213   334A      0.208405   335A      0.212277  
     336A      0.214320   337A      0.215681   338A      0.217534  
     339A      0.218850   340A      0.222508   341A      0.225862  
     342A      0.229869   343A      0.230898   344A      0.231867  
     345A      0.233353   346A      0.235747   347A      0.237099  
     348A      0.238313   349A      0.239350   350A      0.240188  
     351A      0.240987   352A      0.241999   353A      0.243509  
     354A      0.244075   355A      0.244819   356A      0.244983  
     357A      0.246954   358A      0.247714   359A      0.248858  
     360A      0.249910   361A      0.250737   362A      0.252557  
     363A      0.254081   364A      0.254399   365A      0.255220  
     366A      0.256974   367A      0.258797   368A      0.259680  
     369A      0.263913   370A      0.266091   371A      0.266943  
     372A      0.268405   373A      0.269323   374A      0.271436  
     375A      0.272947   376A      0.274694   377A      0.277669  
     378A      0.280708   379A      0.282613   380A      0.283404  
     381A      0.284594   382A      0.284831   383A      0.286183  
     384A      0.287310   385A      0.289470   386A      0.289691  
     387A      0.290645   388A      0.291479   389A      0.293228  
     390A      0.295223   391A      0.295943   392A      0.300781  
     393A      0.301885   394A      0.304663   395A      0.305144  
     396A      0.306330   397A      0.307156   398A      0.307737  
     399A      0.310262   400A      0.314215   401A      0.315507  
     402A      0.318385   403A      0.319108   404A      0.319584  
     405A      0.320221   406A      0.324091   407A      0.325274  
     408A      0.326983   409A      0.328872   410A      0.329458  
     411A      0.330565   412A      0.331303   413A      0.333100  
     414A      0.333682   415A      0.334483   416A      0.334759  
     417A      0.336629   418A      0.336905   419A      0.338014  
     420A      0.339545   421A      0.340840   422A      0.341282  
     423A      0.343257   424A      0.343565   425A      0.344899  
     426A      0.346359   427A      0.349364   428A      0.350174  
     429A      0.352487   430A      0.353459   431A      0.354098  
     432A      0.355037   433A      0.356368   434A      0.361073  
     435A      0.363594   436A      0.366954   437A      0.369266  
     438A      0.371344   439A      0.373702   440A      0.374034  
     441A      0.375211   442A      0.375873   443A      0.378765  
     444A      0.382580   445A      0.383960   446A      0.384594  
     447A      0.386447   448A      0.386720   449A      0.388686  
     450A      0.389873   451A      0.390638   452A      0.391700  
     453A      0.393292   454A      0.394023   455A      0.399662  
     456A      0.400938   457A      0.404115   458A      0.405014  
     459A      0.406990   460A      0.407489   461A      0.409178  
     462A      0.414103   463A      0.416273   464A      0.417337  
     465A      0.419126   466A      0.422304   467A      0.423337  
     468A      0.425744   469A      0.426798   470A      0.427006  
     471A      0.427894   472A      0.429297   473A      0.429477  
     474A      0.434342   475A      0.435941   476A      0.436529  
     477A      0.439376   478A      0.442918   479A      0.445994  
     480A      0.448537   481A      0.448931   482A      0.450937  
     483A      0.453015   484A      0.453719   485A      0.456735  
     486A      0.462004   487A      0.463830   488A      0.465179  
     489A      0.467427   490A      0.471790   491A      0.473882  
     492A      0.474404   493A      0.476341   494A      0.478481  
     495A      0.480652   496A      0.482468   497A      0.482886  
     498A      0.483966   499A      0.485016   500A      0.485188  
     501A      0.486266   502A      0.491269   503A      0.492385  
     504A      0.494241   505A      0.497266   506A      0.498484  
     507A      0.512720   508A      0.516431   509A      0.520195  
     510A      0.524206   511A      0.524511   512A      0.525552  
     513A      0.530222   514A      0.531078   515A      0.541281  
     516A      0.542242   517A      0.546634   518A      0.547317  
     519A      0.550827   520A      0.554115   521A      0.555428  
     522A      0.561908   523A      0.567882   524A      0.575727  
     525A      0.582762   526A      0.583401   527A      0.593886  
     528A      0.596748   529A      0.600700   530A      0.604058  
     531A      0.604803   532A      0.614169   533A      0.642681  
     534A      0.642944   535A      0.667198   536A      0.668713  
     537A      0.669433   538A      0.670442   539A      0.672535  
     540A      0.672864   541A      0.682906   542A      0.684465  
     543A      0.685060   544A      0.690259   545A      0.693703  
     546A      0.702744   547A      0.711793   548A      0.715436  
     549A      0.718392   550A      0.719913   551A      0.726408  
     552A      0.730701   553A      0.736691   554A      0.738975  
     555A      0.739954   556A      0.743166   557A      0.745017  
     558A      0.746945   559A      0.751099   560A      0.754668  
     561A      0.755756   562A      0.756859   563A      0.759705  
     564A      0.765526   565A      0.767157   566A      0.770422  
     567A      0.773447   568A      0.780429   569A      0.782597  
     570A      0.785680   571A      0.789895   572A      0.791732  
     573A      0.794078   574A      0.796682   575A      0.800874  
     576A      0.806211   577A      0.806464   578A      0.809857  
     579A      0.813256   580A      0.814031   581A      0.814162  
     582A      0.818024   583A      0.820267   584A      0.821834  
     585A      0.822897   586A      0.827597   587A      0.828406  
     588A      0.829620   589A      0.831660   590A      0.835328  
     591A      0.839372   592A      0.840553   593A      0.842262  
     594A      0.845523   595A      0.846730   596A      0.847915  
     597A      0.849350   598A      0.850563   599A      0.852280  
     600A      0.854038   601A      0.855940   602A      0.858213  
     603A      0.862257   604A      0.862933   605A      0.866439  
     606A      0.867960   607A      0.870151   608A      0.872423  
     609A      0.873808   610A      0.878443   611A      0.879288  
     612A      0.885257   613A      0.885447   614A      0.888607  
     615A      0.891080   616A      0.892679   617A      0.897542  
     618A      0.901568   619A      0.902317   620A      0.903098  
     621A      0.905360   622A      0.905948   623A      0.906618  
     624A      0.907348   625A      0.909673   626A      0.913941  
     627A      0.914008   628A      0.914635   629A      0.921869  
     630A      0.923313   631A      0.927311   632A      0.933010  
     633A      0.936390   634A      0.938957   635A      0.940941  
     636A      0.943020   637A      0.945623   638A      0.947155  
     639A      0.948627   640A      0.950427   641A      0.951961  
     642A      0.956833   643A      0.957708   644A      0.960765  
     645A      0.961532   646A      0.964992   647A      0.965677  
     648A      0.970863   649A      0.971791   650A      0.973041  
     651A      0.975519   652A      0.975908   653A      0.977132  
     654A      0.979667   655A      0.980569   656A      0.981462  
     657A      0.983086   658A      0.985284   659A      0.986113  
     660A      0.988223   661A      0.990599   662A      0.992102  
     663A      0.995425   664A      1.001892   665A      1.002469  
     666A      1.003501   667A      1.004088   668A      1.007698  
     669A      1.010331   670A      1.012223   671A      1.013008  
     672A      1.014720   673A      1.019664   674A      1.021827  
     675A      1.024125   676A      1.029278   677A      1.029958  
     678A      1.031476   679A      1.032505   680A      1.035671  
     681A      1.036510   682A      1.038188   683A      1.040850  
     684A      1.042230   685A      1.043864   686A      1.045192  
     687A      1.046415   688A      1.049037   689A      1.051386  
     690A      1.053606   691A      1.055986   692A      1.060815  
     693A      1.061587   694A      1.062849   695A      1.064499  
     696A      1.065533   697A      1.068765   698A      1.070617  
     699A      1.072724   700A      1.075750   701A      1.079509  
     702A      1.084765   703A      1.085764   704A      1.088983  
     705A      1.096372   706A      1.099107   707A      1.099302  
     708A      1.103526   709A      1.105247   710A      1.109028  
     711A      1.111818   712A      1.114335   713A      1.121806  
     714A      1.123036   715A      1.126091   716A      1.128276  
     717A      1.130060   718A      1.133828   719A      1.139431  
     720A      1.141463   721A      1.144764   722A      1.148974  
     723A      1.150140   724A      1.152896   725A      1.155549  
     726A      1.157229   727A      1.158352   728A      1.171296  
     729A      1.173065   730A      1.174925   731A      1.176041  
     732A      1.180590   733A      1.187923   734A      1.189256  
     735A      1.190961   736A      1.191018   737A      1.192158  
     738A      1.192937   739A      1.195397   740A      1.196861  
     741A      1.199016   742A      1.200933   743A      1.203342  
     744A      1.207954   745A      1.210684   746A      1.223592  
     747A      1.225822   748A      1.229041   749A      1.229886  
     750A      1.230411   751A      1.232764   752A      1.239082  
     753A      1.243856   754A      1.245545   755A      1.249003  
     756A      1.250214   757A      1.251418   758A      1.253759  
     759A      1.255925   760A      1.257867   761A      1.259401  
     762A      1.267465   763A      1.271853   764A      1.274717  
     765A      1.275999   766A      1.278045   767A      1.278826  
     768A      1.281044   769A      1.286056   770A      1.287204  
     771A      1.288928   772A      1.290727   773A      1.293683  
     774A      1.296970   775A      1.306917   776A      1.308231  
     777A      1.310617   778A      1.318083   779A      1.327410  
     780A      1.333487   781A      1.334658   782A      1.339992  
     783A      1.340507   784A      1.341247   785A      1.342487  
     786A      1.344318   787A      1.352978   788A      1.354078  
     789A      1.355021   790A      1.357549   791A      1.362488  
     792A      1.364314   793A      1.366715   794A      1.367466  
     795A      1.368809   796A      1.369918   797A      1.370631  
     798A      1.377920   799A      1.378977   800A      1.379761  
     801A      1.385075   802A      1.390042   803A      1.400532  
     804A      1.403800   805A      1.406326   806A      1.417236  
     807A      1.421097   808A      1.444850   809A      1.445172  
     810A      1.445451   811A      1.447004   812A      1.464520  
     813A      1.476299   814A      1.488699   815A      1.497045  
     816A      1.507347   817A      1.517297   818A      1.522419  
     819A      1.526336   820A      1.530206   821A      1.531562  
     822A      1.534953   823A      1.535783   824A      1.536408  
     825A      1.537473   826A      1.541876   827A      1.544562  
     828A      1.547800   829A      1.552492   830A      1.555446  
     831A      1.562951   832A      1.564091   833A      1.566903  
     834A      1.567935   835A      1.569039   836A      1.571379  
     837A      1.580133   838A      1.581091   839A      1.586780  
     840A      1.587599   841A      1.591841   842A      1.596737  
     843A      1.598653   844A      1.599357   845A      1.600915  
     846A      1.602420   847A      1.604086   848A      1.607106  
     849A      1.608207   850A      1.612649   851A      1.613068  
     852A      1.614979   853A      1.622607   854A      1.624746  
     855A      1.625598   856A      1.627319   857A      1.627856  
     858A      1.630614   859A      1.633533   860A      1.642555  
     861A      1.644408   862A      1.648967   863A      1.658852  
     864A      1.666859   865A      1.674560   866A      1.676558  
     867A      1.688704   868A      1.689035   869A      1.690882  
     870A      1.691747   871A      1.703758   872A      1.703943  
     873A      1.708769   874A      1.718456   875A      1.718942  
     876A      1.724693   877A      1.737586   878A      1.744263  
     879A      1.745608   880A      1.747059   881A      1.748008  
     882A      1.748477   883A      1.753928   884A      1.758162  
     885A      1.760372   886A      1.767222   887A      1.767693  
     888A      1.773444   889A      1.786393   890A      1.788816  
     891A      1.790750   892A      1.791486   893A      1.794628  
     894A      1.795049   895A      1.798226   896A      1.798487  
     897A      1.801747   898A      1.804071   899A      1.804385  
     900A      1.820091   901A      1.822025   902A      1.823893  
     903A      1.826242   904A      1.829565   905A      1.831739  
     906A      1.832469   907A      1.833759   908A      1.834993  
     909A      1.837771   910A      1.842444   911A      1.843138  
     912A      1.844798   913A      1.845736   914A      1.847297  
     915A      1.848296   916A      1.849775   917A      1.856414  
     918A      1.862478   919A      1.867883   920A      1.871862  
     921A      1.872997   922A      1.873309   923A      1.876448  
     924A      1.878374   925A      1.880495   926A      1.881697  
     927A      1.882368   928A      1.883335   929A      1.883695  
     930A      1.884449   931A      1.896262   932A      1.904617  
     933A      1.905425   934A      1.909915   935A      1.915353  
     936A      1.917548   937A      1.923693   938A      1.926930  
     939A      1.927744   940A      1.928687   941A      1.937479  
     942A      1.937922   943A      1.940707   944A      1.942710  
     945A      1.951518   946A      1.953656   947A      1.956120  
     948A      1.957234   949A      1.957616   950A      1.958598  
     951A      1.959963   952A      1.961782   953A      1.965973  
     954A      1.975436   955A      1.977387   956A      1.979885  
     957A      1.980428   958A      1.986589   959A      1.988229  
     960A      1.988780   961A      1.994271   962A      1.999420  
     963A      2.000096   964A      2.000704   965A      2.003612  
     966A      2.005351   967A      2.007695   968A      2.010872  
     969A      2.013631   970A      2.017109   971A      2.019874  
     972A      2.022981   973A      2.025446   974A      2.027912  
     975A      2.028774   976A      2.030221   977A      2.034434  
     978A      2.034791   979A      2.037218   980A      2.037856  
     981A      2.039345   982A      2.041639   983A      2.045756  
     984A      2.046152   985A      2.046548   986A      2.047112  
     987A      2.048059   988A      2.049815   989A      2.055042  
     990A      2.056412   991A      2.059270   992A      2.061595  
     993A      2.064210   994A      2.065209   995A      2.066171  
     996A      2.070685   997A      2.071552   998A      2.077701  
     999A      2.084063  1000A      2.085114  1001A      2.088016  
    1002A      2.089421  1003A      2.094740  1004A      2.102799  
    1005A      2.105203  1006A      2.106329  1007A      2.111548  
    1008A      2.116584  1009A      2.118020  1010A      2.118964  
    1011A      2.120609  1012A      2.123257  1013A      2.125546  
    1014A      2.129077  1015A      2.133118  1016A      2.143851  
    1017A      2.144416  1018A      2.145266  1019A      2.150009  
    1020A      2.157190  1021A      2.162205  1022A      2.163707  
    1023A      2.173507  1024A      2.173956  1025A      2.174664  
    1026A      2.176056  1027A      2.177635  1028A      2.183760  
    1029A      2.188986  1030A      2.190675  1031A      2.192030  
    1032A      2.197166  1033A      2.197559  1034A      2.200529  
    1035A      2.203060  1036A      2.210904  1037A      2.212374  
    1038A      2.219076  1039A      2.229344  1040A      2.233675  
    1041A      2.236037  1042A      2.238416  1043A      2.244496  
    1044A      2.250978  1045A      2.252747  1046A      2.253968  
    1047A      2.257510  1048A      2.261096  1049A      2.271712  
    1050A      2.275746  1051A      2.276971  1052A      2.279304  
    1053A      2.280139  1054A      2.281009  1055A      2.291574  
    1056A      2.294277  1057A      2.298571  1058A      2.314048  
    1059A      2.319712  1060A      2.344057  1061A      2.346057  
    1062A      2.349792  1063A      2.349902  1064A      2.350406  
    1065A      2.363728  1066A      2.366747  1067A      2.368639  
    1068A      2.385673  1069A      2.391403  1070A      2.396071  
    1071A      2.402391  1072A      2.405548  1073A      2.413096  
    1074A      2.413414  1075A      2.432024  1076A      2.448700  
    1077A      2.455641  1078A      2.464738  1079A      2.473029  
    1080A      2.473890  1081A      2.474324  1082A      2.477372  
    1083A      2.483886  1084A      2.485371  1085A      2.486227  
    1086A      2.486841  1087A      2.498398  1088A      2.498672  
    1089A      2.500651  1090A      2.503634  1091A      2.504953  
    1092A      2.505443  1093A      2.513196  1094A      2.513495  
    1095A      2.516486  1096A      2.524189  1097A      2.531569  
    1098A      2.538438  1099A      2.542964  1100A      2.552139  
    1101A      2.553477  1102A      2.557326  1103A      2.557820  
    1104A      2.562218  1105A      2.570632  1106A      2.571187  
    1107A      2.580374  1108A      2.581134  1109A      2.587337  
    1110A      2.608997  1111A      2.610823  1112A      2.611521  
    1113A      2.622162  1114A      2.624081  1115A      2.625674  
    1116A      2.629883  1117A      2.637047  1118A      2.638088  
    1119A      2.643221  1120A      2.644169  1121A      2.649262  
    1122A      2.650500  1123A      2.664927  1124A      2.672965  
    1125A      2.681555  1126A      2.683289  1127A      2.702692  
    1128A      2.711180  1129A      2.715037  1130A      2.719398  
    1131A      2.720284  1132A      2.742990  1133A      2.748682  
    1134A      2.751433  1135A      2.754373  1136A      2.768271  
    1137A      2.769388  1138A      2.774621  1139A      2.777739  
    1140A      2.778628  1141A      2.780216  1142A      2.783419  
    1143A      2.785040  1144A      2.789717  1145A      2.794792  
    1146A      2.806266  1147A      2.826807  1148A      2.847514  
    1149A      2.848127  1150A      2.858129  1151A      2.862981  
    1152A      2.865718  1153A      2.880837  1154A      2.881872  
    1155A      2.888616  1156A      2.892472  1157A      2.939510  
    1158A      2.940452  1159A      2.943723  1160A      2.952631  
    1161A      2.975297  1162A      2.987827  1163A      2.988294  
    1164A      2.997133  1165A      2.998006  1166A      3.025471  
    1167A      3.039758  1168A      3.041713  1169A      3.056170  
    1170A      3.057802  1171A      3.059803  1172A      3.067505  
    1173A      3.074948  1174A      3.075125  1175A      3.075944  
    1176A      3.077836  1177A      3.079085  1178A      3.086133  
    1179A      3.087700  1180A      3.088612  1181A      3.095087  
    1182A      3.097449  1183A      3.114986  1184A      3.121063  
    1185A      3.139852  1186A      3.147952  1187A      3.172436  
    1188A      3.203367  1189A      3.203656  1190A      3.204219  
    1191A      3.210263  1192A      3.211335  1193A      3.342057  
    1194A      3.342500  1195A      3.363469  1196A      3.407763  
    1197A      3.409460  1198A      3.473394  1199A      3.494460  
    1200A      3.502082  1201A      3.503590  1202A      3.536339  
    1203A      3.553241  1204A      3.555360  1205A      3.572868  
    1206A      3.590796  1207A      3.600377  1208A      3.702448  
    1209A      3.709575  1210A      3.709620  1211A      3.797867  
    1212A      3.798704  1213A      3.839676  1214A      3.840263  
    1215A      3.901687  1216A      3.934208  1217A      3.966943  
    1218A      3.978329  1219A      4.022003  

    Final Occupation by Irrep:
              A 
    DOCC [   197 ]
    NA   [   197 ]
    NB   [   197 ]

  @DF-RHF Final Energy: -2359.21256571970798

   => Energetics <=

    Nuclear Repulsion Energy =           8206.9526377877955383
    One-Electron Energy =              -19514.3853428731563326
    Two-Electron Energy =                8948.2201393656523578
    Total Energy =                      -2359.2125657197084365

Computation Completed


Properties will be evaluated at   0.000000,   0.000000,   0.000000 [a0]

Properties computed using the SCF density matrix


 Multipole Moments:

 ------------------------------------------------------------------------------------
     Multipole            Electronic (a.u.)      Nuclear  (a.u.)        Total (a.u.)
 ------------------------------------------------------------------------------------

 L = 1.  Multiply by 2.5417464519 to convert [e a0] to [Debye]
 Dipole X            :         -0.0019577            0.0006313           -0.0013264
 Dipole Y            :         -0.0512086            0.0560211            0.0048125
 Dipole Z            :         17.1309157          -23.1340642           -6.0031486
 Magnitude           :                                                    6.0031506

 ------------------------------------------------------------------------------------

*** tstop() called on d-17-1-1 at Mon Jan 22 19:38:36 2024
Module time:
	user time   =    4132.84 seconds =      68.88 minutes
	system time =     200.00 seconds =       3.33 minutes
	total time  =       1222 seconds =      20.37 minutes
Total time:
	user time   =    4132.84 seconds =      68.88 minutes
	system time =     200.00 seconds =       3.33 minutes
	total time  =       1222 seconds =      20.37 minutes

  //>>>>>>>>>>>>>>>>>>>>>>>>>>>>>>>>>>>//
  //            Monomer A HF           //
  //<<<<<<<<<<<<<<<<<<<<<<<<<<<<<<<<<<<//

   => Libint2 <=

    Primary   basis highest AM E, G, H:  7, 7, 4
    Auxiliary basis highest AM E, G, H:  7, 7, 5
    Onebody   basis highest AM E, G, H:  7, 7, 5
    Solid Harmonics ordering:            gaussian

*** tstart() called on d-17-1-1
*** at Mon Jan 22 19:38:36 2024

   => Loading Basis Set <=

    Name: JUN-CC-PVDZ
    Role: ORBITAL
    Keyword: BASIS
    atoms 1-2, 4-5, 10, 17-70 entry C          line   164 file /home/gridsan/tfroembgen/.conda/envs/psi4test/share/psi4/basis/jun-cc-pvdz.gbs 
    atoms 3, 6                entry N          line   198 file /home/gridsan/tfroembgen/.conda/envs/psi4test/share/psi4/basis/jun-cc-pvdz.gbs 
    atoms 7-9, 11-16, 71-88   entry H          line    36 file /home/gridsan/tfroembgen/.conda/envs/psi4test/share/psi4/basis/jun-cc-pvdz.gbs 


         ---------------------------------------------------------
                                   SCF
               by Justin Turney, Rob Parrish, Andy Simmonett
                          and Daniel G. A. Smith
                              RHF Reference
                       12 Threads,  30517 MiB Core
         ---------------------------------------------------------

  ==> Geometry <==

    Molecular point group: c1
    Full point group: C1

    Geometry (in Angstrom), charge = 1, multiplicity = 1:

       Center              X                  Y                   Z               Mass       
    ------------   -----------------  -----------------  -----------------  -----------------
         C            0.680066520158    -0.008042372515    -5.405400721530    12.000000000000
         C           -0.680504479842    -0.006014372515    -5.405016721530    12.000000000000
         N           -1.085635479842    -0.005016372515    -4.086692721530    14.003074004430
         C            0.000107520158    -0.001740372515    -3.305291721530    12.000000000000
         C           -2.477365479842     0.044389627485    -3.618713721530    12.000000000000
         N            1.085221520158    -0.005016372515    -4.086692721530    14.003074004430
         H            1.385145520158    -0.015870372515    -6.222839721530     1.007825032230
         H           -1.385302479842    -0.006204372515    -6.222685721530     1.007825032230
         H           -0.000009479842     0.000006627485    -2.224202721530     1.007825032230
         C            2.478116520158    -0.021908372515    -3.621594721530    12.000000000000
         H            2.490591520158     0.005436627485    -2.531341721530     1.007825032230
         H            2.967027520158    -0.935354372515    -3.968770721530     1.007825032230
         H            3.001427520158     0.853574627485    -4.013066721530     1.007825032230
         H           -2.857359479842     1.066460627485    -3.698672721530     1.007825032230
         H           -3.082679479842    -0.625694372515    -4.231777721530     1.007825032230
         H           -2.518128479842    -0.282594372515    -2.578765721530     1.007825032230
      Gh(C)           1.225311895423     0.707538288405     0.616665905754    12.000000000000
      Gh(C)           1.225323856051    -0.707538895085     0.604335096184    12.000000000000
      Gh(C)          -0.000006153932     1.414965913575     0.603801472663    12.000000000000
      Gh(C)           2.456448753949     1.418327886663     0.619552763154    12.000000000000
      Gh(C)           0.000010827279    -1.414976499150     0.614001029987    12.000000000000
      Gh(C)          -1.225300948908     0.707545373469     0.618917426076    12.000000000000
      Gh(C)           2.456437755320    -1.418323304396     0.602089939327    12.000000000000
      Gh(C)          -0.000001332978     2.836801030766     0.601397922529    12.000000000000
      Gh(C)           3.681826697470     0.709317955486     0.602438729125    12.000000000000
      Gh(C)           2.455120048865     2.834223660974     0.602336172164    12.000000000000
      Gh(C)           3.681821105219    -0.709333839944     0.618511213143    12.000000000000
      Gh(C)          -1.225313598688    -0.707527516059     0.605407857610    12.000000000000
      Gh(C)           1.226699581202     3.543469483479     0.618695245074    12.000000000000
      Gh(C)           0.000004784858    -2.836782139751     0.618849197609    12.000000000000
      Gh(C)          -2.456436032848     1.418316917770     0.618952821922    12.000000000000
      Gh(C)           2.455123417779    -2.834230029103     0.618359304775    12.000000000000
      Gh(C)          -1.226714364589     3.543469063235     0.618798578293    12.000000000000
      Gh(C)           4.914517295202     1.427172871975     0.608919412154    12.000000000000
      Gh(C)           3.693150191476     3.542795292030     0.608969211790    12.000000000000
      Gh(C)          -2.456437600068    -1.418313281354     0.602064901202    12.000000000000
      Gh(C)           1.226704841943    -3.543474242421     0.602725114324    12.000000000000
      Gh(C)          -2.455125398508     2.834216662119     0.602342548510    12.000000000000
      Gh(C)           4.914524380782    -1.427186910459     0.611892154889    12.000000000000
      Gh(C)           1.221424613699     4.970134064745     0.612030589148    12.000000000000
      Gh(C)           4.893008229321     2.825187999512     0.610136080513    12.000000000000
      Gh(C)          -1.226697008489    -3.543470997592     0.602992318733    12.000000000000
      Gh(C)          -3.681818976526     0.709324966217     0.602451409605    12.000000000000
      Gh(C)           3.693147101150    -3.542801341905     0.612010045449    12.000000000000
      Gh(C)          -1.221432251994     4.970128297348     0.612214084521    12.000000000000
      Gh(C)           6.134770972926     0.680547946591     0.609689186704    12.000000000000
      Gh(C)           3.656788880610     4.972953243053     0.609877849573    12.000000000000
      Gh(C)          -2.455126907733    -2.834215093576     0.618114946977    12.000000000000
      Gh(C)          -3.681819179061    -0.709325703983     0.618628834722    12.000000000000
      Gh(C)           4.893012617914    -2.825200106147     0.610747232408    12.000000000000
      Gh(C)          -0.000001073113     5.650447365518     0.610982775814    12.000000000000
      Gh(C)           6.134775112332    -0.680554854590     0.610954507220    12.000000000000
      Gh(C)           2.478131482856     5.653576750817     0.611166629223    12.000000000000
      Gh(C)           1.221422404738    -4.970127055448     0.609231092126    12.000000000000
      Gh(C)          -3.693162383965     3.542796953677     0.609134719250    12.000000000000
      Gh(C)          -1.221428520945    -4.970118304111     0.609118330293    12.000000000000
      Gh(C)          -4.914521807942     1.427175446480     0.608996357162    12.000000000000
      Gh(C)           3.656787019679    -4.972955226754     0.611328350107    12.000000000000
      Gh(C)          -2.478138530106     5.653574422014     0.611451154231    12.000000000000
      Gh(C)          -3.693141738564    -3.542790219494     0.611893919294    12.000000000000
      Gh(C)          -4.914512483053    -1.427181000542     0.611926852062    12.000000000000
      Gh(C)          -0.000006008926    -5.650438287528     0.610587271693    12.000000000000
      Gh(C)          -4.893020484101     2.825188598404     0.610125998653    12.000000000000
      Gh(C)           2.478125993298    -5.653573544403     0.610237749315    12.000000000000
      Gh(C)          -3.656798710258     4.972956181527     0.610054529947    12.000000000000
      Gh(C)          -4.892999478856    -2.825191767575     0.610593196711    12.000000000000
      Gh(C)          -2.478128498083    -5.653566170521     0.609962561667    12.000000000000
      Gh(C)          -6.134770503331     0.680548765741     0.609663635002    12.000000000000
      Gh(C)          -3.656788833189    -4.972944023485     0.611114062290    12.000000000000
      Gh(C)          -6.134765042913    -0.680553915997     0.610934031425    12.000000000000
      Gh(H)           5.835288495816     3.369275894439     0.614495406176     1.007825032230
      Gh(H)           7.073859172747     1.228217248385     0.610150830097     1.007825032230
      Gh(H)           4.600663264174     5.512380801938     0.610383050325     1.007825032230
      Gh(H)           5.835283387305    -3.369306057244     0.606292765094     1.007825032230
      Gh(H)          -0.000012151306     6.738530673622     0.606633530806     1.007825032230
      Gh(H)           7.073861171831    -1.228226943259     0.610445769125     1.007825032230
      Gh(H)           2.473313731799     6.740684290880     0.610699908292     1.007825032230
      Gh(H)           4.600668491381    -5.512376129691     0.610918352939     1.007825032230
      Gh(H)          -2.473318680537     6.740681719092     0.611001254917     1.007825032230
      Gh(H)          -0.000010268228    -6.738528176967     0.615116956678     1.007825032230
      Gh(H)          -5.835301914343     3.369270949781     0.614631428324     1.007825032230
      Gh(H)           2.473307923831    -6.740685374944     0.610808079740     1.007825032230
      Gh(H)          -4.600674841208     5.512378026089     0.610548378649     1.007825032230
      Gh(H)          -5.835279506835    -3.369288964294     0.606013459213     1.007825032230
      Gh(H)          -2.473300347440    -6.740679078655     0.610358763195     1.007825032230
      Gh(H)          -7.073857766768     1.228220472326     0.610066838616     1.007825032230
      Gh(H)          -4.600673786085    -5.512362670301     0.610746044916     1.007825032230
      Gh(H)          -7.073856934409    -1.228220632492     0.610350912659     1.007825032230

  Running in c1 symmetry.

  Rotational constants: A =      0.00175  B =      0.00171  C =      0.00109 [cm^-1]
  Rotational constants: A =     52.48887  B =     51.21592  C =     32.71081 [MHz]
  Nuclear repulsion =  306.774908447733139

  Charge       = 1
  Multiplicity = 1
  Electrons    = 52
  Nalpha       = 26
  Nbeta        = 26

  ==> Algorithm <==

  SCF Algorithm Type is DF.
  DIIS enabled.
  MOM disabled.
  Fractional occupation disabled.
  Guess Type is SAD.
  Energy threshold   = 1.00e-08
  Density threshold  = 1.00e-08
  Integral threshold = 1.00e-12

  ==> Primary Basis <==

  Basis Set: JUN-CC-PVDZ
    Blend: JUN-CC-PVDZ
    Number of shells: 569
    Number of basis functions: 1233
    Number of Cartesian functions: 1294
    Spherical Harmonics?: true
    Max angular momentum: 2

   => Loading Basis Set <=

    Name: (JUN-CC-PVDZ AUX)
    Role: JKFIT
    Keyword: DF_BASIS_SCF
    atoms 1-2, 4-5, 10, 17-70 entry C          line   146 file /home/gridsan/tfroembgen/.conda/envs/psi4test/share/psi4/basis/jun-cc-pvdz-jkfit.gbs 
    atoms 3, 6                entry N          line   202 file /home/gridsan/tfroembgen/.conda/envs/psi4test/share/psi4/basis/jun-cc-pvdz-jkfit.gbs 
    atoms 7-9, 11-16, 71-88   entry H          line    70 file /home/gridsan/tfroembgen/.conda/envs/psi4test/share/psi4/basis/jun-cc-pvdz-jkfit.gbs 

  ==> Integral Setup <==

  ==> DiskDFJK: Density-Fitted J/K Matrices <==

    J tasked:                  Yes
    K tasked:                  Yes
    wK tasked:                  No
    OpenMP threads:             12
    Integrals threads:          12
    Memory [MiB]:            22888
    Algorithm:                Disk
    Integral Cache:           LOAD
    Schwarz Cutoff:          1E-12
    Fitting Condition:       1E-10

   => Auxiliary Basis Set <=

  Basis Set: (JUN-CC-PVDZ AUX)
    Blend: JUN-CC-PVDZ-JKFIT
    Number of shells: 1890
    Number of basis functions: 5440
    Number of Cartesian functions: 6226
    Spherical Harmonics?: true
    Max angular momentum: 3

  Minimum eigenvalue in the overlap matrix is 7.2086494484E-10.
  Reciprocal condition number of the overlap matrix is 3.0770077838E-11.
    Using canonical orthogonalization.
  Overall, 14 of 1233 possible MOs eliminated.


  ==> Pre-Iterations <==

  SCF Guess: Superposition of Atomic Densities via on-the-fly atomic UHF (no occupation information).

   -------------------------
    Irrep   Nso     Nmo    
   -------------------------
     A       1233    1219 
   -------------------------
    Total    1233    1219
   -------------------------

  ==> Iterations <==

                           Total Energy        Delta E     RMS |[F,P]|

   @DF-RHF iter SAD:  -303.36535841204386   -3.03365e+02   0.00000e+00 
   @DF-RHF iter   1:  -303.16992723230254    1.95431e-01   3.44551e-04 DIIS/ADIIS
   @DF-RHF iter   2:  -303.28434838540755   -1.14421e-01   1.16014e-04 DIIS/ADIIS
   @DF-RHF iter   3:  -303.29584121804601   -1.14928e-02   4.54572e-05 DIIS
   @DF-RHF iter   4:  -303.29775867108441   -1.91745e-03   9.94479e-06 DIIS
   @DF-RHF iter   5:  -303.29786587033328   -1.07199e-04   2.43073e-06 DIIS
   @DF-RHF iter   6:  -303.29787530521429   -9.43488e-06   6.56784e-07 DIIS
   @DF-RHF iter   7:  -303.29787639311741   -1.08790e-06   3.34667e-07 DIIS
   @DF-RHF iter   8:  -303.29787665096188   -2.57844e-07   1.34665e-07 DIIS
   @DF-RHF iter   9:  -303.29787670042049   -4.94586e-08   3.37390e-08 DIIS
   @DF-RHF iter  10:  -303.29787670324487   -2.82438e-09   1.26160e-08 DIIS
   @DF-RHF iter  11:  -303.29787670348736   -2.42494e-10   2.97609e-09 DIIS
  Energy and wave function converged.


  ==> Post-Iterations <==

    Orbital Energies [Eh]
    ---------------------

    Doubly Occupied:                                                      

       1A    -15.834554     2A    -15.834017     3A    -11.529370  
       4A    -11.459724     5A    -11.458168     6A    -11.449627  
       7A    -11.449511     8A     -1.577923     9A     -1.433539  
      10A     -1.238387    11A     -1.189107    12A     -1.118706  
      13A     -1.022269    14A     -0.996701    15A     -0.916828  
      16A     -0.850321    17A     -0.816034    18A     -0.812935  
      19A     -0.789896    20A     -0.786082    21A     -0.781532  
      22A     -0.729566    23A     -0.725655    24A     -0.717034  
      25A     -0.596070    26A     -0.523656  

    Virtual:                                                              

      27A     -0.079109    28A     -0.073112    29A     -0.061827  
      30A     -0.053733    31A     -0.041685    32A     -0.039319  
      33A     -0.039245    34A     -0.037926    35A     -0.036693  
      36A     -0.027864    37A     -0.026799    38A     -0.019173  
      39A     -0.016769    40A     -0.014039    41A     -0.012817  
      42A     -0.012136    43A     -0.010381    44A     -0.008455  
      45A     -0.007150    46A      0.000720    47A      0.004049  
      48A      0.004917    49A      0.009186    50A      0.009735  
      51A      0.011020    52A      0.013464    53A      0.016636  
      54A      0.019370    55A      0.019948    56A      0.023102  
      57A      0.024754    58A      0.030092    59A      0.031503  
      60A      0.032646    61A      0.038600    62A      0.040915  
      63A      0.041249    64A      0.041628    65A      0.043414  
      66A      0.043862    67A      0.046624    68A      0.052989  
      69A      0.053978    70A      0.055109    71A      0.056780  
      72A      0.057863    73A      0.058816    74A      0.061682  
      75A      0.062071    76A      0.062338    77A      0.062720  
      78A      0.064288    79A      0.066878    80A      0.071552  
      81A      0.071665    82A      0.076450    83A      0.077523  
      84A      0.078136    85A      0.078222    86A      0.079230  
      87A      0.082282    88A      0.082778    89A      0.084788  
      90A      0.086284    91A      0.089389    92A      0.090888  
      93A      0.091219    94A      0.091766    95A      0.094696  
      96A      0.095088    97A      0.098853    98A      0.103798  
      99A      0.104407   100A      0.104964   101A      0.107349  
     102A      0.107626   103A      0.108297   104A      0.109791  
     105A      0.112851   106A      0.113340   107A      0.114048  
     108A      0.116484   109A      0.117081   110A      0.119948  
     111A      0.120268   112A      0.121162   113A      0.121572  
     114A      0.122785   115A      0.125112   116A      0.125644  
     117A      0.128323   118A      0.129702   119A      0.130791  
     120A      0.132542   121A      0.137630   122A      0.138269  
     123A      0.138605   124A      0.141614   125A      0.143399  
     126A      0.144197   127A      0.146758   128A      0.147234  
     129A      0.148857   130A      0.149903   131A      0.152247  
     132A      0.155499   133A      0.155991   134A      0.158229  
     135A      0.158436   136A      0.159917   137A      0.163101  
     138A      0.164103   139A      0.165935   140A      0.166975  
     141A      0.167890   142A      0.169671   143A      0.170418  
     144A      0.172035   145A      0.172440   146A      0.176075  
     147A      0.176528   148A      0.178171   149A      0.178896  
     150A      0.179524   151A      0.181781   152A      0.182267  
     153A      0.182943   154A      0.184159   155A      0.184783  
     156A      0.185929   157A      0.186337   158A      0.189231  
     159A      0.191521   160A      0.195357   161A      0.198946  
     162A      0.203149   163A      0.203999   164A      0.205105  
     165A      0.206499   166A      0.208712   167A      0.211385  
     168A      0.212959   169A      0.213777   170A      0.214235  
     171A      0.215149   172A      0.215773   173A      0.217279  
     174A      0.217562   175A      0.222806   176A      0.223590  
     177A      0.223822   178A      0.224479   179A      0.226731  
     180A      0.228782   181A      0.229171   182A      0.234473  
     183A      0.235144   184A      0.236003   185A      0.237019  
     186A      0.238029   187A      0.238943   188A      0.241068  
     189A      0.242520   190A      0.244233   191A      0.246317  
     192A      0.252113   193A      0.254343   194A      0.258873  
     195A      0.260163   196A      0.262627   197A      0.264949  
     198A      0.265146   199A      0.265329   200A      0.265762  
     201A      0.266201   202A      0.269317   203A      0.270587  
     204A      0.272031   205A      0.275605   206A      0.279563  
     207A      0.281107   208A      0.281547   209A      0.281765  
     210A      0.282539   211A      0.284655   212A      0.286968  
     213A      0.288660   214A      0.290535   215A      0.290643  
     216A      0.291967   217A      0.293069   218A      0.295253  
     219A      0.296181   220A      0.299342   221A      0.301804  
     222A      0.306226   223A      0.308058   224A      0.311891  
     225A      0.313658   226A      0.314406   227A      0.315060  
     228A      0.315943   229A      0.317892   230A      0.323370  
     231A      0.325120   232A      0.325475   233A      0.328013  
     234A      0.333124   235A      0.336463   236A      0.339518  
     237A      0.339731   238A      0.341139   239A      0.345872  
     240A      0.347939   241A      0.353572   242A      0.354973  
     243A      0.355734   244A      0.357674   245A      0.359676  
     246A      0.360667   247A      0.362642   248A      0.364325  
     249A      0.367097   250A      0.368020   251A      0.369015  
     252A      0.370969   253A      0.375303   254A      0.375757  
     255A      0.377323   256A      0.379694   257A      0.382502  
     258A      0.384550   259A      0.385570   260A      0.385706  
     261A      0.387990   262A      0.390877   263A      0.391595  
     264A      0.394303   265A      0.395639   266A      0.396432  
     267A      0.397382   268A      0.398029   269A      0.399552  
     270A      0.400867   271A      0.403402   272A      0.403922  
     273A      0.404724   274A      0.405840   275A      0.406992  
     276A      0.408922   277A      0.412750   278A      0.415857  
     279A      0.417493   280A      0.422793   281A      0.425424  
     282A      0.426328   283A      0.426737   284A      0.428494  
     285A      0.430814   286A      0.432658   287A      0.439514  
     288A      0.439691   289A      0.443915   290A      0.445775  
     291A      0.446519   292A      0.448917   293A      0.452806  
     294A      0.453558   295A      0.454043   296A      0.456239  
     297A      0.458747   298A      0.459720   299A      0.460793  
     300A      0.461734   301A      0.463006   302A      0.463517  
     303A      0.466759   304A      0.473549   305A      0.474248  
     306A      0.475544   307A      0.477472   308A      0.479492  
     309A      0.485848   310A      0.490956   311A      0.493753  
     312A      0.494839   313A      0.497549   314A      0.497781  
     315A      0.500703   316A      0.502268   317A      0.503710  
     318A      0.505230   319A      0.506867   320A      0.510218  
     321A      0.511370   322A      0.513057   323A      0.513738  
     324A      0.517428   325A      0.520233   326A      0.522124  
     327A      0.526224   328A      0.527481   329A      0.528865  
     330A      0.530467   331A      0.534204   332A      0.537193  
     333A      0.540118   334A      0.544224   335A      0.544965  
     336A      0.548667   337A      0.551247   338A      0.553086  
     339A      0.554883   340A      0.556429   341A      0.557711  
     342A      0.559471   343A      0.560816   344A      0.561856  
     345A      0.565123   346A      0.569938   347A      0.571279  
     348A      0.573089   349A      0.573230   350A      0.575620  
     351A      0.580341   352A      0.590868   353A      0.593125  
     354A      0.596015   355A      0.596611   356A      0.599921  
     357A      0.601585   358A      0.604523   359A      0.605848  
     360A      0.606908   361A      0.607858   362A      0.611473  
     363A      0.613492   364A      0.616970   365A      0.619696  
     366A      0.619949   367A      0.621291   368A      0.623076  
     369A      0.624165   370A      0.627512   371A      0.629470  
     372A      0.631328   373A      0.634700   374A      0.637618  
     375A      0.645514   376A      0.646766   377A      0.649213  
     378A      0.650860   379A      0.664914   380A      0.667209  
     381A      0.673454   382A      0.677257   383A      0.677380  
     384A      0.678885   385A      0.684925   386A      0.685538  
     387A      0.686232   388A      0.686844   389A      0.689343  
     390A      0.690316   391A      0.692251   392A      0.692519  
     393A      0.694047   394A      0.694705   395A      0.696169  
     396A      0.697695   397A      0.700042   398A      0.706436  
     399A      0.706945   400A      0.716245   401A      0.717076  
     402A      0.717737   403A      0.718053   404A      0.722430  
     405A      0.723783   406A      0.729057   407A      0.730446  
     408A      0.731203   409A      0.735655   410A      0.737610  
     411A      0.740495   412A      0.746446   413A      0.753701  
     414A      0.755696   415A      0.768475   416A      0.771762  
     417A      0.772854   418A      0.774229   419A      0.774931  
     420A      0.775749   421A      0.779054   422A      0.784887  
     423A      0.788470   424A      0.790321   425A      0.793465  
     426A      0.799883   427A      0.803461   428A      0.805657  
     429A      0.807529   430A      0.810292   431A      0.814434  
     432A      0.818983   433A      0.820631   434A      0.822185  
     435A      0.823192   436A      0.829814   437A      0.837054  
     438A      0.841434   439A      0.845056   440A      0.847301  
     441A      0.852517   442A      0.866772   443A      0.868659  
     444A      0.879697   445A      0.884536   446A      0.885339  
     447A      0.885850   448A      0.891773   449A      0.891946  
     450A      0.893219   451A      0.901887   452A      0.917275  
     453A      0.922935   454A      0.925083   455A      0.927858  
     456A      0.928389   457A      0.931573   458A      0.933316  
     459A      0.945166   460A      0.946357   461A      0.956392  
     462A      0.957668   463A      0.965943   464A      0.980596  
     465A      0.983430   466A      0.987947   467A      0.988348  
     468A      0.990550   469A      0.990642   470A      1.008885  
     471A      1.020990   472A      1.027701   473A      1.027934  
     474A      1.029425   475A      1.031809   476A      1.034461  
     477A      1.062945   478A      1.071462   479A      1.074241  
     480A      1.076616   481A      1.081077   482A      1.083397  
     483A      1.085699   484A      1.096562   485A      1.106450  
     486A      1.107701   487A      1.107972   488A      1.112721  
     489A      1.118177   490A      1.119094   491A      1.129532  
     492A      1.135056   493A      1.141485   494A      1.141587  
     495A      1.146991   496A      1.148230   497A      1.152024  
     498A      1.164485   499A      1.167283   500A      1.179475  
     501A      1.213951   502A      1.215534   503A      1.216560  
     504A      1.225809   505A      1.227169   506A      1.227816  
     507A      1.237857   508A      1.245340   509A      1.246247  
     510A      1.247615   511A      1.249227   512A      1.289479  
     513A      1.290477   514A      1.291588   515A      1.357573  
     516A      1.360219   517A      1.361704   518A      1.367077  
     519A      1.368551   520A      1.379896   521A      1.380048  
     522A      1.380665   523A      1.385144   524A      1.387343  
     525A      1.401659   526A      1.403224   527A      1.420813  
     528A      1.426446   529A      1.441819   530A      1.454574  
     531A      1.460390   532A      1.469857   533A      1.475015  
     534A      1.475471   535A      1.480897   536A      1.490263  
     537A      1.494989   538A      1.499023   539A      1.518814  
     540A      1.533236   541A      1.550413   542A      1.555593  
     543A      1.560806   544A      1.568504   545A      1.570800  
     546A      1.576285   547A      1.577114   548A      1.581742  
     549A      1.595077   550A      1.602680   551A      1.604755  
     552A      1.613143   553A      1.614363   554A      1.629146  
     555A      1.633596   556A      1.666344   557A      1.669800  
     558A      1.670456   559A      1.671746   560A      1.672722  
     561A      1.676352   562A      1.678054   563A      1.679239  
     564A      1.683832   565A      1.688593   566A      1.689309  
     567A      1.692236   568A      1.697094   569A      1.701548  
     570A      1.710317   571A      1.713835   572A      1.714811  
     573A      1.716267   574A      1.724177   575A      1.729825  
     576A      1.731391   577A      1.733328   578A      1.736668  
     579A      1.745917   580A      1.747117   581A      1.748859  
     582A      1.750594   583A      1.752269   584A      1.753715  
     585A      1.754863   586A      1.759095   587A      1.767792  
     588A      1.769028   589A      1.770579   590A      1.773237  
     591A      1.776756   592A      1.780731   593A      1.782059  
     594A      1.782115   595A      1.784963   596A      1.789580  
     597A      1.791022   598A      1.801427   599A      1.804850  
     600A      1.806796   601A      1.807998   602A      1.809086  
     603A      1.810888   604A      1.815534   605A      1.818615  
     606A      1.820578   607A      1.823837   608A      1.826467  
     609A      1.827023   610A      1.827449   611A      1.828821  
     612A      1.832082   613A      1.840687   614A      1.841928  
[...]
     805A      1.698136   806A      1.699198   807A      1.701350  
     808A      1.702818   809A      1.705062   810A      1.705138  
     811A      1.715954   812A      1.717781   813A      1.725047  
     814A      1.735194   815A      1.741934   816A      1.751836  
     817A      1.753341   818A      1.760581   819A      1.761441  
     820A      1.761798   821A      1.763047   822A      1.777314  
     823A      1.777529   824A      1.779336   825A      1.789467  
     826A      1.793163   827A      1.793442   828A      1.811479  
     829A      1.817923   830A      1.818749   831A      1.818832  
     832A      1.825099   833A      1.825703   834A      1.828473  
     835A      1.832805   836A      1.834053   837A      1.841953  
     838A      1.842949   839A      1.852495   840A      1.862782  
     841A      1.864790   842A      1.865642   843A      1.866430  
     844A      1.867511   845A      1.868206   846A      1.873925  
     847A      1.879850   848A      1.880564   849A      1.889810  
     850A      1.894813   851A      1.895615   852A      1.897740  
     853A      1.902738   854A      1.903577   855A      1.904913  
     856A      1.909828   857A      1.911050   858A      1.915101  
     859A      1.916730   860A      1.917580   861A      1.918386  
     862A      1.918992   863A      1.920883   864A      1.922150  
     865A      1.922857   866A      1.927780   867A      1.944771  
     868A      1.945116   869A      1.946204   870A      1.947461  
     871A      1.948483   872A      1.952485   873A      1.953258  
     874A      1.957135   875A      1.957494   876A      1.958574  
     877A      1.959022   878A      1.961585   879A      1.964060  
     880A      1.968324   881A      1.982952   882A      1.985582  
     883A      1.985693   884A      1.996640   885A      1.997384  
     886A      1.999737   887A      2.000872   888A      2.002066  
     889A      2.008085   890A      2.010313   891A      2.014773  
     892A      2.015041   893A      2.019383   894A      2.029179  
     895A      2.031590   896A      2.031660   897A      2.032293  
     898A      2.033346   899A      2.035802   900A      2.039882  
     901A      2.050423   902A      2.052945   903A      2.053170  
     904A      2.058565   905A      2.059391   906A      2.062188  
     907A      2.062431   908A      2.065111   909A      2.066915  
     910A      2.071865   911A      2.074701   912A      2.075271  
     913A      2.078481   914A      2.079344   915A      2.082598  
     916A      2.082971   917A      2.088216   918A      2.090279  
     919A      2.094613   920A      2.095977   921A      2.097557  
     922A      2.099234   923A      2.101563   924A      2.103015  
     925A      2.105170   926A      2.106124   927A      2.109374  
     928A      2.110170   929A      2.111517   930A      2.113827  
     931A      2.114949   932A      2.117193   933A      2.120164  
     934A      2.120574   935A      2.121454   936A      2.122634  
     937A      2.125326   938A      2.127363   939A      2.128232  
     940A      2.133596   941A      2.135319   942A      2.136799  
     943A      2.137050   944A      2.140118   945A      2.143814  
     946A      2.144108   947A      2.149452   948A      2.156733  
     949A      2.157631   950A      2.158344   951A      2.160935  
     952A      2.163347   953A      2.164622   954A      2.171601  
     955A      2.173745   956A      2.178267   957A      2.180242  
     958A      2.181362   959A      2.189697   960A      2.191582  
     961A      2.192742   962A      2.193794   963A      2.194517  
     964A      2.194892   965A      2.197587   966A      2.207295  
     967A      2.216834   968A      2.219529   969A      2.220136  
     970A      2.220866   971A      2.221699   972A      2.229258  
     973A      2.231112   974A      2.234403   975A      2.237471  
     976A      2.239503   977A      2.244789   978A      2.245341  
     979A      2.245670   980A      2.248120   981A      2.250004  
     982A      2.252296   983A      2.260458   984A      2.263076  
     985A      2.270549   986A      2.271280   987A      2.272842  
     988A      2.274043   989A      2.281304   990A      2.288327  
     991A      2.290780   992A      2.302442   993A      2.306833  
     994A      2.313052   995A      2.315747   996A      2.317956  
     997A      2.326689   998A      2.329915   999A      2.330883  
    1000A      2.334408  1001A      2.338122  1002A      2.339247  
    1003A      2.342442  1004A      2.351387  1005A      2.353094  
    1006A      2.354342  1007A      2.354553  1008A      2.364545  
    1009A      2.367339  1010A      2.370786  1011A      2.372382  
    1012A      2.382062  1013A      2.388601  1014A      2.395953  
    1015A      2.401282  1016A      2.416776  1017A      2.424701  
    1018A      2.424759  1019A      2.424919  1020A      2.429862  
    1021A      2.436692  1022A      2.441217  1023A      2.445769  
    1024A      2.458888  1025A      2.471393  1026A      2.475447  
    1027A      2.477737  1028A      2.485552  1029A      2.487000  
    1030A      2.494771  1031A      2.500629  1032A      2.512401  
    1033A      2.513207  1034A      2.522469  1035A      2.527285  
    1036A      2.529610  1037A      2.536589  1038A      2.545214  
    1039A      2.547760  1040A      2.547946  1041A      2.553097  
    1042A      2.555191  1043A      2.555355  1044A      2.559631  
    1045A      2.560369  1046A      2.560572  1047A      2.570052  
    1048A      2.573455  1049A      2.573544  1050A      2.575769  
    1051A      2.576783  1052A      2.586092  1053A      2.588076  
    1054A      2.588940  1055A      2.591217  1056A      2.596653  
    1057A      2.612104  1058A      2.624154  1059A      2.625274  
    1060A      2.625909  1061A      2.633037  1062A      2.633436  
    1063A      2.634794  1064A      2.642176  1065A      2.642578  
    1066A      2.652234  1067A      2.653713  1068A      2.663153  
    1069A      2.668548  1070A      2.680384  1071A      2.683833  
    1072A      2.685639  1073A      2.690234  1074A      2.693434  
    1075A      2.700110  1076A      2.702160  1077A      2.704747  
    1078A      2.707332  1079A      2.712300  1080A      2.713814  
    1081A      2.713918  1082A      2.719377  1083A      2.719624  
    1084A      2.724328  1085A      2.726312  1086A      2.753988  
    1087A      2.754809  1088A      2.759707  1089A      2.768011  
    1090A      2.777945  1091A      2.784278  1092A      2.786872  
    1093A      2.797137  1094A      2.798437  1095A      2.824320  
    1096A      2.828299  1097A      2.831395  1098A      2.854637  
    1099A      2.856466  1100A      2.857436  1101A      2.858709  
    1102A      2.862423  1103A      2.863137  1104A      2.874746  
    1105A      2.887019  1106A      2.903583  1107A      2.918212  
    1108A      2.920112  1109A      2.920877  1110A      2.927611  
    1111A      2.928981  1112A      2.935860  1113A      2.937130  
    1114A      2.947488  1115A      2.949473  1116A      2.964180  
    1117A      2.965464  1118A      2.984349  1119A      2.999155  
    1120A      3.012259  1121A      3.017748  1122A      3.021924  
    1123A      3.023084  1124A      3.046185  1125A      3.060170  
    1126A      3.064950  1127A      3.065157  1128A      3.073288  
    1129A      3.076492  1130A      3.081486  1131A      3.102701  
    1132A      3.115352  1133A      3.116373  1134A      3.132125  
    1135A      3.133495  1136A      3.135134  1137A      3.140848  
    1138A      3.148832  1139A      3.149744  1140A      3.150056  
    1141A      3.150630  1142A      3.152429  1143A      3.161841  
    1144A      3.162420  1145A      3.168441  1146A      3.170703  
    1147A      3.178979  1148A      3.193120  1149A      3.211566  
    1150A      3.223379  1151A      3.246407  1152A      3.278191  
    1153A      3.278380  1154A      3.279759  1155A      3.285477  
    1156A      3.285912  1157A      3.298667  1158A      3.339721  
    1159A      3.382795  1160A      3.419075  1161A      3.419522  
    1162A      3.448563  1163A      3.470028  1164A      3.486339  
    1165A      3.490380  1166A      3.542670  1167A      3.554323  
    1168A      3.581229  1169A      3.582679  1170A      3.604456  
    1171A      3.623918  1172A      3.630192  1173A      3.631819  
    1174A      3.655691  1175A      3.665892  1176A      3.675969  
    1177A      3.763152  1178A      3.779356  1179A      3.787439  
    1180A      3.788012  1181A      3.827753  1182A      3.871606  
    1183A      3.871875  1184A      3.876017  1185A      3.914239  
    1186A      3.914496  1187A      3.978854  1188A      3.989268  
    1189A      4.011610  1190A      4.049343  1191A      4.061487  
    1192A      4.102194  1193A      4.220341  1194A      4.229352  
    1195A      4.405299  1196A      4.410885  1197A      4.506019  
    1198A      4.773771  1199A      4.843183  1200A      4.845431  
    1201A      4.871219  1202A      4.961318  1203A      5.076970  
    1204A      5.079349  1205A      5.088047  1206A      5.127969  
    1207A      5.190181  1208A      5.408607  1209A      5.436654  
    1210A      5.754258  1211A      5.778422  1212A      6.076843  
    1213A     18.204063  1214A     18.475186  1215A     18.494207  
    1216A     18.580175  1217A     18.848574  1218A     25.351608  
    1219A     25.386931  

    Final Occupation by Irrep:
              A 
    DOCC [   171 ]
    NA   [   171 ]
    NB   [   171 ]

  @DF-RHF Final Energy: -2055.89449039524334

   => Energetics <=

    Nuclear Repulsion Energy =           6452.5568002797781446
    One-Electron Energy =              -15636.5072211533370137
    Two-Electron Energy =                7128.0559304783164407
    Total Energy =                      -2055.8944903952433378

Computation Completed


Properties will be evaluated at   0.000000,   0.000000,   0.000000 [a0]

Properties computed using the SCF density matrix


 Multipole Moments:

 ------------------------------------------------------------------------------------
     Multipole            Electronic (a.u.)      Nuclear  (a.u.)        Total (a.u.)
 ------------------------------------------------------------------------------------

 L = 1.  Multiply by 2.5417464519 to convert [e a0] to [Debye]
 Dipole X            :         -0.0000563           -0.0000085           -0.0000649
 Dipole Y            :         -0.0002531            0.0000167           -0.0002364
 Dipole Z            :       -394.5694042          394.5746405            0.0052363
 Magnitude           :                                                    0.0052420

 ------------------------------------------------------------------------------------

*** tstop() called on d-17-1-1 at Mon Jan 22 19:52:31 2024
Module time:
	user time   =    2740.08 seconds =      45.67 minutes
	system time =     170.37 seconds =       2.84 minutes
	total time  =        435 seconds =       7.25 minutes
Total time:
	user time   =    8615.02 seconds =     143.58 minutes
	system time =     573.93 seconds =       9.57 minutes
	total time  =       2057 seconds =      34.28 minutes
  Constructing Basis Sets for SAPT...

   => Loading Basis Set <=

    Name: (JUN-CC-PVDZ AUX)
    Role: RIFIT
    Keyword: DF_BASIS_SAPT
    atoms 1-2, 4-5, 10, 17-70 entry C          line   100 file /home/gridsan/tfroembgen/.conda/envs/psi4test/share/psi4/basis/jun-cc-pvdz-ri.gbs 
    atoms 3, 6                entry N          line   144 file /home/gridsan/tfroembgen/.conda/envs/psi4test/share/psi4/basis/jun-cc-pvdz-ri.gbs 
    atoms 7-9, 11-16, 71-88   entry H          line    30 file /home/gridsan/tfroembgen/.conda/envs/psi4test/share/psi4/basis/jun-cc-pvdz-ri.gbs 

   => Loading Basis Set <=

    Name: (JUN-CC-PVDZ AUX)
    Role: JKFIT
    Keyword: DF_BASIS_ELST
    atoms 1-2, 4-5, 10, 17-70 entry C          line   146 file /home/gridsan/tfroembgen/.conda/envs/psi4test/share/psi4/basis/jun-cc-pvdz-jkfit.gbs 
    atoms 3, 6                entry N          line   202 file /home/gridsan/tfroembgen/.conda/envs/psi4test/share/psi4/basis/jun-cc-pvdz-jkfit.gbs 
    atoms 7-9, 11-16, 71-88   entry H          line    70 file /home/gridsan/tfroembgen/.conda/envs/psi4test/share/psi4/basis/jun-cc-pvdz-jkfit.gbs 


  //>>>>>>>>>>>>>>>>>>>>>>>>>>>>>>>>>>>//
  //               SSAPT0              //
  //<<<<<<<<<<<<<<<<<<<<<<<<<<<<<<<<<<<//


*** tstart() called on d-17-1-1
*** at Mon Jan 22 19:52:32 2024

        SAPT0  
    Ed Hohenstein
     6 June 2009

      Orbital Information
  --------------------------
    NSO        =      1233
    NMO        =      1219
    NRI        =      4343
    NRI (Elst) =      5440
    NOCC A     =        26
    NOCC B     =       171
    FOCC A     =         7
    FOCC B     =        54
    NVIR A     =      1193
    NVIR B     =      1048

    Elst10,r            =    -0.012652239937 [Eh]
    Exch10              =     0.002498515936 [Eh]
    Exch10 (S^2)        =     0.002496332913 [Eh]

    Iter     Energy [mEh]          dE [mEh]         Residual      Time [s]
       1      -0.14623509       0.146235092       2.327180911           327
       2      -0.15347877       0.007243677       0.696305919           808
       3      -0.16395918       0.010480413       0.126800242          1163
       4      -0.16380866      -0.000150526       0.060834063          1410
       5      -0.16359379      -0.000214871       0.018999256          1700
       6      -0.16363567       0.000041883       0.007208595          1924
       7      -0.16365529       0.000019621       0.001895495          2229
       8      -0.16365412      -0.000001168       0.000608655          2465
       9      -0.16365247      -0.000001647       0.000197296          2709
      10      -0.16365235      -0.000000129       0.000060570          2951
      11      -0.16365248       0.000000139       0.000017999          3177
      12      -0.16365251       0.000000021       0.000005427          3360
      13      -0.16365250      -0.000000008       0.000001626          3652
      14      -0.16365250      -0.000000002       0.000000495          3923

    CHF Iterations converged


    Iter     Energy [mEh]          dE [mEh]         Residual      Time [s]
       1     -13.28675981      13.286759809      60.341017989           197
       2      -9.09789658      -4.188863227       8.088574344           353
       3      -9.12819076       0.030294180       2.950808543           375
       4      -9.36462924       0.236438480       0.675459511           396
       5      -9.37741825       0.012789008       0.209257129           419
       6      -9.37160501      -0.005813245       0.105252452           443
       7      -9.37001824      -0.001586771       0.042879186           463
       8      -9.37072946       0.000711220       0.022465301           485
       9      -9.37105352       0.000324061       0.009300806           513
      10      -9.37097972      -0.000073798       0.007275500           547
      11      -9.37090466      -0.000075058       0.003957699           568
      12      -9.37092174       0.000017082       0.001923618           590
      13      -9.37094582       0.000024082       0.000922084           615
      14      -9.37094122      -0.000004600       0.000585644           635
      15      -9.37093517      -0.000006057       0.000264410           670
      16      -9.37093602       0.000000848       0.000126749           755
      17      -9.37093761       0.000001591       0.000043298           776
      18      -9.37093761       0.000000005       0.000018738           796
      19      -9.37093743      -0.000000178       0.000010966           858
      20      -9.37093737      -0.000000062       0.000004860           890
      21      -9.37093743       0.000000061       0.000002233           910
      22      -9.37093744       0.000000003       0.000001071           940
      23      -9.37093743      -0.000000009       0.000000653           972

    CHF Iterations converged

    Ind20,r (A<-B)      =    -0.000163652496 [Eh]
    Ind20,r (B<-A)      =    -0.009370937429 [Eh]
    Ind20,r             =    -0.009534589925 [Eh]
    Exch-Ind20,r (A<-B) =     0.000115636339 [Eh]
    Exch-Ind20,r (B<-A) =     0.000373378905 [Eh]
    Exch-Ind20,r        =     0.000489015244 [Eh]
    Disp20              =    -0.011907842852 [Eh]
    Disp20 (SS)         =    -0.005953921426 [Eh]
    Disp20 (OS)         =    -0.005953921426 [Eh]
    Exch-Disp20         =     0.000274551110 [Eh]
    Exch-Disp20 (SS)    =     0.000170470796 [Eh]
    Exch-Disp20 (OS)    =     0.000104080314 [Eh]

    SAPT Results 
  --------------------------------------------------------------------------------------------------------
    Electrostatics                -12.65223994 [mEh]      -7.93940042 [kcal/mol]     -33.21845138 [kJ/mol]
      Elst10,r                    -12.65223994 [mEh]      -7.93940042 [kcal/mol]     -33.21845138 [kJ/mol]

    Exchange                        2.49851594 [mEh]       1.56784242 [kcal/mol]       6.55985269 [kJ/mol]
      Exch10                        2.49851594 [mEh]       1.56784242 [kcal/mol]       6.55985269 [kJ/mol]
      Exch10(S^2)                   2.49633291 [mEh]       1.56647255 [kcal/mol]       6.55412116 [kJ/mol]

    Induction                     -10.04489698 [mEh]      -6.30326802 [kcal/mol]     -26.37287338 [kJ/mol]
      Ind20,r                      -9.53458992 [mEh]      -5.98304551 [kcal/mol]     -25.03306240 [kJ/mol]
      Exch-Ind20,r                  0.48901524 [mEh]       0.30686170 [kcal/mol]       1.28390935 [kJ/mol]
      delta HF,r (2)               -0.99932230 [mEh]      -0.62708421 [kcal/mol]      -2.62372033 [kJ/mol]

    Dispersion                    -11.63329174 [mEh]      -7.30000078 [kcal/mol]     -30.54320326 [kJ/mol]
      Disp20                      -11.90784285 [mEh]      -7.47228420 [kcal/mol]     -31.26403710 [kJ/mol]
      Exch-Disp20                   0.27455111 [mEh]       0.17228342 [kcal/mol]       0.72083384 [kJ/mol]
      Disp20 (SS)                  -5.95392143 [mEh]      -3.73614210 [kcal/mol]     -15.63201855 [kJ/mol]
      Disp20 (OS)                  -5.95392143 [mEh]      -3.73614210 [kcal/mol]     -15.63201855 [kJ/mol]
      Exch-Disp20 (SS)              0.17047080 [mEh]       0.10697204 [kcal/mol]       0.44757101 [kJ/mol]
      Exch-Disp20 (OS)              0.10408031 [mEh]       0.06531138 [kcal/mol]       0.27326283 [kJ/mol]

  Total HF                        -20.19862098 [mEh]     -12.67482602 [kcal/mol]     -53.03147207 [kJ/mol]
  Total SAPT0                     -31.83191272 [mEh]     -19.97482680 [kcal/mol]     -83.57467533 [kJ/mol]

  Special recipe for scaled SAPT0 (see Manual):
    Electrostatics sSAPT0         -12.65223994 [mEh]      -7.93940042 [kcal/mol]     -33.21845138 [kJ/mol]
    Exchange sSAPT0                 2.49851594 [mEh]       1.56784242 [kcal/mol]       6.55985269 [kJ/mol]
    Induction sSAPT0              -10.04361293 [mEh]      -6.30246227 [kcal/mol]     -26.36950213 [kJ/mol]
    Dispersion sSAPT0             -11.63257083 [mEh]      -7.29954840 [kcal/mol]     -30.54131052 [kJ/mol]
  Total sSAPT0                    -31.82990777 [mEh]     -19.97356867 [kcal/mol]     -83.56941133 [kJ/mol]
  --------------------------------------------------------------------------------------------------------

*** tstop() called on d-17-1-1 at Mon Jan 22 22:03:53 2024
Module time:
	user time   =    9157.17 seconds =     152.62 minutes
	system time =    1159.43 seconds =      19.32 minutes
	total time  =       7881 seconds =     131.35 minutes
Total time:
	user time   =   17773.17 seconds =     296.22 minutes
	system time =    1733.38 seconds =      28.89 minutes
	total time  =       9939 seconds =     165.65 minutes

    Psi4 stopped on: Monday, 22 January 2024 10:03PM
    Psi4 wall time for execution: 2:45:41.00

*** Psi4 exiting successfully. Buy a developer a beer!
