
    -----------------------------------------------------------------------
          Psi4: An Open-Source Ab Initio Electronic Structure Package
                               Psi4 1.9 release

                         Git: Rev {} zzzzzzz 


    D. G. A. Smith, L. A. Burns, A. C. Simmonett, R. M. Parrish,
    M. C. Schieber, R. Galvelis, P. Kraus, H. Kruse, R. Di Remigio,
    A. Alenaizan, A. M. James, S. Lehtola, J. P. Misiewicz, M. Scheurer,
    R. A. Shaw, J. B. Schriber, Y. Xie, Z. L. Glick, D. A. Sirianni,
    J. S. O'Brien, J. M. Waldrop, A. Kumar, E. G. Hohenstein,
    B. P. Pritchard, B. R. Brooks, H. F. Schaefer III, A. Yu. Sokolov,
    K. Patkowski, A. E. DePrince III, U. Bozkaya, R. A. King,
    F. A. Evangelista, J. M. Turney, T. D. Crawford, C. D. Sherrill,
    J. Chem. Phys. 152(18) 184108 (2020). https://doi.org/10.1063/5.0006002

                            Additional Code Authors
    E. T. Seidl, C. L. Janssen, E. F. Valeev, M. L. Leininger,
    J. F. Gonthier, R. M. Richard, H. R. McAlexander, M. Saitow, X. Wang,
    P. Verma, M. H. Lechner, A. Jiang, S. Behnle, A. G. Heide,
    M. F. Herbst, and D. L. Poole

             Previous Authors, Complete List of Code Contributors,
                       and Citations for Specific Modules
    https://github.com/psi4/psi4/blob/master/codemeta.json
    https://github.com/psi4/psi4/graphs/contributors
    http://psicode.org/psi4manual/master/introduction.html#citing-psifour

    -----------------------------------------------------------------------


    Psi4 started on: Monday, 22 January 2024 04:43PM

    Process ID: 885268
    Host:       d-16-13-4
    PSIDATADIR: /home/gridsan/tfroembgen/.conda/envs/psi4test/share/psi4
    Memory:     500.0 MiB
    Threads:    12
    
  ==> Input File <==

--------------------------------------------------------------------------
memory 32 GB # how much memory is available ! Depends on the nodes/cores !

molecule dimer {
# monomer A
+1 1    # Charge and multiplicity
C  0.680067 -1.215929 4.208042
C -0.680504 -1.215545 4.206014
N -1.085635  0.102779 4.205016
C  0.000108  0.884180 4.201740
C -2.477365  0.570758 4.155610
N  1.085222  0.102779 4.205016
H  1.385146 -2.033368 4.215870
H -1.385302 -2.033214 4.206204
H -0.000009  1.965269 4.199993
C  2.478117  0.567877 4.221908
H  2.490592  1.658130 4.194563
H  2.967028  0.220701 5.135354
H  3.001428  0.176405 3.346425
H -2.857359  0.490799 3.133539
H -3.082679 -0.042306 4.825694
H -2.518128  1.610706 4.482594
--
# monomer B
0 1     # Charge and multiplicity
C   1.22531237526482      0.70753866091955      0.00613762728373
C   1.22532433589282     -0.70753852257020     -0.00619318228664
C   -0.00000567409046      1.41496628609039     -0.00672680580738
C   2.45644923379077      1.41832825917820      0.00902448468363
C   0.00001130712078     -1.41497612663474      0.00347275151708
C   -1.22530046906674      0.70754574598412      0.00838914760619
C   2.45643823516184     -1.41832293188077     -0.00843833914343
C   -0.00000085313587      2.83680140328112     -0.00913035594137
C   3.68182717731192      0.70931832800114     -0.00808954934571
C   2.45512052870677      2.83422403348893     -0.00819210630633
C   3.68182158506039     -0.70933346742900      0.00798293467272
C   -1.22531311884624     -0.70752714354401     -0.00512042085974
C   1.22670006104402      3.54346985599427      0.00816696660346
C   0.00000526469929     -2.83678176723568      0.00832091913869
C   -2.45643555300670      1.41831729028492      0.00842454345199
C   2.45512389762097     -2.83422965658853      0.00783102630520
C   -1.22671388474763      3.54346943575023      0.00827029982280
C   4.91451777504333      1.42717324448953     -0.00160886631602
C   3.69315067131765      3.54279566454522     -0.00155906667985
C   -2.45643712022637     -1.41831290883911     -0.00846337726810
C   1.22670532178455     -3.54347386990643     -0.00780316414624
C   -2.45512491866593      2.83421703463423     -0.00818572995999
C   4.91452486062398     -1.42718653794377      0.00136387641845
C   1.22142509354026      4.97013443726031      0.00150231067809
C   4.89300870916237      2.82518837202648     -0.00039219795739
C   -1.22669652864725     -3.54347062507680     -0.00753595973677
C   -3.68181849668397      0.70932533873199     -0.00807686886569
C   3.69314758099218     -3.54280096939050      0.00148176697923
C   -1.22143177215231      4.97012866986289      0.00168580605083
C   6.13477145276790      0.68054831910577     -0.00083909176631
C   3.65678936045204      4.97295361556775     -0.00065042889723
C   -2.45512642789169     -2.83421472106065      0.00758666850712
C   -3.68181869921921     -0.70932533146830      0.00810055625144
C   4.89301309775526     -2.82519973363176      0.00021895393805
C   -0.00000059327114      5.65044773803267      0.00045449734393
C   6.13477559217374     -0.68055448207492      0.00042622874941
C   2.47813196269732      5.65357712333155      0.00063835075260
C   1.22142288457925     -4.97012668293268     -0.00129718634452
C   -3.69316190412301      3.54279732619245     -0.00139355922051
C   -1.22142804110313     -4.97011793159564     -0.00140994817719
C   -4.91452132810043      1.42717581899491     -0.00153192130862
C   3.65678749952045     -4.97295485423912      0.00080007163680
C   -2.47813805026426      5.65357479452875      0.00092287576113
C   -3.69314125872231     -3.54278984697859      0.00136564082345
C   -4.91451200321153     -1.42718062802730      0.00139857359209
C   -0.00000552908399     -5.65043791501335      0.00005899322272
C   -4.89302000425900      2.82518897091939     -0.00040227981744
C   2.47812647313991     -5.65357317188818     -0.00029052915548
C   -3.65679823041642      4.97295655404175     -0.00047374852278
C   -4.89299899901461     -2.82519139505969      0.00006491824035
C   -2.47812801824129     -5.65356579800621     -0.00056571680280
C   -6.13477002348955      0.68054913825639     -0.00086464346868
C   -3.65678835334731     -4.97294365097028      0.00058578382008
C   -6.13476456307132     -0.68055354348201      0.00040575295444
H   5.83528897565761      3.36927626695423      0.00396712770529
H   7.07385965258860      1.22821762089947     -0.00037744837300
H   4.60066374401555      5.51238117445323     -0.00014522814529
H   5.83528386714679     -3.36930568472863     -0.00423551337640
H   -0.00001167146422      6.73853104613662     -0.00389474766392
H   7.07386165167227     -1.22822657074368     -0.00008250934481
H   2.47331421164041      6.74068466339473      0.00017162982210
H   4.60066897122302     -5.51237575717576      0.00039007446835
H   -2.47331820069565      6.74068209160650      0.00047297644710
H   -0.00000978838621     -6.73852780445195      0.00458867820736
H   -5.83530143450167      3.36927132229595      0.00410314985360
H   2.47330840367253     -6.74068500242887      0.00027980126949
H   -4.60067436136587      5.51237839860371      0.00002010017831
H   -5.83527902699321     -3.36928859177951     -0.00451481925734
H   -2.47329986759855     -6.74067870613986     -0.00016951527498
H   -7.07385728692578      1.22822084484047     -0.00046143985387
H   -4.60067330624313     -5.51236229778631      0.00021776644566
H   -7.07385645456741     -1.22822025997701     -0.00017736581114

    units angstrom      # Angstroms are the default
    no_reorient         # Geometry fixed, default
    symmetry c1         # C1 symmetry, default
}

set {
    scf_type DF         # Density fitting, faster than exact integrals
    freeze_core True    # Freeze core electrons
    basis jun-cc-pVDZ   # Jun-cc-pVDZ basis set, recommended for sSAPT0 in https://doi.org/10.1063/1.4867135
}

energy('ssapt0')        # Compute sSAPT0 energy, includes also SAPT0
--------------------------------------------------------------------------

  Memory set to  29.802 GiB by Python driver.

Scratch directory: /state/partition1/slurm_tmp/24798241.4294967291.0/
   => Loading Basis Set <=

    Name: JUN-CC-PVDZ
    Role: ORBITAL
    Keyword: BASIS
    atoms 1-2, 4-5, 10, 17-70 entry C          line   164 file /home/gridsan/tfroembgen/.conda/envs/psi4test/share/psi4/basis/jun-cc-pvdz.gbs 
    atoms 3, 6                entry N          line   198 file /home/gridsan/tfroembgen/.conda/envs/psi4test/share/psi4/basis/jun-cc-pvdz.gbs 
    atoms 7-9, 11-16, 71-88   entry H          line    36 file /home/gridsan/tfroembgen/.conda/envs/psi4test/share/psi4/basis/jun-cc-pvdz.gbs 

   => Loading Basis Set <=

    Name: JUN-CC-PVDZ
    Role: ORBITAL
    Keyword: BASIS
    atoms 1-2, 4-5, 10, 17-70 entry C          line   164 file /home/gridsan/tfroembgen/.conda/envs/psi4test/share/psi4/basis/jun-cc-pvdz.gbs 
    atoms 3, 6                entry N          line   198 file /home/gridsan/tfroembgen/.conda/envs/psi4test/share/psi4/basis/jun-cc-pvdz.gbs 
    atoms 7-9, 11-16, 71-88   entry H          line    36 file /home/gridsan/tfroembgen/.conda/envs/psi4test/share/psi4/basis/jun-cc-pvdz.gbs 


  //>>>>>>>>>>>>>>>>>>>>>>>>>>>>>>>>>>>//
  //              Dimer HF             //
  //<<<<<<<<<<<<<<<<<<<<<<<<<<<<<<<<<<<//

   => Libint2 <=

    Primary   basis highest AM E, G, H:  7, 7, 4
    Auxiliary basis highest AM E, G, H:  7, 7, 5
    Onebody   basis highest AM E, G, H:  7, 7, 5
    Solid Harmonics ordering:            gaussian

*** tstart() called on d-16-13-4
*** at Mon Jan 22 16:43:54 2024

   => Loading Basis Set <=

    Name: JUN-CC-PVDZ
    Role: ORBITAL
    Keyword: BASIS
    atoms 1-2, 4-5, 10, 17-70 entry C          line   164 file /home/gridsan/tfroembgen/.conda/envs/psi4test/share/psi4/basis/jun-cc-pvdz.gbs 
    atoms 3, 6                entry N          line   198 file /home/gridsan/tfroembgen/.conda/envs/psi4test/share/psi4/basis/jun-cc-pvdz.gbs 
    atoms 7-9, 11-16, 71-88   entry H          line    36 file /home/gridsan/tfroembgen/.conda/envs/psi4test/share/psi4/basis/jun-cc-pvdz.gbs 


         ---------------------------------------------------------
                                   SCF
               by Justin Turney, Rob Parrish, Andy Simmonett
                          and Daniel G. A. Smith
                              RHF Reference
                       12 Threads,  30517 MiB Core
         ---------------------------------------------------------

  ==> Geometry <==

    Molecular point group: c1
    Full point group: C1

    Geometry (in Angstrom), charge = 1, multiplicity = 1:

       Center              X                  Y                   Z               Mass       
    ------------   -----------------  -----------------  -----------------  -----------------
         C            0.680066520158    -1.215933861162     3.673829950344    12.000000000000
         C           -0.680504479842    -1.215549861162     3.671801950344    12.000000000000
         N           -1.085635479842     0.102774138838     3.670803950344    14.003074004430
         C            0.000107520158     0.884175138838     3.667527950344    12.000000000000
         C           -2.477365479842     0.570753138838     3.621397950344    12.000000000000
         N            1.085221520158     0.102774138838     3.670803950344    14.003074004430
         H            1.385145520158    -2.033372861162     3.681657950344     1.007825032230
         H           -1.385302479842    -2.033218861162     3.671991950344     1.007825032230
         H           -0.000009479842     1.965264138838     3.665780950344     1.007825032230
         C            2.478116520158     0.567872138838     3.687695950344    12.000000000000
         H            2.490591520158     1.658125138838     3.660350950344     1.007825032230
         H            2.967027520158     0.220696138838     4.601141950344     1.007825032230
         H            3.001427520158     0.176400138838     2.812212950344     1.007825032230
         H           -2.857359479842     0.490794138838     2.599326950344     1.007825032230
         H           -3.082679479842    -0.042310861162     4.291481950344     1.007825032230
         H           -2.518128479842     1.610701138838     3.948381950344     1.007825032230
         C            1.225311895423     0.707533799757    -0.528074422372    12.000000000000
         C            1.225323856051    -0.707543383733    -0.540405231942    12.000000000000
         C           -0.000006153932     1.414961424928    -0.540938855463    12.000000000000
         C            2.456448753949     1.418323398016    -0.525187564972    12.000000000000
         C            0.000010827279    -1.414980987797    -0.530739298139    12.000000000000
         C           -1.225300948908     0.707540884822    -0.525822902050    12.000000000000
         C            2.456437755320    -1.418327793043    -0.542650388799    12.000000000000
         C           -0.000001332978     2.836796542119    -0.543342405597    12.000000000000
         C            3.681826697470     0.709313466839    -0.542301599001    12.000000000000
         C            2.455120048865     2.834219172327    -0.542404155962    12.000000000000
         C            3.681821105219    -0.709338328591    -0.526229114983    12.000000000000
         C           -1.225313598688    -0.707532004706    -0.539332470516    12.000000000000
         C            1.226699581202     3.543464994832    -0.526045083052    12.000000000000
         C            0.000004784858    -2.836786628398    -0.525891130517    12.000000000000
         C           -2.456436032848     1.418312429123    -0.525787506204    12.000000000000
         C            2.455123417779    -2.834234517751    -0.526381023351    12.000000000000
         C           -1.226714364589     3.543464574588    -0.525941749833    12.000000000000
         C            4.914517295202     1.427168383327    -0.535820915972    12.000000000000
         C            3.693150191476     3.542790803383    -0.535771116336    12.000000000000
         C           -2.456437600068    -1.418317770001    -0.542675426924    12.000000000000
         C            1.226704841943    -3.543478731069    -0.542015213802    12.000000000000
         C           -2.455125398508     2.834212173472    -0.542397779616    12.000000000000
         C            4.914524380782    -1.427191399106    -0.532848173237    12.000000000000
         C            1.221424613699     4.970129576098    -0.532709738978    12.000000000000
         C            4.893008229321     2.825183510864    -0.534604247613    12.000000000000
         C           -1.226697008489    -3.543475486239    -0.541748009393    12.000000000000
         C           -3.681818976526     0.709320477570    -0.542288918521    12.000000000000
         C            3.693147101150    -3.542805830553    -0.532730282677    12.000000000000
         C           -1.221432251994     4.970123808701    -0.532526243605    12.000000000000
         C            6.134770972926     0.680543457943    -0.535051141422    12.000000000000
         C            3.656788880610     4.972948754405    -0.534862478553    12.000000000000
         C           -2.455126907733    -2.834219582223    -0.526625381149    12.000000000000
         C           -3.681819179061    -0.709330192631    -0.526111493404    12.000000000000
         C            4.893012617914    -2.825204594794    -0.533993095718    12.000000000000
         C           -0.000001073113     5.650442876870    -0.533757552312    12.000000000000
         C            6.134775112332    -0.680559343237    -0.533785820906    12.000000000000
         C            2.478131482856     5.653572262169    -0.533573698903    12.000000000000
         C            1.221422404738    -4.970131544095    -0.535509236000    12.000000000000
         C           -3.693162383965     3.542792465030    -0.535605608876    12.000000000000
         C           -1.221428520945    -4.970122792758    -0.535621997833    12.000000000000
         C           -4.914521807942     1.427170957833    -0.535743970964    12.000000000000
         C            3.656787019679    -4.972959715401    -0.533411978019    12.000000000000
         C           -2.478138530106     5.653569933366    -0.533289173895    12.000000000000
         C           -3.693141738564    -3.542794708141    -0.532846408832    12.000000000000
         C           -4.914512483053    -1.427185489190    -0.532813476064    12.000000000000
         C           -0.000006008926    -5.650442776176    -0.534153056433    12.000000000000
         C           -4.893020484101     2.825184109757    -0.534614329473    12.000000000000
         C            2.478125993298    -5.653578033051    -0.534502578811    12.000000000000
         C           -3.656798710258     4.972951692879    -0.534685798179    12.000000000000
         C           -4.892999478856    -2.825196256222    -0.534147131415    12.000000000000
         C           -2.478128498083    -5.653570659169    -0.534777766459    12.000000000000
         C           -6.134770503331     0.680544277094    -0.535076693124    12.000000000000
         C           -3.656788833189    -4.972948512133    -0.533626265836    12.000000000000
         C           -6.134765042913    -0.680558404644    -0.533806296701    12.000000000000
         H            5.835288495816     3.369271405792    -0.530244921950     1.007825032230
         H            7.073859172747     1.228212759737    -0.534589498029     1.007825032230
         H            4.600663264174     5.512376313291    -0.534357277801     1.007825032230
         H            5.835283387305    -3.369310545891    -0.538447563032     1.007825032230
         H           -0.000012151306     6.738526184974    -0.538106797320     1.007825032230
         H            7.073861171831    -1.228231431906    -0.534294559001     1.007825032230
         H            2.473313731799     6.740679802232    -0.534040419834     1.007825032230
         H            4.600668491381    -5.512380618338    -0.533821975187     1.007825032230
         H           -2.473318680537     6.740677230444    -0.533739073209     1.007825032230
         H           -0.000010268228    -6.738532665614    -0.529623371448     1.007825032230
         H           -5.835301914343     3.369266461134    -0.530108899802     1.007825032230
         H            2.473307923831    -6.740689863591    -0.533932248386     1.007825032230
         H           -4.600674841208     5.512373537441    -0.534191949477     1.007825032230
         H           -5.835279506835    -3.369293452942    -0.538726868913     1.007825032230
         H           -2.473300347440    -6.740683567302    -0.534381564931     1.007825032230
         H           -7.073857766768     1.228215983678    -0.534673489510     1.007825032230
         H           -4.600673786085    -5.512367158949    -0.533994283210     1.007825032230
         H           -7.073856934409    -1.228225121139    -0.534389415467     1.007825032230

  Running in c1 symmetry.

  Rotational constants: A =      0.00184  B =      0.00180  C =      0.00109 [cm^-1]
  Rotational constants: A =     55.10722  B =     54.09469  C =     32.56832 [MHz]
  Nuclear repulsion = 8293.806155849057177

  Charge       = 1
  Multiplicity = 1
  Electrons    = 394
  Nalpha       = 197
  Nbeta        = 197

  ==> Algorithm <==

  SCF Algorithm Type is DF.
  DIIS enabled.
  MOM disabled.
  Fractional occupation disabled.
  Guess Type is SAD.
  Energy threshold   = 1.00e-08
  Density threshold  = 1.00e-08
  Integral threshold = 1.00e-12

  ==> Primary Basis <==

  Basis Set: JUN-CC-PVDZ
    Blend: JUN-CC-PVDZ
    Number of shells: 569
    Number of basis functions: 1233
    Number of Cartesian functions: 1294
    Spherical Harmonics?: true
    Max angular momentum: 2

   => Loading Basis Set <=

    Name: (JUN-CC-PVDZ AUX)
    Role: JKFIT
    Keyword: DF_BASIS_SCF
    atoms 1-2, 4-5, 10, 17-70 entry C          line   146 file /home/gridsan/tfroembgen/.conda/envs/psi4test/share/psi4/basis/jun-cc-pvdz-jkfit.gbs 
    atoms 3, 6                entry N          line   202 file /home/gridsan/tfroembgen/.conda/envs/psi4test/share/psi4/basis/jun-cc-pvdz-jkfit.gbs 
    atoms 7-9, 11-16, 71-88   entry H          line    70 file /home/gridsan/tfroembgen/.conda/envs/psi4test/share/psi4/basis/jun-cc-pvdz-jkfit.gbs 

  ==> Integral Setup <==

  ==> DiskDFJK: Density-Fitted J/K Matrices <==

    J tasked:                  Yes
    K tasked:                  Yes
    wK tasked:                  No
    OpenMP threads:             12
    Integrals threads:          12
    Memory [MiB]:            22888
    Algorithm:                Disk
    Integral Cache:           SAVE
    Schwarz Cutoff:          1E-12
    Fitting Condition:       1E-10

   => Auxiliary Basis Set <=

  Basis Set: (JUN-CC-PVDZ AUX)
    Blend: JUN-CC-PVDZ-JKFIT
    Number of shells: 1890
    Number of basis functions: 5440
    Number of Cartesian functions: 6226
    Spherical Harmonics?: true
    Max angular momentum: 3

  Minimum eigenvalue in the overlap matrix is 7.5480008808E-10.
  Reciprocal condition number of the overlap matrix is 3.1612605663E-11.
    Using canonical orthogonalization.
  Overall, 14 of 1233 possible MOs eliminated.


  ==> Pre-Iterations <==

  SCF Guess: Superposition of Atomic Densities via on-the-fly atomic UHF (no occupation information).

   -------------------------
    Irrep   Nso     Nmo    
   -------------------------
     A       1233    1219 
   -------------------------
    Total    1233    1219
   -------------------------

  ==> Iterations <==

                           Total Energy        Delta E     RMS |[F,P]|

   @DF-RHF iter SAD: -2365.51266687408770   -2.36551e+03   0.00000e+00 
   @DF-RHF iter   1: -2358.21313738793924    7.29953e+00   9.44890e-04 DIIS/ADIIS
   @DF-RHF iter   2: -2359.10559494494828   -8.92458e-01   3.22499e-04 DIIS/ADIIS
   @DF-RHF iter   3: -2359.19635793647967   -9.07630e-02   1.19994e-04 DIIS/ADIIS
   @DF-RHF iter   4: -2359.20971840214634   -1.33605e-02   4.44875e-05 DIIS
   @DF-RHF iter   5: -2359.21163987785303   -1.92148e-03   1.08791e-05 DIIS
   @DF-RHF iter   6: -2359.21182713153303   -1.87254e-04   5.29116e-06 DIIS
   @DF-RHF iter   7: -2359.21189944111575   -7.23096e-05   2.33191e-06 DIIS
   @DF-RHF iter   8: -2359.21192077402793   -2.13329e-05   1.13327e-06 DIIS
   @DF-RHF iter   9: -2359.21192613034373   -5.35632e-06   2.79879e-07 DIIS
   @DF-RHF iter  10: -2359.21192639788160   -2.67538e-07   1.00676e-07 DIIS
   @DF-RHF iter  11: -2359.21192641785910   -1.99775e-08   4.40724e-08 DIIS
   @DF-RHF iter  12: -2359.21192642208871   -4.22961e-09   2.41490e-08 DIIS
   @DF-RHF iter  13: -2359.21192642334154   -1.25283e-09   6.86681e-09 DIIS
  Energy and wave function converged.


  ==> Post-Iterations <==

    Orbital Energies [Eh]
    ---------------------

    Doubly Occupied:                                                      

       1A    -15.806053     2A    -15.805473     3A    -11.501173  
       4A    -11.431721     5A    -11.430170     6A    -11.422350  
       7A    -11.421500     8A    -11.341829     9A    -11.341303  
      10A    -11.340991    11A    -11.340207    12A    -11.340129  
      13A    -11.339334    14A    -11.338386    15A    -11.338096  
      16A    -11.338031    17A    -11.337549    18A    -11.337454  
      19A    -11.336253    20A    -11.335825    21A    -11.335607  
      22A    -11.335572    23A    -11.335412    24A    -11.334749  
      25A    -11.334667    26A    -11.334607    27A    -11.334531  
      28A    -11.334299    29A    -11.334231    30A    -11.333896  
      31A    -11.333691    32A    -11.333681    33A    -11.333540  
      34A    -11.333387    35A    -11.333348    36A    -11.333326  
      37A    -11.333260    38A    -11.333223    39A    -11.333192  
      40A    -11.332624    41A    -11.332604    42A    -11.331931  
      43A    -11.331870    44A    -11.326449    45A    -11.326280  
      46A    -11.325938    47A    -11.325550    48A    -11.325546  
      49A    -11.324704    50A    -11.324479    51A    -11.324406  
      52A    -11.324329    53A    -11.324279    54A    -11.323070  
      55A    -11.323053    56A    -11.323037    57A    -11.322966  
      58A    -11.322892    59A    -11.322842    60A    -11.321617  
      61A    -11.321602    62A     -1.549213    63A     -1.404995  
      64A     -1.323395    65A     -1.297588    66A     -1.296951  
      67A     -1.265848    68A     -1.265753    69A     -1.258564  
      70A     -1.232552    71A     -1.224896    72A     -1.212815  
      73A     -1.212335    74A     -1.210048    75A     -1.187966  
      76A     -1.187947    77A     -1.161033    78A     -1.158973  
      79A     -1.158943    80A     -1.155110    81A     -1.140363  
      82A     -1.140359    83A     -1.114654    84A     -1.101739  
      85A     -1.099328    86A     -1.098973    87A     -1.092311  
      88A     -1.090951    89A     -1.086741    90A     -1.063210  
      91A     -1.063079    92A     -1.036603    93A     -1.036552  
      94A     -0.994037    95A     -0.969506    96A     -0.969408  
      97A     -0.968594    98A     -0.965174    99A     -0.963126  
     100A     -0.962883   101A     -0.957634   102A     -0.957571  
     103A     -0.936545   104A     -0.910461   105A     -0.893242  
     106A     -0.893176   107A     -0.888992   108A     -0.888156  
     109A     -0.887931   110A     -0.868681   111A     -0.868638  
     112A     -0.823229   113A     -0.821942   114A     -0.821002  
     115A     -0.809557   116A     -0.809288   117A     -0.806300  
     118A     -0.806228   119A     -0.791842   120A     -0.788335  
     121A     -0.784802   122A     -0.773802   123A     -0.773492  
     124A     -0.768960   125A     -0.768650   126A     -0.761991  
     127A     -0.758330   128A     -0.753826   129A     -0.735107  
     130A     -0.728535   131A     -0.727364   132A     -0.723965  
     133A     -0.723917   134A     -0.713823   135A     -0.713634  
     136A     -0.705050   137A     -0.702963   138A     -0.702903  
     139A     -0.702287   140A     -0.698522   141A     -0.690225  
     142A     -0.686156   143A     -0.677518   144A     -0.677140  
     145A     -0.674080   146A     -0.673707   147A     -0.669331  
     148A     -0.667867   149A     -0.667582   150A     -0.657785  
     151A     -0.655090   152A     -0.654220   153A     -0.641862  
     154A     -0.641610   155A     -0.640656   156A     -0.640552  
     157A     -0.634270   158A     -0.628422   159A     -0.628210  
     160A     -0.614912   161A     -0.614830   162A     -0.612296  
     163A     -0.612282   164A     -0.606576   165A     -0.604389  
     166A     -0.597552   167A     -0.597252   168A     -0.573945  
     169A     -0.570945   170A     -0.567260   171A     -0.567144  
     172A     -0.563834   173A     -0.560651   174A     -0.556610  
     175A     -0.556511   176A     -0.548455   177A     -0.547971  
     178A     -0.527657   179A     -0.527398   180A     -0.513598  
     181A     -0.513565   182A     -0.495037   183A     -0.482051  
     184A     -0.481896   185A     -0.480463   186A     -0.449379  
     187A     -0.449230   188A     -0.424871   189A     -0.417042  
     190A     -0.416065   191A     -0.415348   192A     -0.386022  
     193A     -0.370951   194A     -0.361927   195A     -0.361864  
     196A     -0.300329   197A     -0.300177  

    Virtual:                                                              

     198A     -0.061495   199A     -0.061342   200A     -0.050828  
     201A     -0.035534   202A     -0.031439   203A     -0.027585  
     204A     -0.016913   205A     -0.013911   206A     -0.012357  
     207A     -0.012193   208A     -0.009055   209A     -0.007283  
     210A     -0.005897   211A      0.000203   212A      0.000677  
     213A      0.001324   214A      0.002624   215A      0.004322  
     216A      0.005741   217A      0.011220   218A      0.012004  
     219A      0.012614   220A      0.015347   221A      0.016008  
     222A      0.017835   223A      0.018268   224A      0.018380  
     225A      0.020747   226A      0.023097   227A      0.024087  
     228A      0.026686   229A      0.029324   230A      0.029692  
     231A      0.034268   232A      0.034367   233A      0.041759  
     234A      0.045098   235A      0.045811   236A      0.046853  
     237A      0.049343   238A      0.050158   239A      0.051441  
     240A      0.051762   241A      0.053114   242A      0.053997  
     243A      0.054959   244A      0.058075   245A      0.060479  
     246A      0.060907   247A      0.062766   248A      0.070382  
     249A      0.070657   250A      0.072203   251A      0.076504  
     252A      0.076603   253A      0.076870   254A      0.080365  
     255A      0.080654   256A      0.083317   257A      0.085790  
     258A      0.087096   259A      0.090038   260A      0.091169  
     261A      0.092711   262A      0.094182   263A      0.096742  
     264A      0.100599   265A      0.102358   266A      0.104807  
     267A      0.106880   268A      0.108160   269A      0.111156  
     270A      0.111871   271A      0.112699   272A      0.113339  
     273A      0.115487   274A      0.117541   275A      0.119211  
     276A      0.121231   277A      0.121505   278A      0.122531  
     279A      0.125680   280A      0.127867   281A      0.128040  
     282A      0.130528   283A      0.133930   284A      0.136462  
     285A      0.137513   286A      0.142151   287A      0.143609  
     288A      0.144920   289A      0.145789   290A      0.148243  
     291A      0.150312   292A      0.150450   293A      0.150714  
     294A      0.150805   295A      0.151595   296A      0.151859  
     297A      0.152469   298A      0.153645   299A      0.156988  
     300A      0.159161   301A      0.161245   302A      0.162416  
     303A      0.163659   304A      0.164685   305A      0.166249  
     306A      0.168367   307A      0.169159   308A      0.170642  
     309A      0.171331   310A      0.173461   311A      0.173837  
     312A      0.175695   313A      0.179071   314A      0.179406  
     315A      0.182272   316A      0.186154   317A      0.187512  
     318A      0.189745   319A      0.190133   320A      0.190480  
     321A      0.191588   322A      0.192739   323A      0.194687  
     324A      0.196357   325A      0.198616   326A      0.199110  
     327A      0.199913   328A      0.201953   329A      0.203474  
     330A      0.206300   331A      0.207183   332A      0.207493  
     333A      0.208320   334A      0.209349   335A      0.212040  
     336A      0.214178   337A      0.215721   338A      0.217088  
     339A      0.222138   340A      0.225612   341A      0.228360  
     342A      0.229054   343A      0.229839   344A      0.230878  
     345A      0.232529   346A      0.234814   347A      0.235123  
     348A      0.235950   349A      0.239234   350A      0.240942  
     351A      0.241370   352A      0.242090   353A      0.242555  
     354A      0.243903   355A      0.245833   356A      0.247591  
     357A      0.248275   358A      0.249166   359A      0.250498  
     360A      0.251259   361A      0.252401   362A      0.252897  
     363A      0.254636   364A      0.255205   365A      0.256415  
     366A      0.260545   367A      0.261734   368A      0.264186  
     369A      0.265127   370A      0.266910   371A      0.269020  
     372A      0.269985   373A      0.271963   374A      0.273821  
     375A      0.276072   376A      0.277647   377A      0.279530  
     378A      0.280403   379A      0.283191   380A      0.283716  
     381A      0.285289   382A      0.286726   383A      0.287454  
     384A      0.288499   385A      0.289782   386A      0.290409  
     387A      0.292366   388A      0.296487   389A      0.297714  
     390A      0.299087   391A      0.300596   392A      0.302366  
     393A      0.302759   394A      0.304357   395A      0.305988  
     396A      0.307541   397A      0.310361   398A      0.311755  
     399A      0.314937   400A      0.316768   401A      0.317088  
     402A      0.318195   403A      0.318848   404A      0.320560  
     405A      0.321214   406A      0.324548   407A      0.325162  
     408A      0.328411   409A      0.328856   410A      0.331017  
     411A      0.333299   412A      0.333532   413A      0.333890  
     414A      0.336109   415A      0.337242   416A      0.337433  
     417A      0.338360   418A      0.339335   419A      0.340929  
     420A      0.341782   421A      0.341942   422A      0.342868  
     423A      0.345354   424A      0.346281   425A      0.346941  
     426A      0.347079   427A      0.349354   428A      0.351776  
     429A      0.353223   430A      0.353641   431A      0.354211  
     432A      0.361404   433A      0.364173   434A      0.366293  
     435A      0.368537   436A      0.370539   437A      0.371250  
     438A      0.371958   439A      0.372890   440A      0.374683  
     441A      0.376459   442A      0.379130   443A      0.381284  
     444A      0.382888   445A      0.383345   446A      0.385149  
     447A      0.386718   448A      0.387357   449A      0.388627  
     450A      0.388922   451A      0.390829   452A      0.394600  
     453A      0.397011   454A      0.398806   455A      0.399624  
     456A      0.400374   457A      0.404898   458A      0.407251  
     459A      0.409861   460A      0.410440   461A      0.411430  
     462A      0.413191   463A      0.414407   464A      0.415890  
     465A      0.419929   466A      0.422277   467A      0.423607  
     468A      0.424448   469A      0.425515   470A      0.426385  
     471A      0.426770   472A      0.428412   473A      0.431485  
     474A      0.431828   475A      0.435146   476A      0.437290  
     477A      0.440182   478A      0.442208   479A      0.448351  
     480A      0.448784   481A      0.449760   482A      0.450504  
     483A      0.453533   484A      0.455121   485A      0.457375  
     486A      0.458606   487A      0.462227   488A      0.463540  
     489A      0.464652   490A      0.472150   491A      0.474967  
     492A      0.476648   493A      0.478015   494A      0.479247  
     495A      0.480725   496A      0.482342   497A      0.482625  
     498A      0.484421   499A      0.485349   500A      0.485576  
     501A      0.488539   502A      0.488705   503A      0.490958  
     504A      0.492088   505A      0.497788   506A      0.499270  
     507A      0.503290   508A      0.518082   509A      0.519201  
     510A      0.523239   511A      0.523758   512A      0.524603  
     513A      0.528092   514A      0.529829   515A      0.541926  
     516A      0.545959   517A      0.547522   518A      0.549342  
     519A      0.552517   520A      0.553831   521A      0.554379  
     522A      0.568264   523A      0.574620   524A      0.578758  
     525A      0.581620   526A      0.586166   527A      0.594604  
     528A      0.596263   529A      0.598982   530A      0.603682  
     531A      0.603806   532A      0.612071   533A      0.642206  
     534A      0.642304   535A      0.665625   536A      0.667072  
     537A      0.670232   538A      0.671112   539A      0.672000  
     540A      0.672331   541A      0.681439   542A      0.683129  
     543A      0.683906   544A      0.698571   545A      0.709854  
     546A      0.715593   547A      0.717617   548A      0.718937  
     549A      0.724741   550A      0.726564   551A      0.730086  
     552A      0.733951   553A      0.734688   554A      0.740143  
     555A      0.744124   556A      0.749773   557A      0.752956  
     558A      0.753763   559A      0.754828   560A      0.758166  
     561A      0.759005   562A      0.765852   563A      0.769216  
     564A      0.771697   565A      0.776349   566A      0.778019  
     567A      0.782310   568A      0.786392   569A      0.787368  
     570A      0.791711   571A      0.792105   572A      0.793575  
     573A      0.794220   574A      0.799209   575A      0.803850  
     576A      0.805878   577A      0.806174   578A      0.810948  
     579A      0.813420   580A      0.816268   581A      0.818213  
     582A      0.819009   583A      0.824140   584A      0.825197  
     585A      0.827091   586A      0.827364   587A      0.829964  
     588A      0.833346   589A      0.837653   590A      0.839434  
     591A      0.841133   592A      0.844327   593A      0.844582  
     594A      0.845671   595A      0.847958   596A      0.849791  
     597A      0.850531   598A      0.854752   599A      0.856557  
     600A      0.856736   601A      0.858667   602A      0.859537  
     603A      0.863493   604A      0.867684   605A      0.868639  
     606A      0.871646   607A      0.873879   608A      0.874223  
     609A      0.876940   610A      0.880000   611A      0.881090  
     612A      0.884353   613A      0.891612   614A      0.896614  
     615A      0.897899   616A      0.898998   617A      0.899872  
     618A      0.900566   619A      0.902915   620A      0.904157  
     621A      0.906583   622A      0.908201   623A      0.909249  
     624A      0.911268   625A      0.914585   626A      0.916623  
     627A      0.923872   628A      0.926172   629A      0.927135  
     630A      0.928244   631A      0.930282   632A      0.934327  
     633A      0.936366   634A      0.940600   635A      0.943159  
     636A      0.946941   637A      0.948374   638A      0.949760  
     639A      0.950344   640A      0.954318   641A      0.955457  
     642A      0.959485   643A      0.961256   644A      0.965156  
     645A      0.968267   646A      0.968585   647A      0.969808  
     648A      0.970442   649A      0.972589   650A      0.973100  
     651A      0.974222   652A      0.976767   653A      0.978048  
     654A      0.979476   655A      0.981611   656A      0.983866  
     657A      0.985336   658A      0.988564   659A      0.989611  
     660A      0.991106   661A      0.993479   662A      0.997767  
     663A      1.000384   664A      1.001655   665A      1.002820  
     666A      1.004225   667A      1.005753   668A      1.009259  
     669A      1.012159   670A      1.014037   671A      1.016189  
     672A      1.017917   673A      1.018382   674A      1.023015  
     675A      1.024583   676A      1.028247   677A      1.029203  
     678A      1.030640   679A      1.031863   680A      1.033403  
     681A      1.034763   682A      1.039230   683A      1.039982  
     684A      1.042549   685A      1.044476   686A      1.047481  
     687A      1.048369   688A      1.050424   689A      1.053198  
     690A      1.055678   691A      1.057047   692A      1.062847  
     693A      1.064120   694A      1.065007   695A      1.066685  
     696A      1.068451   697A      1.069836   698A      1.070639  
     699A      1.075640   700A      1.082160   701A      1.083316  
     702A      1.092008   703A      1.094492   704A      1.095272  
     705A      1.096353   706A      1.098926   707A      1.104386  
     708A      1.106546   709A      1.110196   710A      1.112209  
     711A      1.116686   712A      1.122814   713A      1.124475  
     714A      1.126474   715A      1.128652   716A      1.131434  
     717A      1.135171   718A      1.139154   719A      1.143669  
     720A      1.144963   721A      1.148182   722A      1.149624  
     723A      1.151470   724A      1.154951   725A      1.164295  
     726A      1.167160   727A      1.168395   728A      1.172487  
     729A      1.176151   730A      1.182135   731A      1.187854  
     732A      1.189887   733A      1.190981   734A      1.191318  
     735A      1.192377   736A      1.193050   737A      1.194787  
     738A      1.195806   739A      1.199529   740A      1.201178  
     741A      1.201450   742A      1.207883   743A      1.211951  
     744A      1.219189   745A      1.222580   746A      1.224820  
     747A      1.225894   748A      1.226854   749A      1.233769  
     750A      1.235901   751A      1.238693   752A      1.242133  
     753A      1.243976   754A      1.244476   755A      1.253391  
     756A      1.254955   757A      1.255410   758A      1.256354  
     759A      1.258592   760A      1.262323   761A      1.265021  
     762A      1.266460   763A      1.267228   764A      1.276065  
     765A      1.278204   766A      1.278569   767A      1.279437  
     768A      1.285624   769A      1.286677   770A      1.291615  
     771A      1.293725   772A      1.297746   773A      1.300678  
     774A      1.302171   775A      1.308004   776A      1.311273  
     777A      1.314099   778A      1.318894   779A      1.333422  
     780A      1.334407   781A      1.335883   782A      1.338499  
     783A      1.342555   784A      1.343746   785A      1.347433  
     786A      1.348616   787A      1.351270   788A      1.353895  
     789A      1.354992   790A      1.356448   791A      1.363703  
     792A      1.367387   793A      1.368512   794A      1.368790  
     795A      1.369999   796A      1.375637   797A      1.377310  
     798A      1.378434   799A      1.379696   800A      1.380896  
     801A      1.388990   802A      1.390876   803A      1.406803  
     804A      1.414097   805A      1.416517   806A      1.427038  
     807A      1.434550   808A      1.446506   809A      1.446546  
     810A      1.447426   811A      1.451404   812A      1.463996  
     813A      1.475736   814A      1.488824   815A      1.496214  
     816A      1.506180   817A      1.516842   818A      1.520222  
     819A      1.526820   820A      1.527703   821A      1.530865  
     822A      1.535369   823A      1.535981   824A      1.538949  
     825A      1.541371   826A      1.542446   827A      1.545216  
     828A      1.552642   829A      1.557512   830A      1.560272  
     831A      1.564005   832A      1.567202   833A      1.567712  
     834A      1.569209   835A      1.571199   836A      1.573962  
     837A      1.583445   838A      1.585041   839A      1.587294  
     840A      1.587886   841A      1.588339   842A      1.593987  
     843A      1.598483   844A      1.598860   845A      1.600624  
     846A      1.602038   847A      1.605288   848A      1.606379  
     849A      1.608858   850A      1.612079   851A      1.613874  
     852A      1.614973   853A      1.620923   854A      1.624671  
     855A      1.625345   856A      1.625927   857A      1.628441  
     858A      1.629476   859A      1.631392   860A      1.632687  
     861A      1.644035   862A      1.645884   863A      1.664805  
     864A      1.666768   865A      1.675784   866A      1.687862  
     867A      1.689149   868A      1.689659   869A      1.690758  
     870A      1.701649   871A      1.703221   872A      1.703438  
     873A      1.717564   874A      1.718721   875A      1.720994  
     876A      1.738814   877A      1.741969   878A      1.745294  
     879A      1.746504   880A      1.747430   881A      1.748173  
     882A      1.748266   883A      1.763512   884A      1.764472  
     885A      1.766599   886A      1.770222   887A      1.771832  
     888A      1.775361   889A      1.786043   890A      1.789782  
     891A      1.790811   892A      1.792596   893A      1.793915  
     894A      1.794789   895A      1.800189   896A      1.801134  
     897A      1.802715   898A      1.804120   899A      1.805671  
     900A      1.810574   901A      1.820846   902A      1.822108  
     903A      1.825190   904A      1.829311   905A      1.831253  
     906A      1.834050   907A      1.835337   908A      1.837602  
     909A      1.840205   910A      1.842599   911A      1.843385  
     912A      1.844148   913A      1.845659   914A      1.847268  
     915A      1.848256   916A      1.849462   917A      1.857242  
     918A      1.870733   919A      1.871483   920A      1.873597  
     921A      1.875059   922A      1.875905   923A      1.879522  
     924A      1.880038   925A      1.881857   926A      1.883686  
     927A      1.884930   928A      1.885513   929A      1.890345  
     930A      1.891496   931A      1.896281   932A      1.908933  
     933A      1.911186   934A      1.914173   935A      1.916858  
     936A      1.922698   937A      1.924128   938A      1.926071  
     939A      1.927781   940A      1.930929   941A      1.935720  
     942A      1.938671   943A      1.941439   944A      1.944083  
     945A      1.946541   946A      1.951412   947A      1.954134  
     948A      1.956379   949A      1.957250   950A      1.958808  
     951A      1.961537   952A      1.962222   953A      1.963442  
     954A      1.976150   955A      1.976756   956A      1.980400  
     957A      1.981291   958A      1.986766   959A      1.988780  
     960A      1.990080   961A      1.993695   962A      1.994287  
     963A      1.999164   964A      2.001109   965A      2.001995  
     966A      2.002979   967A      2.006468   968A      2.009336  
     969A      2.016511   970A      2.020804   971A      2.022325  
     972A      2.022759   973A      2.024084   974A      2.027526  
     975A      2.028660   976A      2.029334   977A      2.032837  
     978A      2.036142   979A      2.036546   980A      2.037982  
     981A      2.040299   982A      2.043635   983A      2.045054  
     984A      2.047061   985A      2.047354   986A      2.047809  
     987A      2.048395   988A      2.049443   989A      2.052165  
     990A      2.057090   991A      2.057294   992A      2.060334  
     993A      2.063488   994A      2.063632   995A      2.065793  
     996A      2.070194   997A      2.070695   998A      2.075378  
     999A      2.083759  1000A      2.088485  1001A      2.088631  
    1002A      2.089294  1003A      2.092466  1004A      2.095557  
    1005A      2.104711  1006A      2.109217  1007A      2.112053  
    1008A      2.116261  1009A      2.118168  1010A      2.119649  
    1011A      2.120171  1012A      2.121845  1013A      2.123593  
    1014A      2.139813  1015A      2.140961  1016A      2.144294  
    1017A      2.145015  1018A      2.145957  1019A      2.150575  
    1020A      2.158973  1021A      2.160552  1022A      2.164329  
    1023A      2.170009  1024A      2.173391  1025A      2.173899  
    1026A      2.174418  1027A      2.176681  1028A      2.177191  
    1029A      2.188931  1030A      2.189744  1031A      2.195199  
    1032A      2.196679  1033A      2.197805  1034A      2.200237  
    1035A      2.203428  1036A      2.209949  1037A      2.216019  
    1038A      2.228860  1039A      2.232969  1040A      2.240613  
    1041A      2.240924  1042A      2.244808  1043A      2.249032  
    1044A      2.253544  1045A      2.253784  1046A      2.256673  
    1047A      2.259481  1048A      2.261076  1049A      2.265618  
    1050A      2.273803  1051A      2.277240  1052A      2.279065  
    1053A      2.280059  1054A      2.282821  1055A      2.291401  
    1056A      2.294631  1057A      2.299063  1058A      2.310206  
    1059A      2.321810  1060A      2.343192  1061A      2.348988  
    1062A      2.349705  1063A      2.350004  1064A      2.352910  
    1065A      2.362827  1066A      2.366952  1067A      2.368426  
    1068A      2.376957  1069A      2.395525  1070A      2.396345  
    1071A      2.405728  1072A      2.406694  1073A      2.413137  
    1074A      2.414351  1075A      2.429953  1076A      2.446549  
    1077A      2.455906  1078A      2.458382  1079A      2.474033  
    1080A      2.475007  1081A      2.475739  1082A      2.477763  
    1083A      2.483956  1084A      2.484282  1085A      2.485729  
    1086A      2.485887  1087A      2.495003  1088A      2.497963  
    1089A      2.498348  1090A      2.504628  1091A      2.504876  
    1092A      2.510823  1093A      2.513326  1094A      2.513729  
    1095A      2.516208  1096A      2.521852  1097A      2.526540  
    1098A      2.537868  1099A      2.551628  1100A      2.552533  
    1101A      2.555722  1102A      2.556762  1103A      2.558017  
    1104A      2.559079  1105A      2.569944  1106A      2.571426  
    1107A      2.580809  1108A      2.581081  1109A      2.586334  
    1110A      2.610281  1111A      2.610623  1112A      2.611726  
    1113A      2.618717  1114A      2.625188  1115A      2.626226  
    1116A      2.629838  1117A      2.636869  1118A      2.637340  
    1119A      2.642834  1120A      2.643288  1121A      2.649638  
    1122A      2.650603  1123A      2.667913  1124A      2.671686  
    1125A      2.682868  1126A      2.686618  1127A      2.699912  
    1128A      2.702491  1129A      2.711839  1130A      2.719284  
    1131A      2.720563  1132A      2.726395  1133A      2.738867  
    1134A      2.742275  1135A      2.753711  1136A      2.755308  
    1137A      2.764469  1138A      2.777937  1139A      2.778135  
    1140A      2.778693  1141A      2.780370  1142A      2.781565  
    1143A      2.787048  1144A      2.790908  1145A      2.795913  
    1146A      2.811356  1147A      2.820508  1148A      2.842520  
    1149A      2.849487  1150A      2.849812  1151A      2.857073  
    1152A      2.864020  1153A      2.865634  1154A      2.880556  
    1155A      2.881860  1156A      2.891958  1157A      2.941085  
    1158A      2.941856  1159A      2.942921  1160A      2.958619  
    1161A      2.987987  1162A      2.988081  1163A      2.989801  
    1164A      2.997954  1165A      2.998979  1166A      3.030809  
    1167A      3.041460  1168A      3.043968  1169A      3.057858  
    1170A      3.058113  1171A      3.060081  1172A      3.065724  
    1173A      3.074383  1174A      3.074625  1175A      3.075110  
    1176A      3.078076  1177A      3.078518  1178A      3.083440  
    1179A      3.089033  1180A      3.093046  1181A      3.095195  
    1182A      3.097041  1183A      3.100442  1184A      3.120340  
    1185A      3.138965  1186A      3.145543  1187A      3.166272  
    1188A      3.199343  1189A      3.202997  1190A      3.203446  
    1191A      3.211120  1192A      3.213507  1193A      3.342400  
    1194A      3.343705  1195A      3.363299  1196A      3.409257  
    1197A      3.410969  1198A      3.475193  1199A      3.487675  
    1200A      3.505355  1201A      3.508531  1202A      3.530836  
    1203A      3.553216  1204A      3.555558  1205A      3.580524  
    1206A      3.589372  1207A      3.597109  1208A      3.699419  
    1209A      3.710076  1210A      3.714164  1211A      3.797401  
    1212A      3.798050  1213A      3.839651  1214A      3.839736  
    1215A      3.900981  1216A      3.934181  1217A      3.978815  
    1218A      3.987758  1219A      4.014370  

    Final Occupation by Irrep:
              A 
    DOCC [   197 ]
    NA   [   197 ]
    NB   [   197 ]

  @DF-RHF Final Energy: -2359.21192642334154

   => Energetics <=

    Nuclear Repulsion Energy =           8293.8061558490571770
    One-Electron Energy =              -19687.9124698830564739
    Two-Electron Energy =                9034.8943876106586686
    Total Energy =                      -2359.2119264233406284

Computation Completed


Properties will be evaluated at   0.000000,   0.000000,   0.000000 [a0]

Properties computed using the SCF density matrix


 Multipole Moments:

 ------------------------------------------------------------------------------------
     Multipole            Electronic (a.u.)      Nuclear  (a.u.)        Total (a.u.)
 ------------------------------------------------------------------------------------

 L = 1.  Multiply by 2.5417464519 to convert [e a0] to [Debye]
 Dipole X            :          0.0041428            0.0006313            0.0047741
 Dipole Y            :         -1.5753382            1.8864948            0.3111566
 Dipole Z            :        -16.2939190           21.8373365            5.5434175
 Magnitude           :                                                    5.5521454

 ------------------------------------------------------------------------------------

*** tstop() called on d-16-13-4 at Mon Jan 22 17:03:35 2024
Module time:
	user time   =    4108.71 seconds =      68.48 minutes
	system time =     231.09 seconds =       3.85 minutes
	total time  =       1181 seconds =      19.68 minutes
Total time:
	user time   =    4108.71 seconds =      68.48 minutes
	system time =     231.09 seconds =       3.85 minutes
	total time  =       1181 seconds =      19.68 minutes

  //>>>>>>>>>>>>>>>>>>>>>>>>>>>>>>>>>>>//
  //            Monomer A HF           //
  //<<<<<<<<<<<<<<<<<<<<<<<<<<<<<<<<<<<//

   => Libint2 <=

    Primary   basis highest AM E, G, H:  7, 7, 4
    Auxiliary basis highest AM E, G, H:  7, 7, 5
    Onebody   basis highest AM E, G, H:  7, 7, 5
    Solid Harmonics ordering:            gaussian

*** tstart() called on d-16-13-4
*** at Mon Jan 22 17:03:35 2024

   => Loading Basis Set <=

    Name: JUN-CC-PVDZ
    Role: ORBITAL
    Keyword: BASIS
    atoms 1-2, 4-5, 10, 17-70 entry C          line   164 file /home/gridsan/tfroembgen/.conda/envs/psi4test/share/psi4/basis/jun-cc-pvdz.gbs 
    atoms 3, 6                entry N          line   198 file /home/gridsan/tfroembgen/.conda/envs/psi4test/share/psi4/basis/jun-cc-pvdz.gbs 
    atoms 7-9, 11-16, 71-88   entry H          line    36 file /home/gridsan/tfroembgen/.conda/envs/psi4test/share/psi4/basis/jun-cc-pvdz.gbs 


         ---------------------------------------------------------
                                   SCF
               by Justin Turney, Rob Parrish, Andy Simmonett
                          and Daniel G. A. Smith
                              RHF Reference
                       12 Threads,  30517 MiB Core
         ---------------------------------------------------------

  ==> Geometry <==

    Molecular point group: c1
    Full point group: C1

    Geometry (in Angstrom), charge = 1, multiplicity = 1:

       Center              X                  Y                   Z               Mass       
    ------------   -----------------  -----------------  -----------------  -----------------
         C            0.680066520158    -1.215933861162     3.673829950344    12.000000000000
         C           -0.680504479842    -1.215549861162     3.671801950344    12.000000000000
         N           -1.085635479842     0.102774138838     3.670803950344    14.003074004430
         C            0.000107520158     0.884175138838     3.667527950344    12.000000000000
         C           -2.477365479842     0.570753138838     3.621397950344    12.000000000000
         N            1.085221520158     0.102774138838     3.670803950344    14.003074004430
         H            1.385145520158    -2.033372861162     3.681657950344     1.007825032230
         H           -1.385302479842    -2.033218861162     3.671991950344     1.007825032230
         H           -0.000009479842     1.965264138838     3.665780950344     1.007825032230
         C            2.478116520158     0.567872138838     3.687695950344    12.000000000000
         H            2.490591520158     1.658125138838     3.660350950344     1.007825032230
         H            2.967027520158     0.220696138838     4.601141950344     1.007825032230
         H            3.001427520158     0.176400138838     2.812212950344     1.007825032230
         H           -2.857359479842     0.490794138838     2.599326950344     1.007825032230
         H           -3.082679479842    -0.042310861162     4.291481950344     1.007825032230
         H           -2.518128479842     1.610701138838     3.948381950344     1.007825032230
      Gh(C)           1.225311895423     0.707533799757    -0.528074422372    12.000000000000
      Gh(C)           1.225323856051    -0.707543383733    -0.540405231942    12.000000000000
      Gh(C)          -0.000006153932     1.414961424928    -0.540938855463    12.000000000000
      Gh(C)           2.456448753949     1.418323398016    -0.525187564972    12.000000000000
      Gh(C)           0.000010827279    -1.414980987797    -0.530739298139    12.000000000000
      Gh(C)          -1.225300948908     0.707540884822    -0.525822902050    12.000000000000
      Gh(C)           2.456437755320    -1.418327793043    -0.542650388799    12.000000000000
      Gh(C)          -0.000001332978     2.836796542119    -0.543342405597    12.000000000000
      Gh(C)           3.681826697470     0.709313466839    -0.542301599001    12.000000000000
      Gh(C)           2.455120048865     2.834219172327    -0.542404155962    12.000000000000
      Gh(C)           3.681821105219    -0.709338328591    -0.526229114983    12.000000000000
      Gh(C)          -1.225313598688    -0.707532004706    -0.539332470516    12.000000000000
      Gh(C)           1.226699581202     3.543464994832    -0.526045083052    12.000000000000
      Gh(C)           0.000004784858    -2.836786628398    -0.525891130517    12.000000000000
      Gh(C)          -2.456436032848     1.418312429123    -0.525787506204    12.000000000000
      Gh(C)           2.455123417779    -2.834234517751    -0.526381023351    12.000000000000
      Gh(C)          -1.226714364589     3.543464574588    -0.525941749833    12.000000000000
      Gh(C)           4.914517295202     1.427168383327    -0.535820915972    12.000000000000
      Gh(C)           3.693150191476     3.542790803383    -0.535771116336    12.000000000000
      Gh(C)          -2.456437600068    -1.418317770001    -0.542675426924    12.000000000000
      Gh(C)           1.226704841943    -3.543478731069    -0.542015213802    12.000000000000
      Gh(C)          -2.455125398508     2.834212173472    -0.542397779616    12.000000000000
      Gh(C)           4.914524380782    -1.427191399106    -0.532848173237    12.000000000000
      Gh(C)           1.221424613699     4.970129576098    -0.532709738978    12.000000000000
      Gh(C)           4.893008229321     2.825183510864    -0.534604247613    12.000000000000
      Gh(C)          -1.226697008489    -3.543475486239    -0.541748009393    12.000000000000
      Gh(C)          -3.681818976526     0.709320477570    -0.542288918521    12.000000000000
      Gh(C)           3.693147101150    -3.542805830553    -0.532730282677    12.000000000000
      Gh(C)          -1.221432251994     4.970123808701    -0.532526243605    12.000000000000
      Gh(C)           6.134770972926     0.680543457943    -0.535051141422    12.000000000000
      Gh(C)           3.656788880610     4.972948754405    -0.534862478553    12.000000000000
      Gh(C)          -2.455126907733    -2.834219582223    -0.526625381149    12.000000000000
      Gh(C)          -3.681819179061    -0.709330192631    -0.526111493404    12.000000000000
      Gh(C)           4.893012617914    -2.825204594794    -0.533993095718    12.000000000000
      Gh(C)          -0.000001073113     5.650442876870    -0.533757552312    12.000000000000
      Gh(C)           6.134775112332    -0.680559343237    -0.533785820906    12.000000000000
      Gh(C)           2.478131482856     5.653572262169    -0.533573698903    12.000000000000
      Gh(C)           1.221422404738    -4.970131544095    -0.535509236000    12.000000000000
      Gh(C)          -3.693162383965     3.542792465030    -0.535605608876    12.000000000000
      Gh(C)          -1.221428520945    -4.970122792758    -0.535621997833    12.000000000000
      Gh(C)          -4.914521807942     1.427170957833    -0.535743970964    12.000000000000
      Gh(C)           3.656787019679    -4.972959715401    -0.533411978019    12.000000000000
      Gh(C)          -2.478138530106     5.653569933366    -0.533289173895    12.000000000000
      Gh(C)          -3.693141738564    -3.542794708141    -0.532846408832    12.000000000000
      Gh(C)          -4.914512483053    -1.427185489190    -0.532813476064    12.000000000000
      Gh(C)          -0.000006008926    -5.650442776176    -0.534153056433    12.000000000000
      Gh(C)          -4.893020484101     2.825184109757    -0.534614329473    12.000000000000
      Gh(C)           2.478125993298    -5.653578033051    -0.534502578811    12.000000000000
      Gh(C)          -3.656798710258     4.972951692879    -0.534685798179    12.000000000000
      Gh(C)          -4.892999478856    -2.825196256222    -0.534147131415    12.000000000000
      Gh(C)          -2.478128498083    -5.653570659169    -0.534777766459    12.000000000000
      Gh(C)          -6.134770503331     0.680544277094    -0.535076693124    12.000000000000
      Gh(C)          -3.656788833189    -4.972948512133    -0.533626265836    12.000000000000
      Gh(C)          -6.134765042913    -0.680558404644    -0.533806296701    12.000000000000
      Gh(H)           5.835288495816     3.369271405792    -0.530244921950     1.007825032230
      Gh(H)           7.073859172747     1.228212759737    -0.534589498029     1.007825032230
      Gh(H)           4.600663264174     5.512376313291    -0.534357277801     1.007825032230
      Gh(H)           5.835283387305    -3.369310545891    -0.538447563032     1.007825032230
      Gh(H)          -0.000012151306     6.738526184974    -0.538106797320     1.007825032230
      Gh(H)           7.073861171831    -1.228231431906    -0.534294559001     1.007825032230
      Gh(H)           2.473313731799     6.740679802232    -0.534040419834     1.007825032230
      Gh(H)           4.600668491381    -5.512380618338    -0.533821975187     1.007825032230
      Gh(H)          -2.473318680537     6.740677230444    -0.533739073209     1.007825032230
      Gh(H)          -0.000010268228    -6.738532665614    -0.529623371448     1.007825032230
      Gh(H)          -5.835301914343     3.369266461134    -0.530108899802     1.007825032230
      Gh(H)           2.473307923831    -6.740689863591    -0.533932248386     1.007825032230
      Gh(H)          -4.600674841208     5.512373537441    -0.534191949477     1.007825032230
      Gh(H)          -5.835279506835    -3.369293452942    -0.538726868913     1.007825032230
      Gh(H)          -2.473300347440    -6.740683567302    -0.534381564931     1.007825032230
      Gh(H)          -7.073857766768     1.228215983678    -0.534673489510     1.007825032230
      Gh(H)          -4.600673786085    -5.512367158949    -0.533994283210     1.007825032230
      Gh(H)          -7.073856934409    -1.228225121139    -0.534389415467     1.007825032230

  Running in c1 symmetry.

  Rotational constants: A =      0.00184  B =      0.00180  C =      0.00109 [cm^-1]
  Rotational constants: A =     55.10722  B =     54.09469  C =     32.56832 [MHz]
  Nuclear repulsion =  306.774908447733026

  Charge       = 1
  Multiplicity = 1
  Electrons    = 52
  Nalpha       = 26
  Nbeta        = 26

  ==> Algorithm <==

  SCF Algorithm Type is DF.
  DIIS enabled.
  MOM disabled.
  Fractional occupation disabled.
  Guess Type is SAD.
  Energy threshold   = 1.00e-08
  Density threshold  = 1.00e-08
  Integral threshold = 1.00e-12

  ==> Primary Basis <==

  Basis Set: JUN-CC-PVDZ
    Blend: JUN-CC-PVDZ
    Number of shells: 569
    Number of basis functions: 1233
    Number of Cartesian functions: 1294
    Spherical Harmonics?: true
    Max angular momentum: 2

   => Loading Basis Set <=

    Name: (JUN-CC-PVDZ AUX)
    Role: JKFIT
    Keyword: DF_BASIS_SCF
    atoms 1-2, 4-5, 10, 17-70 entry C          line   146 file /home/gridsan/tfroembgen/.conda/envs/psi4test/share/psi4/basis/jun-cc-pvdz-jkfit.gbs 
    atoms 3, 6                entry N          line   202 file /home/gridsan/tfroembgen/.conda/envs/psi4test/share/psi4/basis/jun-cc-pvdz-jkfit.gbs 
    atoms 7-9, 11-16, 71-88   entry H          line    70 file /home/gridsan/tfroembgen/.conda/envs/psi4test/share/psi4/basis/jun-cc-pvdz-jkfit.gbs 

  ==> Integral Setup <==

  ==> DiskDFJK: Density-Fitted J/K Matrices <==

    J tasked:                  Yes
    K tasked:                  Yes
    wK tasked:                  No
    OpenMP threads:             12
    Integrals threads:          12
    Memory [MiB]:            22888
    Algorithm:                Disk
    Integral Cache:           LOAD
    Schwarz Cutoff:          1E-12
    Fitting Condition:       1E-10

   => Auxiliary Basis Set <=

  Basis Set: (JUN-CC-PVDZ AUX)
    Blend: JUN-CC-PVDZ-JKFIT
    Number of shells: 1890
    Number of basis functions: 5440
    Number of Cartesian functions: 6226
    Spherical Harmonics?: true
    Max angular momentum: 3

  Minimum eigenvalue in the overlap matrix is 7.5480008808E-10.
  Reciprocal condition number of the overlap matrix is 3.1612605663E-11.
    Using canonical orthogonalization.
  Overall, 14 of 1233 possible MOs eliminated.


  ==> Pre-Iterations <==

  SCF Guess: Superposition of Atomic Densities via on-the-fly atomic UHF (no occupation information).

   -------------------------
    Irrep   Nso     Nmo    
   -------------------------
     A       1233    1219 
   -------------------------
    Total    1233    1219
   -------------------------

  ==> Iterations <==

                           Total Energy        Delta E     RMS |[F,P]|

   @DF-RHF iter SAD:  -303.36535999566325   -3.03365e+02   0.00000e+00 
   @DF-RHF iter   1:  -303.17040986226789    1.94950e-01   3.44718e-04 DIIS/ADIIS
   @DF-RHF iter   2:  -303.28479440594754   -1.14385e-01   1.16010e-04 DIIS/ADIIS
   @DF-RHF iter   3:  -303.29628269862064   -1.14883e-02   4.54404e-05 DIIS
   @DF-RHF iter   4:  -303.29819869348501   -1.91599e-03   9.94615e-06 DIIS
   @DF-RHF iter   5:  -303.29830604938212   -1.07356e-04   2.43582e-06 DIIS
   @DF-RHF iter   6:  -303.29831555597940   -9.50660e-06   6.60219e-07 DIIS
   @DF-RHF iter   7:  -303.29831665503360   -1.09905e-06   3.37233e-07 DIIS
   @DF-RHF iter   8:  -303.29831691694761   -2.61914e-07   1.35692e-07 DIIS
   @DF-RHF iter   9:  -303.29831696725688   -5.03093e-08   3.41842e-08 DIIS
   @DF-RHF iter  10:  -303.29831697015561   -2.89873e-09   1.28050e-08 DIIS
   @DF-RHF iter  11:  -303.29831697040589   -2.50282e-10   3.03208e-09 DIIS
  Energy and wave function converged.


  ==> Post-Iterations <==

    Orbital Energies [Eh]
    ---------------------

    Doubly Occupied:                                                      

       1A    -15.834490     2A    -15.833943     3A    -11.529306  
       4A    -11.459725     5A    -11.458170     6A    -11.449560  
       7A    -11.449425     8A     -1.577731     9A     -1.433368  
      10A     -1.238220    11A     -1.188966    12A     -1.118599  
      13A     -1.022093    14A     -0.996532    15A     -0.916687  
      16A     -0.850272    17A     -0.815884    18A     -0.812756  
      19A     -0.789748    20A     -0.786046    21A     -0.781413  
      22A     -0.729450    23A     -0.725558    24A     -0.716968  
      25A     -0.595933    26A     -0.523617  

    Virtual:                                                              

      27A     -0.078742    28A     -0.070010    29A     -0.062623  
      30A     -0.061262    31A     -0.042974    32A     -0.041514  
      33A     -0.040075    34A     -0.038938    35A     -0.034717  
      36A     -0.031983    37A     -0.022004    38A     -0.018668  
      39A     -0.018606    40A     -0.015033    41A     -0.013034  
      42A     -0.012556    43A     -0.010516    44A     -0.010047  
      45A     -0.001012    46A      0.001499    47A      0.002609  
      48A      0.005713    49A      0.005924    50A      0.007832  
      51A      0.009439    52A      0.011302    53A      0.016394  
      54A      0.018049    55A      0.022265    56A      0.023598  
      57A      0.028870    58A      0.029655    59A      0.029788  
      60A      0.033422    61A      0.037335    62A      0.039439  
      63A      0.039793    64A      0.040200    65A      0.040668  
      66A      0.042999    67A      0.047403    68A      0.050187  
      69A      0.051214    70A      0.052381    71A      0.053611  
      72A      0.054984    73A      0.056196    74A      0.060581  
      75A      0.061090    76A      0.062240    77A      0.064917  
      78A      0.067889    79A      0.069354    80A      0.070492  
      81A      0.072662    82A      0.073542    83A      0.078030  
      84A      0.079256    85A      0.080004    86A      0.080803  
      87A      0.081272    88A      0.081629    89A      0.083871  
      90A      0.085566    91A      0.086003    92A      0.088099  
      93A      0.089662    94A      0.090300    95A      0.091798  
      96A      0.097019    97A      0.097546    98A      0.102574  
      99A      0.102935   100A      0.103722   101A      0.103921  
     102A      0.108134   103A      0.110121   104A      0.110413  
     105A      0.112132   106A      0.112698   107A      0.113888  
     108A      0.114720   109A      0.116174   110A      0.117412  
     111A      0.117603   112A      0.121174   113A      0.121611  
     114A      0.122584   115A      0.123351   116A      0.124858  
     117A      0.128014   118A      0.128489   119A      0.130774  
     120A      0.133362   121A      0.135922   122A      0.137886  
     123A      0.138974   124A      0.140351   125A      0.141941  
     126A      0.142865   127A      0.143656   128A      0.147378  
     129A      0.149864   130A      0.150410   131A      0.154379  
     132A      0.154559   133A      0.155948   134A      0.156836  
     135A      0.157057   136A      0.158161   137A      0.162434  
     138A      0.163702   139A      0.165479   140A      0.166849  
     141A      0.168272   142A      0.170209   143A      0.170716  
     144A      0.171630   145A      0.173037   146A      0.174986  
     147A      0.175106   148A      0.177451   149A      0.179192  
     150A      0.179715   151A      0.180315   152A      0.182843  
     153A      0.183430   154A      0.184682   155A      0.187627  
     156A      0.188323   157A      0.193009   158A      0.193914  
     159A      0.196978   160A      0.198594   161A      0.201792  
     162A      0.203675   163A      0.203914   164A      0.207112  
     165A      0.209022   166A      0.209921   167A      0.211878  
     168A      0.212994   169A      0.213343   170A      0.214311  
     171A      0.215980   172A      0.219130   173A      0.219300  
     174A      0.221128   175A      0.221623   176A      0.223366  
     177A      0.223627   178A      0.225222   179A      0.225771  
     180A      0.227457   181A      0.229810   182A      0.231629  
     183A      0.235506   184A      0.236528   185A      0.237259  
     186A      0.237839   187A      0.237950   188A      0.240512  
     189A      0.244622   190A      0.246394   191A      0.252112  
     192A      0.254838   193A      0.256144   194A      0.258032  
     195A      0.260717   196A      0.263284   197A      0.263934  
     198A      0.264508   199A      0.266134   200A      0.268777  
     201A      0.269463   202A      0.270301   203A      0.273153  
     204A      0.279339   205A      0.279909   206A      0.280107  
     207A      0.280366   208A      0.280800   209A      0.282590  
     210A      0.283966   211A      0.284992   212A      0.286849  
     213A      0.289596   214A      0.290007   215A      0.291330  
     216A      0.293755   217A      0.294942   218A      0.297638  
     219A      0.300794   220A      0.301414   221A      0.302836  
     222A      0.305346   223A      0.306859   224A      0.309387  
     225A      0.313596   226A      0.313967   227A      0.314323  
     228A      0.321482   229A      0.323587   230A      0.325152  
     231A      0.326709   232A      0.328271   233A      0.331700  
     234A      0.334554   235A      0.339382   236A      0.343031  
     237A      0.344486   238A      0.345881   239A      0.348676  
     240A      0.351732   241A      0.354599   242A      0.355657  
     243A      0.356612   244A      0.359428   245A      0.360812  
     246A      0.361860   247A      0.365499   248A      0.365697  
     249A      0.369412   250A      0.371921   251A      0.372385  
     252A      0.374977   253A      0.375901   254A      0.377318  
     255A      0.380325   256A      0.382061   257A      0.383320  
     258A      0.384188   259A      0.384417   260A      0.385754  
     261A      0.388030   262A      0.389168   263A      0.391594  
     264A      0.394403   265A      0.396370   266A      0.396571  
     267A      0.398342   268A      0.400132   269A      0.402156  
     270A      0.404154   271A      0.405022   272A      0.406970  
     273A      0.408713   274A      0.409983   275A      0.412753  
     276A      0.414047   277A      0.419042   278A      0.420341  
     279A      0.422332   280A      0.425727   281A      0.426588  
     282A      0.428361   283A      0.429758   284A      0.431806  
     285A      0.432971   286A      0.434733   287A      0.437577  
     288A      0.439955   289A      0.443522   290A      0.445071  
     291A      0.446757   292A      0.450631   293A      0.451351  
     294A      0.454766   295A      0.455631   296A      0.456899  
     297A      0.457981   298A      0.459454   299A      0.462092  
     300A      0.463636   301A      0.464508   302A      0.466252  
     303A      0.468980   304A      0.472733   305A      0.473538  
     306A      0.477739   307A      0.480230   308A      0.480714  
     309A      0.483210   310A      0.491076   311A      0.495855  
     312A      0.496840   313A      0.498590   314A      0.498868  
     315A      0.502439   316A      0.503346   317A      0.504489  
     318A      0.507977   319A      0.508491   320A      0.510719  
     321A      0.513339   322A      0.514406   323A      0.514771  
     324A      0.518962   325A      0.522642   326A      0.525291  
     327A      0.525369   328A      0.527365   329A      0.529164  
     330A      0.530420   331A      0.537980   332A      0.539296  
     333A      0.539804   334A      0.542450   335A      0.544204  
     336A      0.546931   337A      0.549842   338A      0.553512  
     339A      0.556125   340A      0.560519   341A      0.563366  
     342A      0.564873   343A      0.568618   344A      0.570106  
     345A      0.570880   346A      0.572727   347A      0.574583  
     348A      0.575781   349A      0.578222   350A      0.579033  
     351A      0.579150   352A      0.581026   353A      0.592786  
     354A      0.598079   355A      0.600675   356A      0.601871  
     357A      0.603294   358A      0.603693   359A      0.604328  
     360A      0.605460   361A      0.611270   362A      0.612394  
     363A      0.613487   364A      0.617553   365A      0.620261  
     366A      0.622205   367A      0.622948   368A      0.625544  
     369A      0.626367   370A      0.627234   371A      0.631197  
     372A      0.631770   373A      0.636774   374A      0.640586  
     375A      0.640805   376A      0.646059   377A      0.648125  
     378A      0.661791   379A      0.666658   380A      0.669385  
     381A      0.675513   382A      0.676914   383A      0.682754  
     384A      0.684346   385A      0.685855   386A      0.686135  
     387A      0.688838   388A      0.689596   389A      0.690224  
     390A      0.691057   391A      0.692638   392A      0.692718  
     393A      0.694198   394A      0.695313   395A      0.698354  
     396A      0.699589   397A      0.706416   398A      0.708238  
     399A      0.711633   400A      0.715452   401A      0.716495  
     402A      0.717895   403A      0.719222   404A      0.722524  
     405A      0.726493   406A      0.729436   407A      0.731172  
     408A      0.731953   409A      0.737156   410A      0.740789  
     411A      0.749923   412A      0.752662   413A      0.768298  
     414A      0.771812   415A      0.772660   416A      0.773433  
     417A      0.773666   418A      0.781176   419A      0.785252  
     420A      0.786238   421A      0.789162   422A      0.794721  
     423A      0.802224   424A      0.802821   425A      0.806212  
     426A      0.810167   427A      0.812520   428A      0.815314  
     429A      0.815860   430A      0.818131   431A      0.820160  
     432A      0.821235   433A      0.825344   434A      0.829178  
     435A      0.830485   436A      0.843000   437A      0.845122  
     438A      0.847672   439A      0.852246   440A      0.863646  
     441A      0.870123   442A      0.876993   443A      0.882913  
     444A      0.883945   445A      0.884886   446A      0.889152  
     447A      0.890510   448A      0.893990   449A      0.898759  
     450A      0.901952   451A      0.912653   452A      0.917464  
     453A      0.919930   454A      0.926167   455A      0.926876  
     456A      0.927414   457A      0.929530   458A      0.934117  
     459A      0.946551   460A      0.947369   461A      0.949594  
     462A      0.958301   463A      0.959186   464A      0.969044  
     465A      0.982883   466A      0.987846   467A      0.988317  
     468A      0.989634   469A      0.989869   470A      1.020259  
     471A      1.026665   472A      1.027558   473A      1.027902  
     474A      1.036406   475A      1.041916   476A      1.055852  
     477A      1.073996   478A      1.075101   479A      1.076961  
     480A      1.083468   481A      1.084034   482A      1.093527  
     483A      1.095262   484A      1.103915   485A      1.106367  
     486A      1.106630   487A      1.111023   488A      1.115313  
     489A      1.117857   490A      1.119851   491A      1.140553  
     492A      1.141075   493A      1.143948   494A      1.146096  
     495A      1.147702   496A      1.151477   497A      1.163914  
     498A      1.170593   499A      1.184194   500A      1.201339  
     501A      1.209999   502A      1.217074   503A      1.218037  
     504A      1.225336   505A      1.226881   506A      1.227343  
     507A      1.244226   508A      1.245304   509A      1.247666  
     510A      1.248862   511A      1.287098   512A      1.289826  
     513A      1.290347   514A      1.291026   515A      1.344813  
     516A      1.352151   517A      1.362855   518A      1.363773  
     519A      1.372760   520A      1.380314   521A      1.381483  
     522A      1.385975   523A      1.386462   524A      1.393608  
     525A      1.400067   526A      1.405415   527A      1.406510  
     528A      1.428633   529A      1.434233   530A      1.457487  
     531A      1.460785   532A      1.473829   533A      1.476680  
     534A      1.477437   535A      1.483514   536A      1.491352  
     537A      1.495491   538A      1.520001   539A      1.523717  
     540A      1.536047   541A      1.547517   542A      1.560264  
     543A      1.563541   544A      1.570823   545A      1.574647  
     546A      1.578458   547A      1.580464   548A      1.590412  
     549A      1.595458   550A      1.604745   551A      1.611052  
     552A      1.616268   553A      1.620883   554A      1.633043  
     555A      1.643148   556A      1.668074   557A      1.669150  
     558A      1.669629   559A      1.672511   560A      1.673835  
     561A      1.676139   562A      1.680172   563A      1.681955  
     564A      1.686792   565A      1.689627   566A      1.691250  
     567A      1.699978   568A      1.706751   569A      1.709590  
     570A      1.713234   571A      1.715069   572A      1.717724  
     573A      1.718477   574A      1.725267   575A      1.729082  
     576A      1.734834   577A      1.740849   578A      1.743486  
     579A      1.747447   580A      1.749222   581A      1.749771  
     582A      1.752148   583A      1.753272   584A      1.754222  
     585A      1.754961   586A      1.760770   587A      1.764017  
     588A      1.770353   589A      1.772500   590A      1.775540  
     591A      1.776471   592A      1.781764   593A      1.781842  
     594A      1.783530   595A      1.786804   596A      1.792957  
     597A      1.799393   598A      1.805427   599A      1.806276  
     600A      1.807096   601A      1.809169   602A      1.813971  
     603A      1.814182   604A      1.818905   605A      1.821674  
     606A      1.826816   607A      1.827294   608A      1.827641  
     609A      1.829735   610A      1.833284   611A      1.834704  
     612A      1.838758   613A      1.841980   614A      1.847110  
[...]
     805A      1.698502   806A      1.700342   807A      1.701505  
     808A      1.704629   809A      1.705198   810A      1.705523  
     811A      1.713430   812A      1.714023   813A      1.719905  
     814A      1.723401   815A      1.731137   816A      1.742049  
     817A      1.752105   818A      1.761350   819A      1.761621  
     820A      1.762388   821A      1.763944   822A      1.778081  
     823A      1.778442   824A      1.789994   825A      1.792912  
     826A      1.794309   827A      1.802008   828A      1.818032  
     829A      1.819556   830A      1.819770   831A      1.824974  
     832A      1.825533   833A      1.829525   834A      1.834226  
     835A      1.838189   836A      1.841068   837A      1.842886  
     838A      1.848724   839A      1.854856   840A      1.861410  
     841A      1.863221   842A      1.865615   843A      1.867382  
     844A      1.869589   845A      1.872887   846A      1.873852  
     847A      1.880823   848A      1.880986   849A      1.889877  
     850A      1.895527   851A      1.897277   852A      1.898605  
     853A      1.901942   854A      1.904761   855A      1.908920  
     856A      1.910221   857A      1.912648   858A      1.918589  
     859A      1.918756   860A      1.919475   861A      1.920541  
     862A      1.921588   863A      1.922357   864A      1.923089  
     865A      1.923636   866A      1.936625   867A      1.940825  
     868A      1.944917   869A      1.947144   870A      1.950512  
     871A      1.951191   872A      1.953795   873A      1.955012  
     874A      1.957879   875A      1.958528   876A      1.958994  
     877A      1.961085   878A      1.973819   879A      1.976037  
     880A      1.977277   881A      1.981775   882A      1.988869  
     883A      1.993266   884A      1.997982   885A      1.999078  
     886A      2.000782   887A      2.001689   888A      2.008635  
     889A      2.010344   890A      2.013635   891A      2.014704  
     892A      2.019830   893A      2.026868   894A      2.029531  
     895A      2.032217   896A      2.032834   897A      2.034452  
     898A      2.034749   899A      2.036532   900A      2.043890  
     901A      2.051005   902A      2.053469   903A      2.053954  
     904A      2.058368   905A      2.059830   906A      2.062216  
     907A      2.064087   908A      2.067685   909A      2.071588  
     910A      2.071897   911A      2.077425   912A      2.079480  
     913A      2.080346   914A      2.082850   915A      2.083844  
     916A      2.085586   917A      2.090469   918A      2.094632  
     919A      2.094912   920A      2.096369   921A      2.096690  
     922A      2.100251   923A      2.101130   924A      2.103015  
     925A      2.105537   926A      2.107377   927A      2.109790  
     928A      2.111450   929A      2.111934   930A      2.113019  
     931A      2.115187   932A      2.119287   933A      2.119988  
     934A      2.122426   935A      2.123345   936A      2.125664  
     937A      2.126541   938A      2.128855   939A      2.130751  
     940A      2.133576   941A      2.136880   942A      2.137617  
     943A      2.138288   944A      2.143710   945A      2.144573  
     946A      2.146257   947A      2.149213   948A      2.156802  
     949A      2.161747   950A      2.162546   951A      2.164662  
     952A      2.166524   953A      2.172317   954A      2.179277  
     955A      2.180966   956A      2.184646   957A      2.188603  
     958A      2.190791   959A      2.191566   960A      2.193757  
     961A      2.194556   962A      2.195766   963A      2.199439  
     964A      2.202560   965A      2.206386   966A      2.207602  
     967A      2.217226   968A      2.220512   969A      2.221279  
     970A      2.224562   971A      2.229425   972A      2.231506  
     973A      2.234441   974A      2.237331   975A      2.243396  
     976A      2.245507   977A      2.247070   978A      2.248133  
     979A      2.248820   980A      2.249813   981A      2.260882  
     982A      2.262985   983A      2.266435   984A      2.270605  
     985A      2.271432   986A      2.272928   987A      2.274203  
     988A      2.277830   989A      2.281850   990A      2.301098  
     991A      2.306675   992A      2.311055   993A      2.311209  
     994A      2.314745   995A      2.316392   996A      2.318991  
     997A      2.324395   998A      2.330579   999A      2.331633  
    1000A      2.332186  1001A      2.337647  1002A      2.339108  
    1003A      2.340472  1004A      2.352447  1005A      2.353837  
    1006A      2.354688  1007A      2.357581  1008A      2.363618  
    1009A      2.366942  1010A      2.369703  1011A      2.376120  
    1012A      2.384145  1013A      2.388719  1014A      2.399308  
    1015A      2.416334  1016A      2.421811  1017A      2.424307  
    1018A      2.424829  1019A      2.425132  1020A      2.428286  
    1021A      2.436729  1022A      2.442538  1023A      2.446147  
    1024A      2.458442  1025A      2.471782  1026A      2.478015  
    1027A      2.479587  1028A      2.487318  1029A      2.487722  
    1030A      2.496892  1031A      2.506027  1032A      2.520249  
    1033A      2.529123  1034A      2.530389  1035A      2.533877  
    1036A      2.539869  1037A      2.542733  1038A      2.547762  
    1039A      2.548668  1040A      2.554915  1041A      2.555552  
    1042A      2.556745  1043A      2.560566  1044A      2.560842  
    1045A      2.562189  1046A      2.572103  1047A      2.573359  
    1048A      2.573609  1049A      2.576943  1050A      2.580776  
    1051A      2.586721  1052A      2.588481  1053A      2.588837  
    1054A      2.591660  1055A      2.592101  1056A      2.594610  
    1057A      2.610226  1058A      2.614300  1059A      2.625595  
    1060A      2.626282  1061A      2.630974  1062A      2.633777  
    1063A      2.635452  1064A      2.642928  1065A      2.643308  
    1066A      2.653624  1067A      2.654125  1068A      2.660446  
    1069A      2.669553  1070A      2.679883  1071A      2.684175  
    1072A      2.686580  1073A      2.689003  1074A      2.691878  
    1075A      2.696138  1076A      2.704460  1077A      2.707952  
    1078A      2.713548  1079A      2.713807  1080A      2.719213  
    1081A      2.719482  1082A      2.723707  1083A      2.725781  
    1084A      2.740836  1085A      2.746710  1086A      2.751185  
    1087A      2.756848  1088A      2.760566  1089A      2.779470  
    1090A      2.785144  1091A      2.797213  1092A      2.798663  
    1093A      2.809809  1094A      2.820948  1095A      2.826554  
    1096A      2.831044  1097A      2.831376  1098A      2.851950  
    1099A      2.856476  1100A      2.858763  1101A      2.862411  
    1102A      2.862997  1103A      2.863885  1104A      2.872667  
    1105A      2.882153  1106A      2.890312  1107A      2.914472  
    1108A      2.920817  1109A      2.922135  1110A      2.926534  
    1111A      2.933930  1112A      2.938654  1113A      2.950217  
    1114A      2.953956  1115A      2.954590  1116A      2.957342  
    1117A      2.966312  1118A      2.976937  1119A      3.004701  
    1120A      3.013932  1121A      3.019353  1122A      3.021550  
    1123A      3.032167  1124A      3.054925  1125A      3.064458  
    1126A      3.065277  1127A      3.065767  1128A      3.078439  
    1129A      3.087370  1130A      3.096641  1131A      3.117442  
    1132A      3.124731  1133A      3.129174  1134A      3.134751  
    1135A      3.139873  1136A      3.140800  1137A      3.146048  
    1138A      3.149376  1139A      3.149828  1140A      3.151160  
    1141A      3.151951  1142A      3.154798  1143A      3.164289  
    1144A      3.164989  1145A      3.172074  1146A      3.175525  
    1147A      3.193267  1148A      3.211748  1149A      3.221999  
    1150A      3.224906  1151A      3.241222  1152A      3.276975  
    1153A      3.278316  1154A      3.279220  1155A      3.286961  
    1156A      3.290802  1157A      3.309981  1158A      3.353646  
    1159A      3.363869  1160A      3.420034  1161A      3.421220  
    1162A      3.443379  1163A      3.477286  1164A      3.488248  
    1165A      3.490237  1166A      3.541477  1167A      3.555848  
    1168A      3.582582  1169A      3.587404  1170A      3.603399  
    1171A      3.612786  1172A      3.629723  1173A      3.631257  
    1174A      3.656341  1175A      3.665353  1176A      3.672863  
    1177A      3.765505  1178A      3.777032  1179A      3.787448  
    1180A      3.792941  1181A      3.828373  1182A      3.871796  
    1183A      3.872289  1184A      3.881257  1185A      3.914705  
    1186A      3.915155  1187A      3.978148  1188A      3.982717  
    1189A      4.011582  1190A      4.059957  1191A      4.067880  
    1192A      4.095736  1193A      4.240304  1194A      4.244109  
    1195A      4.465858  1196A      4.481080  1197A      4.529182  
    1198A      4.770357  1199A      4.805796  1200A      4.859936  
    1201A      4.888474  1202A      4.964232  1203A      5.073880  
    1204A      5.083122  1205A      5.089217  1206A      5.135630  
    1207A      5.157152  1208A      5.401973  1209A      5.436076  
    1210A      5.763262  1211A      5.768589  1212A      6.078715  
    1213A     18.216332  1214A     18.468969  1215A     18.486298  
    1216A     18.577969  1217A     18.871995  1218A     25.362703  
    1219A     25.397042  

    Final Occupation by Irrep:
              A 
    DOCC [   171 ]
    NA   [   171 ]
    NB   [   171 ]

  @DF-RHF Final Energy: -2055.89493168411582

   => Energetics <=

    Nuclear Repulsion Energy =           6452.5568002797772351
    One-Electron Energy =              -15636.5128157237450068
    Two-Electron Energy =                7128.0610837598524085
    Total Energy =                      -2055.8949316841153632

Computation Completed


Properties will be evaluated at   0.000000,   0.000000,   0.000000 [a0]

Properties computed using the SCF density matrix


 Multipole Moments:

 ------------------------------------------------------------------------------------
     Multipole            Electronic (a.u.)      Nuclear  (a.u.)        Total (a.u.)
 ------------------------------------------------------------------------------------

 L = 1.  Multiply by 2.5417464519 to convert [e a0] to [Debye]
 Dipole X            :          0.0002521           -0.0000085            0.0002436
 Dipole Y            :          0.0036348           -0.0028843            0.0007505
 Dipole Z            :        345.2482753         -345.2553906           -0.0071153
 Magnitude           :                                                    0.0071589

 ------------------------------------------------------------------------------------

*** tstop() called on d-16-13-4 at Mon Jan 22 17:29:43 2024
Module time:
	user time   =    2862.27 seconds =      47.70 minutes
	system time =     234.37 seconds =       3.91 minutes
	total time  =        752 seconds =      12.53 minutes
Total time:
	user time   =    8706.29 seconds =     145.10 minutes
	system time =     636.29 seconds =      10.60 minutes
	total time  =       2749 seconds =      45.82 minutes
  Constructing Basis Sets for SAPT...

   => Loading Basis Set <=

    Name: (JUN-CC-PVDZ AUX)
    Role: RIFIT
    Keyword: DF_BASIS_SAPT
    atoms 1-2, 4-5, 10, 17-70 entry C          line   100 file /home/gridsan/tfroembgen/.conda/envs/psi4test/share/psi4/basis/jun-cc-pvdz-ri.gbs 
    atoms 3, 6                entry N          line   144 file /home/gridsan/tfroembgen/.conda/envs/psi4test/share/psi4/basis/jun-cc-pvdz-ri.gbs 
    atoms 7-9, 11-16, 71-88   entry H          line    30 file /home/gridsan/tfroembgen/.conda/envs/psi4test/share/psi4/basis/jun-cc-pvdz-ri.gbs 

   => Loading Basis Set <=

    Name: (JUN-CC-PVDZ AUX)
    Role: JKFIT
    Keyword: DF_BASIS_ELST
    atoms 1-2, 4-5, 10, 17-70 entry C          line   146 file /home/gridsan/tfroembgen/.conda/envs/psi4test/share/psi4/basis/jun-cc-pvdz-jkfit.gbs 
    atoms 3, 6                entry N          line   202 file /home/gridsan/tfroembgen/.conda/envs/psi4test/share/psi4/basis/jun-cc-pvdz-jkfit.gbs 
    atoms 7-9, 11-16, 71-88   entry H          line    70 file /home/gridsan/tfroembgen/.conda/envs/psi4test/share/psi4/basis/jun-cc-pvdz-jkfit.gbs 


  //>>>>>>>>>>>>>>>>>>>>>>>>>>>>>>>>>>>//
  //               SSAPT0              //
  //<<<<<<<<<<<<<<<<<<<<<<<<<<<<<<<<<<<//


*** tstart() called on d-16-13-4
*** at Mon Jan 22 17:29:44 2024

        SAPT0  
    Ed Hohenstein
     6 June 2009

      Orbital Information
  --------------------------
    NSO        =      1233
    NMO        =      1219
    NRI        =      4343
    NRI (Elst) =      5440
    NOCC A     =        26
    NOCC B     =       171
    FOCC A     =         7
    FOCC B     =        54
    NVIR A     =      1193
    NVIR B     =      1048

    Elst10,r            =    -0.013088140459 [Eh]
    Exch10              =     0.001978457595 [Eh]
    Exch10 (S^2)        =     0.001978113842 [Eh]

    Iter     Energy [mEh]          dE [mEh]         Residual      Time [s]
       1      -0.16396894       0.163968938       2.002311961           291
       2      -0.18052318       0.016554238       0.614164445           699
       3      -0.18820612       0.007682942       0.070837899           815
       4      -0.18785977      -0.000346349       0.032114417           842
       5      -0.18778315      -0.000076615       0.006255655           865
       6      -0.18780540       0.000022249       0.002585659           884
       7      -0.18780721       0.000001803       0.001204773           902
       8      -0.18780477      -0.000002435       0.000478933           920
       9      -0.18780457      -0.000000197       0.000158806           938
      10      -0.18780480       0.000000225       0.000036584           956
      11      -0.18780481       0.000000015       0.000010442           974
      12      -0.18780480      -0.000000010       0.000003569           992
      13      -0.18780480      -0.000000003       0.000001003          1012
      14      -0.18780480       0.000000001       0.000000338          1031

    CHF Iterations converged


    Iter     Energy [mEh]          dE [mEh]         Residual      Time [s]
       1     -10.34672497      10.346724971      52.553512135           580
       2      -7.14613722      -3.200587751       6.924479785           902
       3      -7.17627507       0.030137851       2.551964044          1008
       4      -7.36205827       0.185783198       0.564106631          1029
       5      -7.37081050       0.008752226       0.159218811          1048
       6      -7.36753015      -0.003280350       0.079176951          1071
       7      -7.36616459      -0.001365558       0.032812734          1099
       8      -7.36664745       0.000482864       0.021793944          1137
       9      -7.36692253       0.000275081       0.011292836          1178
      10      -7.36683652      -0.000086015       0.008931098          1206
      11      -7.36675283      -0.000083689       0.004144082          1242
      12      -7.36677439       0.000021562       0.001897202          1271
      13      -7.36678943       0.000015038       0.000945444          1294
      14      -7.36678965       0.000000217       0.000501119          1317
      15      -7.36678501      -0.000004636       0.000289506          1343
      16      -7.36678387      -0.000001145       0.000117743          1749
      17      -7.36678542       0.000001555       0.000039979          2101
      18      -7.36678540      -0.000000020       0.000018743          2428
      19      -7.36678522      -0.000000184       0.000011728          2620
      20      -7.36678518      -0.000000031       0.000005374          2736
      21      -7.36678524       0.000000060       0.000002767          2798
      22      -7.36678525       0.000000004       0.000001347          2822
      23      -7.36678524      -0.000000013       0.000000731          2843

    CHF Iterations converged

    Ind20,r (A<-B)      =    -0.000187804801 [Eh]
    Ind20,r (B<-A)      =    -0.007366785236 [Eh]
    Ind20,r             =    -0.007554590037 [Eh]
    Exch-Ind20,r (A<-B) =     0.000146290761 [Eh]
    Exch-Ind20,r (B<-A) =     0.000320323681 [Eh]
    Exch-Ind20,r        =     0.000466614442 [Eh]
    Disp20              =    -0.014131149553 [Eh]
    Disp20 (SS)         =    -0.007065574777 [Eh]
    Disp20 (OS)         =    -0.007065574777 [Eh]
    Exch-Disp20         =     0.000298274364 [Eh]
    Exch-Disp20 (SS)    =     0.000190473013 [Eh]
    Exch-Disp20 (OS)    =     0.000107801351 [Eh]

    SAPT Results 
  --------------------------------------------------------------------------------------------------------
    Electrostatics                -13.08814046 [mEh]      -8.21293213 [kcal/mol]     -34.36290804 [kJ/mol]
      Elst10,r                    -13.08814046 [mEh]      -8.21293213 [kcal/mol]     -34.36290804 [kJ/mol]

    Exchange                        1.97845759 [mEh]       1.24150088 [kcal/mol]       5.19443970 [kJ/mol]
      Exch10                        1.97845759 [mEh]       1.24150088 [kcal/mol]       5.19443970 [kJ/mol]
      Exch10(S^2)                   1.97811384 [mEh]       1.24128518 [kcal/mol]       5.19353718 [kJ/mol]

    Induction                      -7.56808596 [mEh]      -4.74904564 [kcal/mol]     -19.87000694 [kJ/mol]
      Ind20,r                      -7.55459004 [mEh]      -4.74057682 [kcal/mol]     -19.83457341 [kJ/mol]
      Exch-Ind20,r                  0.46661444 [mEh]       0.29280498 [kcal/mol]       1.22509605 [kJ/mol]
      delta HF,r (2)               -0.48011036 [mEh]      -0.30127380 [kcal/mol]      -1.26052958 [kJ/mol]

    Dispersion                    -13.83287519 [mEh]      -8.68026023 [kcal/mol]     -36.31820881 [kJ/mol]
      Disp20                      -14.13114955 [mEh]      -8.86743022 [kcal/mol]     -37.10132804 [kJ/mol]
      Exch-Disp20                   0.29827436 [mEh]       0.18716999 [kcal/mol]       0.78311923 [kJ/mol]
      Disp20 (SS)                  -7.06557478 [mEh]      -4.43371511 [kcal/mol]     -18.55066402 [kJ/mol]
      Disp20 (OS)                  -7.06557478 [mEh]      -4.43371511 [kcal/mol]     -18.55066402 [kJ/mol]
      Exch-Disp20 (SS)              0.19047301 [mEh]       0.11952362 [kcal/mol]       0.50008683 [kJ/mol]
      Exch-Disp20 (OS)              0.10780135 [mEh]       0.06764637 [kcal/mol]       0.28303241 [kJ/mol]

  Total HF                        -18.67776882 [mEh]     -11.72047688 [kcal/mol]     -49.03847528 [kJ/mol]
  Total SAPT0                     -32.51064401 [mEh]     -20.40073711 [kcal/mol]     -85.35668409 [kJ/mol]

  Special recipe for scaled SAPT0 (see Manual):
    Electrostatics sSAPT0         -13.08814046 [mEh]      -8.21293213 [kcal/mol]     -34.36290804 [kJ/mol]
    Exchange sSAPT0                 1.97845759 [mEh]       1.24150088 [kcal/mol]       5.19443970 [kJ/mol]
    Induction sSAPT0               -7.56784265 [mEh]      -4.74889296 [kcal/mol]     -19.86936814 [kJ/mol]
    Dispersion sSAPT0             -13.83271966 [mEh]      -8.68016264 [kcal/mol]     -36.31780047 [kJ/mol]
  Total sSAPT0                    -32.51024518 [mEh]     -20.40048684 [kcal/mol]     -85.35563696 [kJ/mol]
  --------------------------------------------------------------------------------------------------------

*** tstop() called on d-16-13-4 at Mon Jan 22 19:10:17 2024
Module time:
	user time   =    9030.74 seconds =     150.51 minutes
	system time =    1077.97 seconds =      17.97 minutes
	total time  =       6033 seconds =     100.55 minutes
Total time:
	user time   =   17738.22 seconds =     295.64 minutes
	system time =    1714.28 seconds =      28.57 minutes
	total time  =       8783 seconds =     146.38 minutes

    Psi4 stopped on: Monday, 22 January 2024 07:10PM
    Psi4 wall time for execution: 2:26:24.48

*** Psi4 exiting successfully. Buy a developer a beer!
