
    -----------------------------------------------------------------------
          Psi4: An Open-Source Ab Initio Electronic Structure Package
                               Psi4 1.9 release

                         Git: Rev {} zzzzzzz 


    D. G. A. Smith, L. A. Burns, A. C. Simmonett, R. M. Parrish,
    M. C. Schieber, R. Galvelis, P. Kraus, H. Kruse, R. Di Remigio,
    A. Alenaizan, A. M. James, S. Lehtola, J. P. Misiewicz, M. Scheurer,
    R. A. Shaw, J. B. Schriber, Y. Xie, Z. L. Glick, D. A. Sirianni,
    J. S. O'Brien, J. M. Waldrop, A. Kumar, E. G. Hohenstein,
    B. P. Pritchard, B. R. Brooks, H. F. Schaefer III, A. Yu. Sokolov,
    K. Patkowski, A. E. DePrince III, U. Bozkaya, R. A. King,
    F. A. Evangelista, J. M. Turney, T. D. Crawford, C. D. Sherrill,
    J. Chem. Phys. 152(18) 184108 (2020). https://doi.org/10.1063/5.0006002

                            Additional Code Authors
    E. T. Seidl, C. L. Janssen, E. F. Valeev, M. L. Leininger,
    J. F. Gonthier, R. M. Richard, H. R. McAlexander, M. Saitow, X. Wang,
    P. Verma, M. H. Lechner, A. Jiang, S. Behnle, A. G. Heide,
    M. F. Herbst, and D. L. Poole

             Previous Authors, Complete List of Code Contributors,
                       and Citations for Specific Modules
    https://github.com/psi4/psi4/blob/master/codemeta.json
    https://github.com/psi4/psi4/graphs/contributors
    http://psicode.org/psi4manual/master/introduction.html#citing-psifour

    -----------------------------------------------------------------------


    Psi4 started on: Wednesday, 07 February 2024 07:53PM

    Process ID: 742709
    Host:       n2cn0291
    PSIDATADIR: /opt/software/pc2/EB-SW/software/PSI4/1.9-foss-2022a/share/psi4
    Memory:     500.0 MiB
    Threads:    16
    
  ==> Input File <==

--------------------------------------------------------------------------
memory 80 GB # how much memory is available ! Depends on the nodes/cores !

molecule dimer {
# monomer A
-1 1    # Charge and multiplicity
B -0.000046  0.000337 2.699994
F -1.153597  0.000048 3.515641
F  1.153661 -0.000581 3.515641
F -0.000019 -1.153637 1.884360
F -0.000019  1.153978 1.884360
--
# monomer B
0 1     # Charge and multiplicity
C   -3.66844126402057      7.80375217008252      0.00190004133558
C   -4.84759871934653      7.13124183134024     -0.00046653359696
C   -4.89495929917518      5.69633040353158     -0.00103944469517
C   -3.65374067877320      4.98073034095895      0.00662099703436
C   -2.40942512149445      7.11398103667468      0.00209438359570
C   -2.42547734410473      5.68112195090346     -0.00491050527438
C   -1.19474401643570      7.78614419430947      0.00356656413763
C   0.03795902893699      7.09942164575698      0.00139585983271
C   0.03033258741920      5.66948955970466     -0.00408752508301
C   -1.20098450790502      4.96927034791531      0.00488220885047
C   1.27795782581485      7.77285944319479      0.00277170839332
C   2.48535808472416      7.08769688523756      0.00049722048857
C   2.48612868491717      5.65477081024076     -0.00644052849921
C   1.25408291964399      4.95607811366431      0.00518741308898
C   3.75171459140595      7.76391215098033      0.00062407186893
C   4.92356605618520      7.07878077698995     -0.00143240883900
C   4.95560727132542      5.64344746336949     -0.00159282164606
C   3.70680153420475      4.94121020833308      0.00349873852374
H   -3.65852113775815      8.89082741913536      0.00358502958574
H   -1.18921332975660      8.87412108735996      0.00753844057883
H   1.28429423888630      8.86083343548850      0.00693053253426
H   3.75354208679975      8.85103527897216      0.00214659618464
H   5.86995870320703      7.61379483465560     -0.00235777588134
H   -5.78823170750226      7.67630221293400     -0.00202638095293
C   -6.09197395869619      4.99326001364347     -0.00291168518608
C   -6.12866148031747      3.58258016879823     -0.00171050815740
C   -3.66457974004527      3.56418217974434     -0.00463560277484
C   -4.89429820469869      2.86108077590057      0.00453338221034
C   -2.43733499489796      2.84761165708481      0.00719617576166
C   -1.20922785759670      3.54788693497833     -0.00648285103018
C   1.24714157216223      3.53468075142962     -0.00729145743546
C   0.01517603956900      2.83311183930540      0.00439272578912
C   2.46764517244071      2.82128997725533      0.00449278391269
C   3.70254947457969      3.52466015442405     -0.00899517692985
C   6.14498038638375      4.92757236613191     -0.00282626685777
C   6.16658835886151      3.51658447594213     -0.00065971342101
C   4.92460995845939      2.80840792535402      0.00587903281610
H   7.08990550964105      5.46688776622306     -0.00658814770723
H   -7.03104175110130      5.54268795285765     -0.00714490013730
C   -7.33969804112295      2.85841153457957     -0.00333767559888
C   -7.36488195805880      1.47032337158330     -0.00157213747140
C   -4.90350460894690      1.44442681216000     -0.00628840166334
C   -6.13225715261081      0.73993935705394      0.00600164231964
C   -3.67687480051673      0.72669714267312      0.00433931473643
C   -2.44565658606518      1.42964113326212     -0.00597039546461
C   -1.22360068130162      0.71532450163492      0.00545886906656
C   0.00763786931376      1.41738314923765      0.00392452278437
C   1.23121980774686      0.70211669058719     -0.01490206287210
C   2.46082110053113      1.40329203612573      0.00460244601878
C   3.68443025419614      0.68719842821222      0.00377365974158
C   4.91870890153864      1.39173456118907     -0.00862816189375
C   7.36980207796101      2.77948220318441     -0.00242013321349
C   7.38016266612146      1.39121750785509     -0.00087345036788
C   6.13979953912259      0.67411862320065      0.00545489144369
H   -8.27919079934664      3.40711804112415     -0.00763522772059
H   8.31511347147953      3.31811809662368     -0.00663070901292
C   -8.59175593758115      0.72483255304480     -0.00123170985383
C   -8.59902460370342     -0.63263980622873      0.00089141472904
C   -6.13981313911873     -0.67413663715361     -0.00609792660607
C   -7.38018411213749     -1.39126618958160      0.00131813493501
C   -4.91868448025621     -1.39175501803000      0.00624257154343
C   -3.68443829568458     -0.68723731573599     -0.00478966852105
C   -2.46081704024768     -1.40334517882457      0.00575341766833
C   -1.23116201232071     -0.70217386488055     -0.00636696112346
C   -0.00756962538737     -1.41741884941102      0.00108956317991
C   1.22364771588843     -0.71527537726392      0.01109518512883
C   2.44567064933149     -1.42964328900682     -0.00065482763106
C   3.67686670284649     -0.72670743155550     -0.00479541202602
C   6.13224884641929     -0.73997883984993     -0.00632338623858
C   4.90351914550401     -1.44445752054090      0.00751768830159
C   8.59901484869081      0.63260386666793     -0.00101133422380
C   8.59174548810050     -0.72485086719319      0.00072504603735
C   7.36486276438985     -1.47033266560598      0.00049486934466
H   -9.52830597181814      1.27684744919284     -0.00270163681798
H   9.54141097460619      1.17457248844457     -0.00206336648518
C   -7.36983790976868     -2.77954514593389      0.00312634335708
C   -4.92459910905015     -2.80843725734101     -0.00460528907921
C   -6.16662249566744     -3.51665219282533      0.00169655107992
C   -3.70251035970491     -3.52468154912026      0.00571878010666
C   -2.46764698511392     -2.82132596280400     -0.00632585824990
C   -0.01513347410770     -2.83314164539971     -0.00604426974092
C   -1.24712184122656     -3.53473217556300      0.00551968366725
C   1.20924506964357     -3.54791467864352      0.00805871345849
C   2.43733602215464     -2.84764173817541     -0.00608104485234
C   4.89430234377080     -2.86112296828604     -0.00526030478103
C   3.66461525504104     -3.56421984553201      0.00761911515957
C   6.12863901474565     -3.58258405771778      0.00096495711699
C   7.33967266469532     -2.85841330737039      0.00248018319869
H   -9.54144911125902     -1.17456346666430      0.00226083090216
H   9.52826186807155     -1.27691907390448      0.00197485379837
H   -8.31516504384864     -3.31814985321231      0.00729857188773
H   8.27915514249207     -3.40714078989363      0.00681973918158
C   -6.14499418870218     -4.92764727278338      0.00302254913999
C   -3.70678334799751     -4.94126171411716     -0.00679841894792
C   -4.95559005800169     -5.64349397349412      0.00116871569699
C   -2.48612132622665     -5.65478557440947      0.00614125209662
C   -1.25405833548005     -4.95612205000132     -0.00503435388927
C   1.20101257386816     -4.96928038819302     -0.00385322963129
C   -0.03033667441341     -5.66952030313900      0.00398997003238
C   3.65375010132847     -4.98074377541453     -0.00309522988330
C   2.42549269587528     -5.68117463552727      0.00628170066869
C   6.09196561781097     -4.99325796338655      0.00325918379042
C   4.89497644461045     -5.69634842095790      0.00202298796027
H   -7.08989238804069     -5.46699984223871      0.00742531082125
H   7.03105520920009     -5.54265853633254      0.00683896355417
C   -4.92354532219813     -7.07882109967734      0.00061394679214
C   -2.48534208823777     -7.08772807792913     -0.00189594564379
C   -3.75168589177895     -7.76394715763627     -0.00170126671874
C   -0.03794895698805     -7.09946487446944     -0.00168022049625
C   -1.27795610040136     -7.77290438466689     -0.00366491325785
C   2.40944432072629     -7.11402201200282     -0.00081701968533
C   1.19474993715296     -7.78618536556242     -0.00296931056689
C   4.84762105249800     -7.13126211057943      0.00168979497423
C   3.66847160587561     -7.80378799294376     -0.00065863938960
H   -5.86994035041618     -7.61383059804164      0.00215798365757
H   5.78824962538815     -7.67633218931421      0.00281691445618
H   -3.75352693944918     -8.85107156923607     -0.00353718114765
H   -1.28430440589466     -8.86087539249706     -0.00809229711623
H   1.18922157469537     -8.87416062058945     -0.00706194725726
H   3.65854661482387     -8.89086063405326     -0.00231318081200

    units angstrom      # Angstroms are the default
    no_reorient         # Geometry fixed, default
    symmetry c1         # C1 symmetry, default
}

set {
    scf_type DF         # Density fitting, faster than exact integrals
    freeze_core True    # Freeze core electrons
    basis jun-cc-pVDZ   # Jun-cc-pVDZ basis set, recommended for sSAPT0 in https://doi.org/10.1063/1.4867135
}

energy('ssapt0')        # Compute sSAPT0 energy, includes also SAPT0
--------------------------------------------------------------------------

  Memory set to  74.506 GiB by Python driver.

Scratch directory: /tmp/
   => Loading Basis Set <=

    Name: JUN-CC-PVDZ
    Role: ORBITAL
    Keyword: BASIS
    atoms 1                                                   entry B          line   130 file /opt/software/pc2/EB-SW/software/PSI4/1.9-foss-2022a/share/psi4/basis/jun-cc-pvdz.gbs 
    atoms 2-5                                                 entry F          line   266 file /opt/software/pc2/EB-SW/software/PSI4/1.9-foss-2022a/share/psi4/basis/jun-cc-pvdz.gbs 
    atoms 6-23, 30-42, 45-59, 62-78, 81-93, 98-108, 111-119   entry C          line   164 file /opt/software/pc2/EB-SW/software/PSI4/1.9-foss-2022a/share/psi4/basis/jun-cc-pvdz.gbs 
    atoms 24-29, 43-44, 60-61, 79-80, 94-97, 109-110, 120-125 entry H          line    36 file /opt/software/pc2/EB-SW/software/PSI4/1.9-foss-2022a/share/psi4/basis/jun-cc-pvdz.gbs 

   => Loading Basis Set <=

    Name: JUN-CC-PVDZ
    Role: ORBITAL
    Keyword: BASIS
    atoms 1                                                   entry B          line   130 file /opt/software/pc2/EB-SW/software/PSI4/1.9-foss-2022a/share/psi4/basis/jun-cc-pvdz.gbs 
    atoms 2-5                                                 entry F          line   266 file /opt/software/pc2/EB-SW/software/PSI4/1.9-foss-2022a/share/psi4/basis/jun-cc-pvdz.gbs 
    atoms 6-23, 30-42, 45-59, 62-78, 81-93, 98-108, 111-119   entry C          line   164 file /opt/software/pc2/EB-SW/software/PSI4/1.9-foss-2022a/share/psi4/basis/jun-cc-pvdz.gbs 
    atoms 24-29, 43-44, 60-61, 79-80, 94-97, 109-110, 120-125 entry H          line    36 file /opt/software/pc2/EB-SW/software/PSI4/1.9-foss-2022a/share/psi4/basis/jun-cc-pvdz.gbs 


  //>>>>>>>>>>>>>>>>>>>>>>>>>>>>>>>>>>>//
  //              Dimer HF             //
  //<<<<<<<<<<<<<<<<<<<<<<<<<<<<<<<<<<<//

   => Libint2 <=

    Primary   basis highest AM E, G, H:  5, 4, 3
    Auxiliary basis highest AM E, G, H:  6, 5, 4
    Onebody   basis highest AM E, G, H:  6, 5, 4
    Solid Harmonics ordering:            gaussian

*** tstart() called on n2cn0291
*** at Wed Feb  7 19:53:58 2024

   => Loading Basis Set <=

    Name: JUN-CC-PVDZ
    Role: ORBITAL
    Keyword: BASIS
    atoms 1                                                   entry B          line   130 file /opt/software/pc2/EB-SW/software/PSI4/1.9-foss-2022a/share/psi4/basis/jun-cc-pvdz.gbs 
    atoms 2-5                                                 entry F          line   266 file /opt/software/pc2/EB-SW/software/PSI4/1.9-foss-2022a/share/psi4/basis/jun-cc-pvdz.gbs 
    atoms 6-23, 30-42, 45-59, 62-78, 81-93, 98-108, 111-119   entry C          line   164 file /opt/software/pc2/EB-SW/software/PSI4/1.9-foss-2022a/share/psi4/basis/jun-cc-pvdz.gbs 
    atoms 24-29, 43-44, 60-61, 79-80, 94-97, 109-110, 120-125 entry H          line    36 file /opt/software/pc2/EB-SW/software/PSI4/1.9-foss-2022a/share/psi4/basis/jun-cc-pvdz.gbs 


         ---------------------------------------------------------
                                   SCF
               by Justin Turney, Rob Parrish, Andy Simmonett
                          and Daniel G. A. Smith
                              RHF Reference
                       16 Threads,  76293 MiB Core
         ---------------------------------------------------------

  ==> Geometry <==

    Molecular point group: c1
    Full point group: C1

    Geometry (in Angstrom), charge = -1, multiplicity = 1:

       Center              X                  Y                   Z               Mass       
    ------------   -----------------  -----------------  -----------------  -----------------
         B           -0.000050191042     0.000351518223     2.514026993521    11.009305360000
         F           -1.153601191042     0.000062518223     3.329673993521    18.998403162730
         F            1.153656808958    -0.000566481777     3.329673993521    18.998403162730
         F           -0.000023191042    -1.153622481777     1.698392993521    18.998403162730
         F           -0.000023191042     1.153992518223     1.698392993521    18.998403162730
         C           -3.668445455062     7.803766688305    -0.184066965143    12.000000000000
         C           -4.847602910388     7.131256349563    -0.186433540076    12.000000000000
         C           -4.894963490217     5.696344921754    -0.187006451174    12.000000000000
         C           -3.653744869815     4.980744859182    -0.179346009445    12.000000000000
         C           -2.409429312536     7.113995554897    -0.183872622883    12.000000000000
         C           -2.425481535146     5.681136469126    -0.190877511753    12.000000000000
         C           -1.194748207477     7.786158712532    -0.182400442341    12.000000000000
         C            0.037954837895     7.099436163980    -0.184571146646    12.000000000000
         C            0.030328396378     5.669504077927    -0.190054531562    12.000000000000
         C           -1.200988698947     4.969284866138    -0.181084797629    12.000000000000
         C            1.277953634773     7.772873961417    -0.183195298086    12.000000000000
         C            2.485353893683     7.087711403460    -0.185469785990    12.000000000000
         C            2.486124493876     5.654785328463    -0.192407534978    12.000000000000
         C            1.254078728602     4.956092631887    -0.180779593390    12.000000000000
         C            3.751710400364     7.763926669203    -0.185342934610    12.000000000000
         C            4.923561865144     7.078795295213    -0.187399415318    12.000000000000
         C            4.955603080284     5.643461981592    -0.187559828125    12.000000000000
         C            3.706797343163     4.941224726556    -0.182468267955    12.000000000000
         H           -3.658525328800     8.890841937358    -0.182381976893     1.007825032230
         H           -1.189217520798     8.874135605583    -0.178428565900     1.007825032230
         H            1.284290047845     8.860847953711    -0.179036473945     1.007825032230
         H            3.753537895758     8.851049797195    -0.183820410294     1.007825032230
         H            5.869954512165     7.613809352878    -0.188324782360     1.007825032230
         H           -5.788235898544     7.676316731157    -0.187993387432     1.007825032230
         C           -6.091978149738     4.993274531866    -0.188878691665    12.000000000000
         C           -6.128665671359     3.582594687021    -0.187677514636    12.000000000000
         C           -3.664583931087     3.564196697967    -0.190602609254    12.000000000000
         C           -4.894302395740     2.861095294123    -0.181433624269    12.000000000000
         C           -2.437339185940     2.847626175307    -0.178770830717    12.000000000000
         C           -1.209232048638     3.547901453201    -0.192449857509    12.000000000000
         C            1.247137381121     3.534695269652    -0.193258463914    12.000000000000
         C            0.015171848527     2.833126357528    -0.181574280690    12.000000000000
         C            2.467640981399     2.821304495478    -0.181474222566    12.000000000000
         C            3.702545283538     3.524674672647    -0.194962183409    12.000000000000
         C            6.144976195342     4.927586884354    -0.188793273337    12.000000000000
         C            6.166584167820     3.516598994165    -0.186626719900    12.000000000000
         C            4.924605767418     2.808422443577    -0.180087973663    12.000000000000
         H            7.089901318599     5.466902284446    -0.192555154186     1.007825032230
         H           -7.031045942143     5.542702471080    -0.193111906616     1.007825032230
         C           -7.339702232165     2.858426052802    -0.189304682078    12.000000000000
         C           -7.364886149100     1.470337889806    -0.187539143950    12.000000000000
         C           -4.903508799989     1.444441330383    -0.192255408142    12.000000000000
         C           -6.132261343652     0.739953875277    -0.179965364159    12.000000000000
         C           -3.676878991558     0.726711660896    -0.181627691743    12.000000000000
         C           -2.445660777107     1.429655651485    -0.191937401944    12.000000000000
         C           -1.223604872343     0.715339019858    -0.180508137412    12.000000000000
         C            0.007633678272     1.417397667460    -0.182042483695    12.000000000000
         C            1.231215616705     0.702131208810    -0.200869069351    12.000000000000
         C            2.460816909489     1.403306554348    -0.181364560460    12.000000000000
         C            3.684426063155     0.687212946435    -0.182193346737    12.000000000000
         C            4.918704710497     1.391749079412    -0.194595168373    12.000000000000
         C            7.369797886919     2.779496721407    -0.188387139692    12.000000000000
         C            7.380158475080     1.391232026078    -0.186840456847    12.000000000000
         C            6.139795348081     0.674133141423    -0.180512115035    12.000000000000
         H           -8.279194990388     3.407132559347    -0.193602234200     1.007825032230
         H            8.315109280438     3.318132614846    -0.192597715492     1.007825032230
         C           -8.591760128623     0.724847071267    -0.187198716333    12.000000000000
         C           -8.599028794745    -0.632625288006    -0.185075591750    12.000000000000
         C           -6.139817330160    -0.674122118931    -0.192064933085    12.000000000000
         C           -7.380188303179    -1.391251671359    -0.184648871544    12.000000000000
         C           -4.918688671298    -1.391740499807    -0.179724434936    12.000000000000
         C           -3.684442486726    -0.687222797513    -0.190756675000    12.000000000000
         C           -2.460821231289    -1.403330660602    -0.180213588811    12.000000000000
         C           -1.231166203362    -0.702159346658    -0.192333967602    12.000000000000
         C           -0.007573816429    -1.417404331188    -0.184877443299    12.000000000000
         C            1.223643524847    -0.715260859041    -0.174871821350    12.000000000000
         C            2.445666458290    -1.429628770784    -0.186621834110    12.000000000000
         C            3.676862511805    -0.726692913333    -0.190762418505    12.000000000000
         C            6.132244655378    -0.739964321627    -0.192290392718    12.000000000000
         C            4.903514954462    -1.444443002318    -0.178449318177    12.000000000000
         C            8.599010657649     0.632618384891    -0.186978340703    12.000000000000
         C            8.591741297059    -0.724836348971    -0.185241960442    12.000000000000
         C            7.364858573348    -1.470318147383    -0.185472137134    12.000000000000
         H           -9.528310162860     1.276861967415    -0.188668643297     1.007825032230
         H            9.541406783565     1.174587006667    -0.188030372964     1.007825032230
         C           -7.369842100810    -2.779530627711    -0.182840663122    12.000000000000
         C           -4.924603300092    -2.808422739118    -0.190572295558    12.000000000000
         C           -6.166626686709    -3.516637674603    -0.184270455399    12.000000000000
         C           -3.702514550747    -3.524667030898    -0.180248226372    12.000000000000
         C           -2.467651176156    -2.821311444581    -0.192292864729    12.000000000000
         C           -0.015137665149    -2.833127127177    -0.192011276220    12.000000000000
         C           -1.247126032268    -3.534717657340    -0.180447322812    12.000000000000
         C            1.209240878602    -3.547900160421    -0.177908293020    12.000000000000
         C            2.437331831113    -2.847627219953    -0.192048051331    12.000000000000
         C            4.894298152729    -2.861108450063    -0.191227311260    12.000000000000
         C            3.664611063999    -3.564205327309    -0.178347891319    12.000000000000
         C            6.128634823704    -3.582569539495    -0.185002049362    12.000000000000
         C            7.339668473654    -2.858398789148    -0.183486823280    12.000000000000
         H           -9.541453302301    -1.174548948442    -0.183706175577     1.007825032230
         H            9.528257677030    -1.276904555682    -0.183992152681     1.007825032230
         H           -8.315169234890    -3.318135334990    -0.178668434591     1.007825032230
         H            8.279150951450    -3.407126271671    -0.179147267297     1.007825032230
         C           -6.144998379744    -4.927632754561    -0.182944457339    12.000000000000
         C           -3.706787539039    -4.941247195895    -0.192765425427    12.000000000000
         C           -4.955594249043    -5.643479455272    -0.184798290782    12.000000000000
         C           -2.486125517268    -5.654771056187    -0.179825754382    12.000000000000
         C           -1.254062526522    -4.956107531779    -0.191001360368    12.000000000000
         C            1.201008382827    -4.969265869970    -0.189820236110    12.000000000000
         C           -0.030340865455    -5.669505784916    -0.181977036447    12.000000000000
         C            3.653745910287    -4.980729257192    -0.189062236362    12.000000000000
         C            2.425488504834    -5.681160117305    -0.179685305810    12.000000000000
         C            6.091961426769    -4.993243445164    -0.182707822689    12.000000000000
         C            4.894972253569    -5.696333902735    -0.183944018519    12.000000000000
         H           -7.089896579082    -5.466985324016    -0.178541695658     1.007825032230
         H            7.031051018158    -5.542644018110    -0.179128042925     1.007825032230
         C           -4.923549513240    -7.078806581455    -0.185353059687    12.000000000000
         C           -2.485346279279    -7.087713559707    -0.187862952123    12.000000000000
         C           -3.751690082821    -7.763932639414    -0.187668273198    12.000000000000
         C           -0.037953148030    -7.099450356247    -0.187647226975    12.000000000000
         C           -1.277960291443    -7.772889866444    -0.189631919737    12.000000000000
         C            2.409440129685    -7.114007493780    -0.186784026164    12.000000000000
         C            1.194745746111    -7.786170847340    -0.188936317046    12.000000000000
         C            4.847616861456    -7.131247592357    -0.184277211505    12.000000000000
         C            3.668467414834    -7.803773474721    -0.186625645869    12.000000000000
         H           -5.869944541458    -7.613816079819    -0.183809022821     1.007825032230
         H            5.788245434347    -7.676317671092    -0.183150092023     1.007825032230
         H           -3.753531130491    -8.851057051013    -0.189504187627     1.007825032230
         H           -1.284308596936    -8.860860874274    -0.194059303595     1.007825032230
         H            1.189217383654    -8.874146102367    -0.193028953736     1.007825032230
         H            3.658542423782    -8.890846115831    -0.188280187291     1.007825032230

  Running in c1 symmetry.

  Rotational constants: A =      0.00069  B =      0.00069  C =      0.00035 [cm^-1]
  Rotational constants: A =     20.55393  B =     20.55032  C =     10.55117 [MHz]
  Nuclear repulsion = 17923.845859648878104

  Charge       = -1
  Multiplicity = 1
  Electrons    = 642
  Nalpha       = 321
  Nbeta        = 321

  ==> Algorithm <==

  SCF Algorithm Type is DF.
  DIIS enabled.
  MOM disabled.
  Fractional occupation disabled.
  Guess Type is SAD.
  Energy threshold   = 1.00e-08
  Density threshold  = 1.00e-08
  Integral threshold = 1.00e-12

  ==> Primary Basis <==

  Basis Set: JUN-CC-PVDZ
    Blend: JUN-CC-PVDZ
    Number of shells: 880
    Number of basis functions: 1938
    Number of Cartesian functions: 2039
    Spherical Harmonics?: true
    Max angular momentum: 2

   => Loading Basis Set <=

    Name: (JUN-CC-PVDZ AUX)
    Role: JKFIT
    Keyword: DF_BASIS_SCF
    atoms 1                                                   entry B          line    90 file /opt/software/pc2/EB-SW/software/PSI4/1.9-foss-2022a/share/psi4/basis/jun-cc-pvdz-jkfit.gbs 
    atoms 2-5                                                 entry F          line   314 file /opt/software/pc2/EB-SW/software/PSI4/1.9-foss-2022a/share/psi4/basis/jun-cc-pvdz-jkfit.gbs 
    atoms 6-23, 30-42, 45-59, 62-78, 81-93, 98-108, 111-119   entry C          line   146 file /opt/software/pc2/EB-SW/software/PSI4/1.9-foss-2022a/share/psi4/basis/jun-cc-pvdz-jkfit.gbs 
    atoms 24-29, 43-44, 60-61, 79-80, 94-97, 109-110, 120-125 entry H          line    70 file /opt/software/pc2/EB-SW/software/PSI4/1.9-foss-2022a/share/psi4/basis/jun-cc-pvdz-jkfit.gbs 

  ==> Integral Setup <==

  ==> DiskDFJK: Density-Fitted J/K Matrices <==

    J tasked:                  Yes
    K tasked:                  Yes
    wK tasked:                  No
    OpenMP threads:             16
    Integrals threads:          16
    Memory [MiB]:            57220
    Algorithm:                Disk
    Integral Cache:           SAVE
    Schwarz Cutoff:          1E-12
    Fitting Condition:       1E-10

   => Auxiliary Basis Set <=

  Basis Set: (JUN-CC-PVDZ AUX)
    Blend: JUN-CC-PVDZ-JKFIT
    Number of shells: 2943
    Number of basis functions: 8531
    Number of Cartesian functions: 9791
    Spherical Harmonics?: true
    Max angular momentum: 3

  Minimum eigenvalue in the overlap matrix is 5.8725071541E-11.
  Reciprocal condition number of the overlap matrix is 2.3600290425E-12.
    Using canonical orthogonalization.
  Overall, 40 of 1938 possible MOs eliminated.


  ==> Pre-Iterations <==

  SCF Guess: Superposition of Atomic Densities via on-the-fly atomic UHF (no occupation information).

   -------------------------
    Irrep   Nso     Nmo    
   -------------------------
     A       1938    1898 
   -------------------------
    Total    1938    1898
   -------------------------

  ==> Iterations <==

                           Total Energy        Delta E     RMS |[F,P]|

   @DF-RHF iter SAD: -4086.07930755837333   -4.08608e+03   0.00000e+00 
   @DF-RHF iter   1: -4071.35923520239612    1.47201e+01   7.89252e-04 DIIS/ADIIS
   @DF-RHF iter   2: -4072.77113916918961   -1.41190e+00   3.08828e-04 DIIS/ADIIS
   @DF-RHF iter   3: -4072.94158876482379   -1.70450e-01   1.18623e-04 DIIS/ADIIS
   @DF-RHF iter   4: -4072.96902030573892   -2.74315e-02   5.46485e-05 DIIS
   @DF-RHF iter   5: -4072.97595228355476   -6.93198e-03   1.56977e-05 DIIS
   @DF-RHF iter   6: -4072.97669778802856   -7.45504e-04   5.42647e-06 DIIS
   @DF-RHF iter   7: -4072.97692029762675   -2.22510e-04   2.93058e-06 DIIS
   @DF-RHF iter   8: -4072.97700642845530   -8.61308e-05   1.41366e-06 DIIS
   @DF-RHF iter   9: -4072.97703451267898   -2.80842e-05   5.53910e-07 DIIS
   @DF-RHF iter  10: -4072.97703687593548   -2.36326e-06   2.43156e-07 DIIS
   @DF-RHF iter  11: -4072.97703735602954   -4.80094e-07   1.10987e-07 DIIS
   @DF-RHF iter  12: -4072.97703749191805   -1.35889e-07   6.96955e-08 DIIS
   @DF-RHF iter  13: -4072.97703755316752   -6.12495e-08   3.46546e-08 DIIS
   @DF-RHF iter  14: -4072.97703756966075   -1.64932e-08   1.93294e-08 DIIS
   @DF-RHF iter  15: -4072.97703757497220   -5.31145e-09   9.17654e-09 DIIS
  Energy and wave function converged.


  ==> Post-Iterations <==

    Orbital Energies [Eh]
    ---------------------

    Doubly Occupied:                                                      

       1A    -26.148887     2A    -26.148434     3A    -26.119894  
       4A    -26.119841     5A    -11.192974     6A    -11.192966  
       7A    -11.192954     8A    -11.192943     9A    -11.192532  
      10A    -11.192530    11A    -11.192523    12A    -11.192515  
      13A    -11.192442    14A    -11.192440    15A    -11.192435  
      16A    -11.192435    17A    -11.191497    18A    -11.191493  
      19A    -11.191479    20A    -11.191473    21A    -11.191239  
      22A    -11.191231    23A    -11.190416    24A    -11.190404  
      25A    -11.190095    26A    -11.190093    27A    -11.190090  
      28A    -11.190085    29A    -11.188973    30A    -11.188962  
      31A    -11.188574    32A    -11.188564    33A    -11.188563  
      34A    -11.188563    35A    -11.188222    36A    -11.187983  
      37A    -11.187964    38A    -11.187784    39A    -11.187766  
      40A    -11.187713    41A    -11.187692    42A    -11.187688  
      43A    -11.187607    44A    -11.187594    45A    -11.187446  
      46A    -11.187416    47A    -11.187401    48A    -11.187370  
      49A    -11.187078    50A    -11.187055    51A    -11.186920  
      52A    -11.186901    53A    -11.186122    54A    -11.186113  
      55A    -11.186099    56A    -11.186087    57A    -11.185680  
      58A    -11.185649    59A    -11.185489    60A    -11.185460  
      61A    -11.185358    62A    -11.185357    63A    -11.185331  
      64A    -11.185317    65A    -11.185289    66A    -11.185281  
      67A    -11.184711    68A    -11.184682    69A    -11.184682  
      70A    -11.184673    71A    -11.184332    72A    -11.184290  
      73A    -11.184209    74A    -11.184190    75A    -11.182984  
      76A    -11.182965    77A    -11.182333    78A    -11.182283  
      79A    -11.182270    80A    -11.182232    81A    -11.181914  
      82A    -11.181905    83A    -11.181728    84A    -11.181680  
      85A    -11.181588    86A    -11.181561    87A    -11.178584  
      88A    -11.178522    89A    -11.178342    90A    -11.178327  
      91A    -11.177119    92A    -11.177107    93A    -11.177094  
      94A    -11.177069    95A    -11.170998    96A    -11.170846  
      97A    -11.169749    98A    -11.169629    99A    -11.168925  
     100A    -11.168902   101A     -7.609304   102A     -1.502219  
     103A     -1.459554   104A     -1.422027   105A     -1.403702  
     106A     -1.173754   107A     -1.163244   108A     -1.162726  
     109A     -1.147129   110A     -1.146552   111A     -1.137212  
     112A     -1.129385   113A     -1.122909   114A     -1.111231  
     115A     -1.110674   116A     -1.102686   117A     -1.102456  
     118A     -1.080060   119A     -1.079293   120A     -1.077012  
     121A     -1.074078   122A     -1.073983   123A     -1.054791  
     124A     -1.042427   125A     -1.041528   126A     -1.039245  
     127A     -1.037554   128A     -1.036930   129A     -1.015219  
     130A     -1.014899   131A     -1.006618   132A     -1.006497  
     133A     -0.993362   134A     -0.992998   135A     -0.989904  
     136A     -0.974761   137A     -0.974434   138A     -0.968238  
     139A     -0.968019   140A     -0.967465   141A     -0.950114  
     142A     -0.945290   143A     -0.943858   144A     -0.935874  
     145A     -0.933133   146A     -0.930206   147A     -0.926218  
     148A     -0.925937   149A     -0.921120   150A     -0.898221  
     151A     -0.897384   152A     -0.884295   153A     -0.884210  
     154A     -0.836358   155A     -0.836245   156A     -0.830036  
     157A     -0.829930   158A     -0.827769   159A     -0.816282  
     160A     -0.816243   161A     -0.815664   162A     -0.815160  
     163A     -0.815055   164A     -0.801860   165A     -0.801303  
     166A     -0.781167   167A     -0.774774   168A     -0.773313  
     169A     -0.770026   170A     -0.768999   171A     -0.763245  
     172A     -0.762381   173A     -0.758966   174A     -0.758465  
     175A     -0.715445   176A     -0.715285   177A     -0.715259  
     178A     -0.709784   179A     -0.709531   180A     -0.709349  
     181A     -0.708062   182A     -0.694980   183A     -0.687712  
     184A     -0.683450   185A     -0.676494   186A     -0.664118  
     187A     -0.656149   188A     -0.655001   189A     -0.652289  
     190A     -0.652194   191A     -0.651810   192A     -0.649105  
     193A     -0.641670   194A     -0.639516   195A     -0.628196  
     196A     -0.628171   197A     -0.624737   198A     -0.616934  
     199A     -0.615484   200A     -0.615170   201A     -0.610796  
     202A     -0.610300   203A     -0.609965   204A     -0.600671  
     205A     -0.600505   206A     -0.582125   207A     -0.579949  
     208A     -0.579253   209A     -0.578925   210A     -0.578079  
     211A     -0.576774   212A     -0.568897   213A     -0.568633  
     214A     -0.568112   215A     -0.566986   216A     -0.563929  
     217A     -0.563568   218A     -0.560014   219A     -0.556551  
     220A     -0.544875   221A     -0.544700   222A     -0.538490  
     223A     -0.538306   224A     -0.531538   225A     -0.527946  
     226A     -0.525926   227A     -0.525543   228A     -0.524675  
     229A     -0.524618   230A     -0.524550   231A     -0.524044  
     232A     -0.523569   233A     -0.523140   234A     -0.522147  
     235A     -0.519687   236A     -0.518360   237A     -0.517435  
     238A     -0.511018   239A     -0.509594   240A     -0.509277  
     241A     -0.504810   242A     -0.502898   243A     -0.502397  
     244A     -0.502204   245A     -0.496074   246A     -0.495661  
     247A     -0.492562   248A     -0.492425   249A     -0.489650  
     250A     -0.488604   251A     -0.486534   252A     -0.484945  
     253A     -0.484577   254A     -0.483273   255A     -0.480783  
     256A     -0.479882   257A     -0.479813   258A     -0.474334  
     259A     -0.472352   260A     -0.463131   261A     -0.462961  
     262A     -0.458569   263A     -0.456932   264A     -0.456155  
     265A     -0.454277   266A     -0.453495   267A     -0.450682  
     268A     -0.445283   269A     -0.445048   270A     -0.443709  
     271A     -0.443501   272A     -0.442600   273A     -0.441373  
     274A     -0.439371   275A     -0.439079   276A     -0.425731  
     277A     -0.423305   278A     -0.423182   279A     -0.417843  
     280A     -0.416900   281A     -0.410999   282A     -0.407633  
     283A     -0.407334   284A     -0.402227   285A     -0.394556  
     286A     -0.393349   287A     -0.392647   288A     -0.387485  
     289A     -0.385895   290A     -0.369193   291A     -0.368885  
     292A     -0.366134   293A     -0.365980   294A     -0.361414  
     295A     -0.359937   296A     -0.350177   297A     -0.334288  
     298A     -0.333439   299A     -0.316514   300A     -0.314911  
     301A     -0.311098   302A     -0.310731   303A     -0.294271  
     304A     -0.281952   305A     -0.280986   306A     -0.278165  
     307A     -0.263903   308A     -0.263716   309A     -0.259186  
     310A     -0.253003   311A     -0.233297   312A     -0.232258  
     313A     -0.227955   314A     -0.225855   315A     -0.222959  
     316A     -0.214567   317A     -0.189612   318A     -0.177659  
     319A     -0.160388   320A     -0.132595   321A     -0.131800  

    Virtual:                                                              

     322A      0.060724   323A      0.062998   324A      0.096043  
     325A      0.096235   326A      0.096700   327A      0.098483  
     328A      0.098834   329A      0.103863   330A      0.105577  
     331A      0.106285   332A      0.109494   333A      0.111667  
     334A      0.111796   335A      0.111858   336A      0.123158  
     337A      0.123180   338A      0.132088   339A      0.132818  
     340A      0.138308   341A      0.138983   342A      0.139044  
     343A      0.140349   344A      0.141089   345A      0.143269  
     346A      0.143502   347A      0.143529   348A      0.143966  
     349A      0.145367   350A      0.146109   351A      0.146747  
     352A      0.150652   353A      0.150833   354A      0.150983  
     355A      0.151142   356A      0.151304   357A      0.151758  
     358A      0.153270   359A      0.161505   360A      0.163641  
     361A      0.164160   362A      0.164766   363A      0.165141  
     364A      0.165925   365A      0.166624   366A      0.168864  
     367A      0.170723   368A      0.173675   369A      0.173750  
     370A      0.176539   371A      0.177603   372A      0.178024  
     373A      0.178158   374A      0.178804   375A      0.179283  
     376A      0.179617   377A      0.181051   378A      0.181463  
     379A      0.182088   380A      0.190054   381A      0.190091  
     382A      0.191589   383A      0.196794   384A      0.198308  
     385A      0.198362   386A      0.199906   387A      0.199942  
     388A      0.205190   389A      0.205944   390A      0.206753  
     391A      0.207245   392A      0.208594   393A      0.215672  
     394A      0.215809   395A      0.216054   396A      0.216551  
     397A      0.217553   398A      0.219687   399A      0.221601  
     400A      0.222845   401A      0.223569   402A      0.224894  
     403A      0.225045   404A      0.225221   405A      0.225685  
     406A      0.227630   407A      0.227818   408A      0.229523  
     409A      0.230006   410A      0.231053   411A      0.231803  
     412A      0.233932   413A      0.235572   414A      0.240604  
     415A      0.241664   416A      0.241910   417A      0.243982  
     418A      0.244568   419A      0.244659   420A      0.245382  
     421A      0.245664   422A      0.251357   423A      0.253081  
     424A      0.253943   425A      0.254298   426A      0.254562  
     427A      0.258599   428A      0.259344   429A      0.259805  
     430A      0.262537   431A      0.262658   432A      0.263711  
     433A      0.264541   434A      0.264755   435A      0.265340  
     436A      0.270486   437A      0.271219   438A      0.272987  
     439A      0.273680   440A      0.273969   441A      0.274579  
     442A      0.274815   443A      0.274943   444A      0.275143  
     445A      0.276182   446A      0.277043   447A      0.277359  
     448A      0.277616   449A      0.278032   450A      0.279493  
     451A      0.279866   452A      0.280346   453A      0.281026  
     454A      0.285923   455A      0.286501   456A      0.291889  
     457A      0.292488   458A      0.293203   459A      0.293481  
     460A      0.294012   461A      0.294206   462A      0.294931  
     463A      0.295280   464A      0.296313   465A      0.297661  
     466A      0.297749   467A      0.301039   468A      0.301978  
     469A      0.303714   470A      0.304968   471A      0.306911  
     472A      0.309451   473A      0.310041   474A      0.311292  
     475A      0.311515   476A      0.316220   477A      0.317399  
     478A      0.317555   479A      0.320599   480A      0.321257  
     481A      0.321948   482A      0.322352   483A      0.323249  
     484A      0.323947   485A      0.325033   486A      0.326765  
     487A      0.328270   488A      0.329252   489A      0.329740  
     490A      0.331666   491A      0.331779   492A      0.334527  
     493A      0.339880   494A      0.340388   495A      0.340471  
     496A      0.341421   497A      0.342545   498A      0.342928  
     499A      0.344330   500A      0.344457   501A      0.345664  
     502A      0.345822   503A      0.345947   504A      0.347461  
     505A      0.347702   506A      0.351733   507A      0.352237  
     508A      0.354046   509A      0.354516   510A      0.357003  
     511A      0.360231   512A      0.361002   513A      0.361336  
     514A      0.361679   515A      0.363018   516A      0.366301  
     517A      0.367673   518A      0.367939   519A      0.368240  
     520A      0.369106   521A      0.370099   522A      0.370370  
     523A      0.371163   524A      0.372081   525A      0.373892  
     526A      0.374223   527A      0.374921   528A      0.375802  
     529A      0.375933   530A      0.376695   531A      0.379259  
     532A      0.379726   533A      0.380150   534A      0.380482  
     535A      0.383330   536A      0.383788   537A      0.386198  
     538A      0.387835   539A      0.388356   540A      0.389836  
     541A      0.390532   542A      0.390830   543A      0.391432  
     544A      0.392841   545A      0.394028   546A      0.394933  
     547A      0.396128   548A      0.396686   549A      0.397683  
     550A      0.398120   551A      0.398738   552A      0.399697  
     553A      0.400504   554A      0.402376   555A      0.404210  
     556A      0.404261   557A      0.405135   558A      0.408175  
     559A      0.408467   560A      0.409633   561A      0.409966  
     562A      0.410150   563A      0.416293   564A      0.416623  
     565A      0.417047   566A      0.418018   567A      0.420019  
     568A      0.423295   569A      0.425019   570A      0.425787  
     571A      0.426951   572A      0.427551   573A      0.427864  
     574A      0.431751   575A      0.433293   576A      0.433698  
     577A      0.435875   578A      0.437292   579A      0.438496  
     580A      0.439212   581A      0.439574   582A      0.440418  
     583A      0.441260   584A      0.442054   585A      0.445450  
     586A      0.446432   587A      0.446829   588A      0.448064  
     589A      0.448791   590A      0.449973   591A      0.451946  
     592A      0.456075   593A      0.456322   594A      0.456536  
     595A      0.457556   596A      0.458395   597A      0.459430  
     598A      0.460241   599A      0.460565   600A      0.461581  
     601A      0.462155   602A      0.463204   603A      0.463729  
     604A      0.465390   605A      0.466051   606A      0.466722  
     607A      0.467286   608A      0.467914   609A      0.468216  
     610A      0.468404   611A      0.472437   612A      0.472659  
     613A      0.472784   614A      0.473596   615A      0.473789  
     616A      0.474349   617A      0.476205   618A      0.476363  
     619A      0.476485   620A      0.477253   621A      0.477706  
     622A      0.477897   623A      0.478415   624A      0.478796  
     625A      0.479024   626A      0.479268   627A      0.483169  
     628A      0.483676   629A      0.484238   630A      0.486989  
     631A      0.487192   632A      0.487956   633A      0.488390  
     634A      0.490033   635A      0.491482   636A      0.491907  
     637A      0.494087   638A      0.494660   639A      0.496743  
     640A      0.499443   641A      0.500025   642A      0.500325  
     643A      0.501039   644A      0.502339   645A      0.502872  
     646A      0.503520   647A      0.503889   648A      0.504589  
     649A      0.505584   650A      0.506137   651A      0.506934  
     652A      0.507012   653A      0.507162   654A      0.507604  
     655A      0.508641   656A      0.510766   657A      0.512145  
     658A      0.514878   659A      0.518306   660A      0.518713  
     661A      0.519029   662A      0.519398   663A      0.521065  
     664A      0.521288   665A      0.522102   666A      0.522327  
     667A      0.523179   668A      0.523714   669A      0.524664  
     670A      0.525738   671A      0.526704   672A      0.527192  
     673A      0.528453   674A      0.529824   675A      0.530473  
     676A      0.533052   677A      0.533402   678A      0.537783  
     679A      0.538765   680A      0.538866   681A      0.539919  
     682A      0.540550   683A      0.541514   684A      0.543573  
     685A      0.544720   686A      0.545004   687A      0.545713  
     688A      0.546331   689A      0.547202   690A      0.547323  
     691A      0.549136   692A      0.549477   693A      0.550791  
     694A      0.551765   695A      0.552759   696A      0.553811  
     697A      0.554628   698A      0.554726   699A      0.555745  
     700A      0.557936   701A      0.558786   702A      0.559008  
     703A      0.559835   704A      0.562176   705A      0.563396  
     706A      0.563962   707A      0.564173   708A      0.565172  
     709A      0.566181   710A      0.566614   711A      0.569200  
     712A      0.569496   713A      0.569537   714A      0.570414  
     715A      0.572822   716A      0.575094   717A      0.575982  
     718A      0.577120   719A      0.578930   720A      0.580119  
     721A      0.581345   722A      0.583838   723A      0.584718  
     724A      0.585945   725A      0.586208   726A      0.586607  
     727A      0.587737   728A      0.588506   729A      0.591005  
     730A      0.591889   731A      0.592416   732A      0.594361  
     733A      0.595640   734A      0.597873   735A      0.602165  
     736A      0.602784   737A      0.603342   738A      0.604730  
     739A      0.606879   740A      0.608965   741A      0.611632  
     742A      0.614518   743A      0.616539   744A      0.616891  
     745A      0.619011   746A      0.620006   747A      0.624679  
     748A      0.626456   749A      0.628587   750A      0.629258  
     751A      0.629800   752A      0.630538   753A      0.631657  
     754A      0.632739   755A      0.633826   756A      0.636322  
     757A      0.638306   758A      0.639666   759A      0.641529  
     760A      0.642258   761A      0.643001   762A      0.643556  
     763A      0.647805   764A      0.648087   765A      0.648921  
     766A      0.650669   767A      0.651239   768A      0.652079  
     769A      0.654947   770A      0.655057   771A      0.657704  
     772A      0.658369   773A      0.663779   774A      0.666992  
     775A      0.667839   776A      0.671971   777A      0.672455  
     778A      0.673873   779A      0.674032   780A      0.674928  
     781A      0.677219   782A      0.677509   783A      0.679020  
     784A      0.680410   785A      0.685566   786A      0.686431  
     787A      0.687052   788A      0.687377   789A      0.688317  
     790A      0.689749   791A      0.692166   792A      0.699584  
     793A      0.702549   794A      0.703813   795A      0.704361  
     796A      0.707537   797A      0.710310   798A      0.714570  
     799A      0.716148   800A      0.716951   801A      0.718813  
     802A      0.721127   803A      0.723657   804A      0.726621  
     805A      0.728511   806A      0.729881   807A      0.732031  
     808A      0.734200   809A      0.735242   810A      0.735928  
     811A      0.738698   812A      0.745402   813A      0.745993  
     814A      0.748162   815A      0.751172   816A      0.754599  
     817A      0.757021   818A      0.758584   819A      0.759299  
     820A      0.760996   821A      0.761648   822A      0.762799  
     823A      0.763419   824A      0.766033   825A      0.768525  
     826A      0.769160   827A      0.772873   828A      0.773614  
     829A      0.776484   830A      0.781528   831A      0.788439  
     832A      0.788800   833A      0.791589   834A      0.803468  
     835A      0.805451   836A      0.806975   837A      0.807783  
     838A      0.809184   839A      0.813954   840A      0.814556  
     841A      0.816868   842A      0.819346   843A      0.820854  
     844A      0.822670   845A      0.824540   846A      0.826376  
     847A      0.831841   848A      0.847629   849A      0.848267  
     850A      0.852418   851A      0.855517   852A      0.857589  
     853A      0.859525   854A      0.861763   855A      0.867092  
     856A      0.868111   857A      0.869683   858A      0.870299  
     859A      0.871623   860A      0.872702   861A      0.874669  
     862A      0.874863   863A      0.879278   864A      0.882806  
     865A      0.883839   866A      0.884624   867A      0.885475  
     868A      0.885968   869A      0.886603   870A      0.889250  
     871A      0.895899   872A      0.896380   873A      0.897150  
     874A      0.901002   875A      0.904293   876A      0.905943  
     877A      0.906986   878A      0.909672   879A      0.912200  
     880A      0.915040   881A      0.915251   882A      0.916965  
     883A      0.921097   884A      0.922169   885A      0.923711  
     886A      0.925915   887A      0.926558   888A      0.930283  
     889A      0.931831   890A      0.932531   891A      0.933314  
     892A      0.935063   893A      0.935078   894A      0.935863  
     895A      0.938263   896A      0.939730   897A      0.942612  
     898A      0.943322   899A      0.946157   900A      0.946796  
     901A      0.949378   902A      0.950403   903A      0.951625  
     904A      0.954299   905A      0.955214   906A      0.956792  
     907A      0.957358   908A      0.959054   909A      0.964616  
     910A      0.965624   911A      0.967452   912A      0.967888  
     913A      0.968586   914A      0.969356   915A      0.974025  
     916A      0.974970   917A      0.975611   918A      0.981548  
     919A      0.983529   920A      0.984306   921A      0.985194  
     922A      0.985893   923A      0.986776   924A      0.988473  
     925A      0.989670   926A      0.991273   927A      0.993747  
     928A      0.995803   929A      0.999051   930A      0.999607  
     931A      1.001431   932A      1.002507   933A      1.002876  
     934A      1.003663   935A      1.006375   936A      1.008468  
     937A      1.009558   938A      1.010903   939A      1.012801  
     940A      1.013863   941A      1.015510   942A      1.017504  
     943A      1.019254   944A      1.021452   945A      1.021882  
     946A      1.022430   947A      1.023159   948A      1.024345  
     949A      1.024456   950A      1.026646   951A      1.027627  
     952A      1.029079   953A      1.029975   954A      1.031983  
     955A      1.033140   956A      1.034268   957A      1.036215  
     958A      1.043332   959A      1.044182   960A      1.050052  
     961A      1.051652   962A      1.055443   963A      1.058571  
     964A      1.059964   965A      1.061438   966A      1.062626  
     967A      1.064543   968A      1.066917   969A      1.071361  
     970A      1.072260   971A      1.073639   972A      1.073958  
     973A      1.074684   974A      1.075541   975A      1.076067  
     976A      1.076759   977A      1.083780   978A      1.084193  
     979A      1.086130   980A      1.089692   981A      1.090477  
     982A      1.091218   983A      1.094619   984A      1.095795  
     985A      1.096177   986A      1.097086   987A      1.101314  
     988A      1.103574   989A      1.106461   990A      1.108336  
     991A      1.110091   992A      1.116464   993A      1.116597  
     994A      1.117594   995A      1.117945   996A      1.118598  
     997A      1.119264   998A      1.119952   999A      1.121313  
    1000A      1.122618  1001A      1.123808  1002A      1.124807  
    1003A      1.128458  1004A      1.130163  1005A      1.131273  
    1006A      1.132240  1007A      1.133455  1008A      1.133803  
    1009A      1.134879  1010A      1.136144  1011A      1.137007  
    1012A      1.140938  1013A      1.140970  1014A      1.141628  
    1015A      1.142216  1016A      1.142853  1017A      1.143379  
    1018A      1.143734  1019A      1.144277  1020A      1.145541  
    1021A      1.147502  1022A      1.148242  1023A      1.150203  
    1024A      1.151049  1025A      1.151258  1026A      1.152095  
    1027A      1.152695  1028A      1.153976  1029A      1.154085  
    1030A      1.154836  1031A      1.155357  1032A      1.155622  
    1033A      1.156108  1034A      1.156807  1035A      1.158919  
    1036A      1.159692  1037A      1.160982  1038A      1.162419  
    1039A      1.163400  1040A      1.166134  1041A      1.168081  
    1042A      1.169380  1043A      1.171422  1044A      1.173511  
    1045A      1.174393  1046A      1.175817  1047A      1.176424  
    1048A      1.177134  1049A      1.177954  1050A      1.179021  
    1051A      1.183676  1052A      1.184909  1053A      1.185990  
    1054A      1.187158  1055A      1.188223  1056A      1.189159  
    1057A      1.191008  1058A      1.191672  1059A      1.193297  
    1060A      1.196206  1061A      1.197409  1062A      1.199113  
    1063A      1.200823  1064A      1.203440  1065A      1.205701  
    1066A      1.207446  1067A      1.209268  1068A      1.210645  
    1069A      1.211626  1070A      1.214801  1071A      1.217348  
    1072A      1.219239  1073A      1.220576  1074A      1.221679  
    1075A      1.223624  1076A      1.223919  1077A      1.227219  
    1078A      1.228308  1079A      1.229198  1080A      1.229931  
    1081A      1.231729  1082A      1.233752  1083A      1.237966  
    1084A      1.238302  1085A      1.239791  1086A      1.242819  
    1087A      1.244944  1088A      1.245388  1089A      1.247079  
    1090A      1.249100  1091A      1.249719  1092A      1.254613  
    1093A      1.256221  1094A      1.257853  1095A      1.259375  
    1096A      1.261180  1097A      1.261935  1098A      1.262630  
    1099A      1.265748  1100A      1.266465  1101A      1.274123  
    1102A      1.276731  1103A      1.276979  1104A      1.278486  
    1105A      1.278681  1106A      1.279740  1107A      1.282968  
    1108A      1.283635  1109A      1.284149  1110A      1.285241  
    1111A      1.288262  1112A      1.289822  1113A      1.290193  
    1114A      1.291375  1115A      1.292320  1116A      1.299725  
    1117A      1.302491  1118A      1.306242  1119A      1.307237  
    1120A      1.316022  1121A      1.319443  1122A      1.320747  
    1123A      1.323182  1124A      1.324984  1125A      1.326366  
    1126A      1.327863  1127A      1.328426  1128A      1.329844  
    1129A      1.330853  1130A      1.336775  1131A      1.337082  
    1132A      1.337245  1133A      1.338405  1134A      1.339700  
    1135A      1.341802  1136A      1.342849  1137A      1.350376  
    1138A      1.351309  1139A      1.356698  1140A      1.358720  
    1141A      1.362293  1142A      1.363416  1143A      1.364050  
    1144A      1.366183  1145A      1.367511  1146A      1.370620  
    1147A      1.373776  1148A      1.375204  1149A      1.375481  
    1150A      1.376082  1151A      1.383227  1152A      1.385088  
    1153A      1.385493  1154A      1.385913  1155A      1.386962  
    1156A      1.389247  1157A      1.390512  1158A      1.392333  
    1159A      1.393351  1160A      1.396548  1161A      1.399070  
    1162A      1.399219  1163A      1.400774  1164A      1.402839  
    1165A      1.403810  1166A      1.404458  1167A      1.405981  
    1168A      1.408560  1169A      1.411154  1170A      1.411888  
    1171A      1.413234  1172A      1.426396  1173A      1.427422  
    1174A      1.428039  1175A      1.429834  1176A      1.431320  
    1177A      1.432183  1178A      1.433154  1179A      1.433453  
    1180A      1.434235  1181A      1.438726  1182A      1.440600  
    1183A      1.443992  1184A      1.444818  1185A      1.447564  
    1186A      1.447825  1187A      1.455435  1188A      1.457330  
    1189A      1.457594  1190A      1.458274  1191A      1.459088  
    1192A      1.461227  1193A      1.462119  1194A      1.464001  
    1195A      1.467071  1196A      1.472970  1197A      1.475652  
    1198A      1.476743  1199A      1.477250  1200A      1.479868  
    1201A      1.480117  1202A      1.480590  1203A      1.481774  
    1204A      1.482125  1205A      1.488498  1206A      1.492185  
    1207A      1.492641  1208A      1.492681  1209A      1.494945  
    1210A      1.499682  1211A      1.502437  1212A      1.503233  
    1213A      1.504857  1214A      1.505338  1215A      1.506575  
    1216A      1.508642  1217A      1.510545  1218A      1.513654  
    1219A      1.514834  1220A      1.516577  1221A      1.518421  
    1222A      1.519028  1223A      1.523615  1224A      1.526993  
    1225A      1.529852  1226A      1.530559  1227A      1.531869  
    1228A      1.532816  1229A      1.538855  1230A      1.539624  
    1231A      1.540206  1232A      1.544306  1233A      1.546217  
    1234A      1.547486  1235A      1.549272  1236A      1.552448  
    1237A      1.556451  1238A      1.556626  1239A      1.560427  
    1240A      1.564226  1241A      1.567842  1242A      1.569785  
    1243A      1.571640  1244A      1.572295  1245A      1.575020  
    1246A      1.587586  1247A      1.590088  1248A      1.592364  
    1249A      1.593476  1250A      1.609591  1251A      1.611036  
    1252A      1.612008  1253A      1.613364  1254A      1.622764  
    1255A      1.627671  1256A      1.657901  1257A      1.660375  
    1258A      1.660712  1259A      1.665132  1260A      1.673627  
    1261A      1.678647  1262A      1.679702  1263A      1.680548  
    1264A      1.681919  1265A      1.683330  1266A      1.684887  
    1267A      1.685939  1268A      1.688265  1269A      1.689905  
    1270A      1.690661  1271A      1.691039  1272A      1.692413  
    1273A      1.693050  1274A      1.694822  1275A      1.695450  
    1276A      1.698302  1277A      1.700486  1278A      1.701158  
    1279A      1.702098  1280A      1.703577  1281A      1.704638  
    1282A      1.705887  1283A      1.706288  1284A      1.708106  
    1285A      1.711409  1286A      1.712223  1287A      1.713935  
    1288A      1.715081  1289A      1.716729  1290A      1.717741  
    1291A      1.721576  1292A      1.721985  1293A      1.723291  
    1294A      1.723581  1295A      1.725786  1296A      1.726570  
    1297A      1.728218  1298A      1.729225  1299A      1.730614  
    1300A      1.735264  1301A      1.735559  1302A      1.739531  
    1303A      1.740898  1304A      1.742077  1305A      1.743694  
    1306A      1.744152  1307A      1.744465  1308A      1.750080  
    1309A      1.751454  1310A      1.753542  1311A      1.754564  
    1312A      1.758767  1313A      1.759620  1314A      1.763223  
    1315A      1.764449  1316A      1.764763  1317A      1.766089  
    1318A      1.767438  1319A      1.772501  1320A      1.773569  
    1321A      1.775037  1322A      1.777106  1323A      1.783241  
    1324A      1.785086  1325A      1.786641  1326A      1.786914  
    1327A      1.787731  1328A      1.793690  1329A      1.796209  
    1330A      1.796431  1331A      1.798351  1332A      1.799924  
    1333A      1.800187  1334A      1.805068  1335A      1.807159  
    1336A      1.812278  1337A      1.822382  1338A      1.823238  
    1339A      1.824040  1340A      1.825088  1341A      1.825298  
    1342A      1.837845  1343A      1.838857  1344A      1.850989  
    1345A      1.851450  1346A      1.852078  1347A      1.853681  
    1348A      1.855519  1349A      1.877951  1350A      1.878495  
    1351A      1.881301  1352A      1.890971  1353A      1.895461  
    1354A      1.896561  1355A      1.898085  1356A      1.899796  
    1357A      1.902032  1358A      1.903130  1359A      1.903525  
    1360A      1.904104  1361A      1.904910  1362A      1.906878  
    1363A      1.913726  1364A      1.916970  1365A      1.919303  
    1366A      1.922482  1367A      1.923563  1368A      1.924996  
    1369A      1.925821  1370A      1.933198  1371A      1.935404  
    1372A      1.936158  1373A      1.936785  1374A      1.937488  
    1375A      1.940358  1376A      1.943026  1377A      1.943832  
    1378A      1.944897  1379A      1.945238  1380A      1.946179  
    1381A      1.948631  1382A      1.950200  1383A      1.952585  
    1384A      1.953824  1385A      1.956028  1386A      1.956936  
    1387A      1.958333  1388A      1.963191  1389A      1.963305  
    1390A      1.965444  1391A      1.972518  1392A      1.973722  
    1393A      1.975558  1394A      1.976472  1395A      1.979746  
    1396A      1.979926  1397A      1.987396  1398A      1.988819  
    1399A      1.990200  1400A      1.992323  1401A      1.996743  
    1402A      1.997568  1403A      2.000896  1404A      2.002489  
    1405A      2.004084  1406A      2.005825  1407A      2.006796  
    1408A      2.008437  1409A      2.010366  1410A      2.012792  
    1411A      2.013719  1412A      2.017096  1413A      2.017572  
    1414A      2.018678  1415A      2.019381  1416A      2.021308  
    1417A      2.025732  1418A      2.027478  1419A      2.028792  
    1420A      2.029978  1421A      2.034988  1422A      2.035154  
    1423A      2.035855  1424A      2.039922  1425A      2.042282  
    1426A      2.042941  1427A      2.044710  1428A      2.046769  
    1429A      2.050268  1430A      2.052895  1431A      2.053264  
    1432A      2.055618  1433A      2.058824  1434A      2.059688  
    1435A      2.060208  1436A      2.063795  1437A      2.063986  
    1438A      2.064552  1439A      2.067133  1440A      2.073613  
    1441A      2.075789  1442A      2.079320  1443A      2.081586  
    1444A      2.083175  1445A      2.086737  1446A      2.089576  
    1447A      2.090415  1448A      2.091531  1449A      2.091712  
    1450A      2.094075  1451A      2.095115  1452A      2.095741  
    1453A      2.096756  1454A      2.097201  1455A      2.103028  
    1456A      2.104112  1457A      2.104620  1458A      2.107689  
    1459A      2.108275  1460A      2.108995  1461A      2.110167  
    1462A      2.112573  1463A      2.114071  1464A      2.117347  
    1465A      2.118496  1466A      2.123611  1467A      2.126074  
    1468A      2.129063  1469A      2.130334  1470A      2.131708  
    1471A      2.133155  1472A      2.134823  1473A      2.138247  
    1474A      2.141405  1475A      2.141719  1476A      2.144144  
    1477A      2.144329  1478A      2.148296  1479A      2.150445  
    1480A      2.152325  1481A      2.153852  1482A      2.154342  
    1483A      2.156987  1484A      2.157168  1485A      2.157406  
    1486A      2.157804  1487A      2.157997  1488A      2.160029  
    1489A      2.160246  1490A      2.161191  1491A      2.161540  
    1492A      2.163360  1493A      2.164075  1494A      2.164660  
    1495A      2.165780  1496A      2.169476  1497A      2.170661  
    1498A      2.173322  1499A      2.173676  1500A      2.175122  
    1501A      2.178134  1502A      2.179925  1503A      2.181006  
    1504A      2.183937  1505A      2.185039  1506A      2.186834  
    1507A      2.187614  1508A      2.187942  1509A      2.188613  
    1510A      2.189408  1511A      2.191253  1512A      2.192399  
    1513A      2.194114  1514A      2.196610  1515A      2.196920  
    1516A      2.197675  1517A      2.200088  1518A      2.200797  
    1519A      2.202208  1520A      2.204142  1521A      2.206101  
    1522A      2.206944  1523A      2.210513  1524A      2.212627  
    1525A      2.213915  1526A      2.214761  1527A      2.217187  
    1528A      2.218876  1529A      2.220756  1530A      2.222605  
    1531A      2.227297  1532A      2.230974  1533A      2.232329  
    1534A      2.233295  1535A      2.233614  1536A      2.234280  
    1537A      2.236204  1538A      2.238161  1539A      2.240660  
    1540A      2.241353  1541A      2.242553  1542A      2.243657  
    1543A      2.247669  1544A      2.249734  1545A      2.251994  
    1546A      2.254067  1547A      2.254647  1548A      2.255162  
    1549A      2.259605  1550A      2.265466  1551A      2.266022  
    1552A      2.268356  1553A      2.269614  1554A      2.270845  
    1555A      2.272894  1556A      2.273368  1557A      2.274352  
    1558A      2.275894  1559A      2.276147  1560A      2.278029  
    1561A      2.281060  1562A      2.282074  1563A      2.284260  
    1564A      2.287127  1565A      2.290784  1566A      2.292391  
    1567A      2.294784  1568A      2.295521  1569A      2.297043  
    1570A      2.297746  1571A      2.299402  1572A      2.300433  
    1573A      2.301231  1574A      2.303147  1575A      2.303756  
    1576A      2.306531  1577A      2.308804  1578A      2.313998  
    1579A      2.316073  1580A      2.317648  1581A      2.317858  
    1582A      2.322775  1583A      2.324965  1584A      2.329543  
    1585A      2.336065  1586A      2.340064  1587A      2.341149  
    1588A      2.342378  1589A      2.346879  1590A      2.349857  
    1591A      2.353086  1592A      2.354162  1593A      2.355499  
    1594A      2.356427  1595A      2.358713  1596A      2.362657  
    1597A      2.364701  1598A      2.368491  1599A      2.370144  
    1600A      2.375038  1601A      2.377827  1602A      2.379802  
    1603A      2.388057  1604A      2.391402  1605A      2.396071  
    1606A      2.397324  1607A      2.400387  1608A      2.400832  
    1609A      2.401571  1610A      2.403694  1611A      2.407248  
    1612A      2.408505  1613A      2.411067  1614A      2.412772  
    1615A      2.413893  1616A      2.415002  1617A      2.415972  
    1618A      2.417517  1619A      2.418381  1620A      2.422009  
    1621A      2.423779  1622A      2.429628  1623A      2.432049  
    1624A      2.446959  1625A      2.454106  1626A      2.454937  
    1627A      2.458265  1628A      2.460957  1629A      2.463147  
    1630A      2.468862  1631A      2.473892  1632A      2.478321  
    1633A      2.487745  1634A      2.490728  1635A      2.496207  
    1636A      2.499544  1637A      2.502945  1638A      2.512687  
    1639A      2.516884  1640A      2.518170  1641A      2.521564  
    1642A      2.528018  1643A      2.534445  1644A      2.536921  
    1645A      2.538660  1646A      2.539146  1647A      2.542844  
    1648A      2.543102  1649A      2.546605  1650A      2.558693  
    1651A      2.561526  1652A      2.571285  1653A      2.575294  
    1654A      2.577180  1655A      2.580139  1656A      2.585890  
    1657A      2.590307  1658A      2.594955  1659A      2.612405  
    1660A      2.612926  1661A      2.614074  1662A      2.615337  
    1663A      2.617366  1664A      2.618025  1665A      2.619270  
    1666A      2.622582  1667A      2.624827  1668A      2.631282  
    1669A      2.633183  1670A      2.634691  1671A      2.636780  
    1672A      2.640000  1673A      2.642908  1674A      2.650747  
    1675A      2.651845  1676A      2.653052  1677A      2.654297  
    1678A      2.655787  1679A      2.656507  1680A      2.657565  
    1681A      2.660542  1682A      2.664504  1683A      2.669019  
    1684A      2.673021  1685A      2.681258  1686A      2.684288  
    1687A      2.684641  1688A      2.685788  1689A      2.687053  
    1690A      2.691751  1691A      2.695516  1692A      2.706690  
    1693A      2.713884  1694A      2.717691  1695A      2.718680  
    1696A      2.720600  1697A      2.721674  1698A      2.724735  
    1699A      2.725132  1700A      2.726153  1701A      2.728051  
    1702A      2.729397  1703A      2.739415  1704A      2.740247  
    1705A      2.742129  1706A      2.743740  1707A      2.746771  
    1708A      2.748460  1709A      2.749070  1710A      2.759315  
    1711A      2.760365  1712A      2.761496  1713A      2.762736  
    1714A      2.764401  1715A      2.764514  1716A      2.766393  
    1717A      2.767065  1718A      2.770099  1719A      2.777206  
    1720A      2.784474  1721A      2.791891  1722A      2.796388  
    1723A      2.800390  1724A      2.800506  1725A      2.804456  
    1726A      2.805075  1727A      2.813595  1728A      2.836078  
    1729A      2.843183  1730A      2.854056  1731A      2.855256  
    1732A      2.859714  1733A      2.862427  1734A      2.869276  
    1735A      2.875705  1736A      2.876027  1737A      2.877131  
    1738A      2.877832  1739A      2.885316  1740A      2.889552  
    1741A      2.892815  1742A      2.893662  1743A      2.896160  
    1744A      2.897124  1745A      2.904231  1746A      2.907707  
    1747A      2.914944  1748A      2.916349  1749A      2.919402  
    1750A      2.922446  1751A      2.926022  1752A      2.940109  
    1753A      2.941052  1754A      2.943050  1755A      2.944121  
    1756A      2.946489  1757A      2.949082  1758A      2.974910  
    1759A      2.975551  1760A      2.979475  1761A      2.986519  
    1762A      2.986816  1763A      2.996788  1764A      2.998678  
    1765A      3.002749  1766A      3.005382  1767A      3.020752  
    1768A      3.034158  1769A      3.035472  1770A      3.036377  
    1771A      3.046406  1772A      3.062408  1773A      3.070212  
    1774A      3.100186  1775A      3.108341  1776A      3.109791  
    1777A      3.113743  1778A      3.117007  1779A      3.122015  
    1780A      3.128244  1781A      3.131490  1782A      3.132229  
    1783A      3.134161  1784A      3.143168  1785A      3.149013  
    1786A      3.180141  1787A      3.180975  1788A      3.184911  
    1789A      3.195898  1790A      3.200955  1791A      3.201523  
    1792A      3.210673  1793A      3.212306  1794A      3.213290  
    1795A      3.215989  1796A      3.218923  1797A      3.220966  
    1798A      3.223510  1799A      3.224211  1800A      3.230201  
    1801A      3.234115  1802A      3.241216  1803A      3.245702  
    1804A      3.248893  1805A      3.251933  1806A      3.262398  
    1807A      3.266831  1808A      3.289388  1809A      3.331736  
    1810A      3.333207  1811A      3.333717  1812A      3.334961  
    1813A      3.335380  1814A      3.338099  1815A      3.346276  
    1816A      3.347250  1817A      3.347966  1818A      3.354231  
    1819A      3.369832  1820A      3.372295  1821A      3.383269  
    1822A      3.385813  1823A      3.438409  1824A      3.438530  
    1825A      3.443030  1826A      3.464080  1827A      3.478440  
    1828A      3.498186  1829A      3.527910  1830A      3.531984  
    1831A      3.539192  1832A      3.542608  1833A      3.543842  
    1834A      3.550980  1835A      3.556393  1836A      3.560940  
    1837A      3.567293  1838A      3.569924  1839A      3.576452  
    1840A      3.591435  1841A      3.611196  1842A      3.617644  
    1843A      3.637661  1844A      3.652076  1845A      3.659896  
    1846A      3.664515  1847A      3.667053  1848A      3.726367  
    1849A      3.731503  1850A      3.743892  1851A      3.756325  
    1852A      3.772699  1853A      3.794731  1854A      3.831809  
    1855A      3.833293  1856A      3.849756  1857A      3.851779  
    1858A      3.859192  1859A      3.918255  1860A      3.921836  
    1861A      3.947387  1862A      3.953255  1863A      3.982436  
    1864A      3.993761  1865A      3.997475  1866A      4.013398  
    1867A      4.021914  1868A      4.022997  1869A      4.043100  
    1870A      4.049287  1871A      4.053732  1872A      4.093509  
    1873A      4.101756  1874A      4.106191  1875A      4.132218  
    1876A      4.154576  1877A      4.165780  1878A      4.175013  
    1879A      4.178299  1880A      4.185647  1881A      4.241823  
    1882A      4.246984  1883A      4.268038  1884A      4.284648  
    1885A      4.329472  1886A      4.345890  1887A      4.375400  
    1888A      4.424932  1889A      4.458544  1890A      4.501355  
    1891A      4.557663  1892A      4.642453  1893A      4.654241  
    1894A      4.686929  1895A      4.705071  1896A      4.736397  
    1897A      4.767115  1898A      4.831397  

    Final Occupation by Irrep:
              A 
    DOCC [   321 ]
    NA   [   321 ]
    NB   [   321 ]

  @DF-RHF Final Energy: -4072.97703757497220

   => Energetics <=

    Nuclear Repulsion Energy =          17923.8458596488781041
    One-Electron Energy =              -41337.7905627407817519
    Two-Electron Energy =               19340.9676655169314472
    Total Energy =                      -4072.9770375749722007

Computation Completed


Properties will be evaluated at   0.000000,   0.000000,   0.000000 [a0]

Properties computed using the SCF density matrix


 Multipole Moments:

 ------------------------------------------------------------------------------------
     Multipole            Electronic (a.u.)      Nuclear  (a.u.)        Total (a.u.)
 ------------------------------------------------------------------------------------

 L = 1.  Multiply by 2.5417464519 to convert [e a0] to [Debye]
 Dipole X            :          0.0017656           -0.0001188            0.0016468
 Dipole Y            :          0.0004595           -0.0002727            0.0001868
 Dipole Z            :         13.3887937          -16.0684702           -2.6796765
 Magnitude           :                                                    2.6796770

 ------------------------------------------------------------------------------------

*** tstop() called on n2cn0291 at Wed Feb  7 20:49:36 2024
Module time:
	user time   =   24913.90 seconds =     415.23 minutes
	system time =    1528.07 seconds =      25.47 minutes
	total time  =       3338 seconds =      55.63 minutes
Total time:
	user time   =   24913.90 seconds =     415.23 minutes
	system time =    1528.07 seconds =      25.47 minutes
	total time  =       3338 seconds =      55.63 minutes

  //>>>>>>>>>>>>>>>>>>>>>>>>>>>>>>>>>>>//
  //            Monomer A HF           //
  //<<<<<<<<<<<<<<<<<<<<<<<<<<<<<<<<<<<//

   => Libint2 <=

    Primary   basis highest AM E, G, H:  5, 4, 3
    Auxiliary basis highest AM E, G, H:  6, 5, 4
    Onebody   basis highest AM E, G, H:  6, 5, 4
    Solid Harmonics ordering:            gaussian

*** tstart() called on n2cn0291
*** at Wed Feb  7 20:49:36 2024

   => Loading Basis Set <=

    Name: JUN-CC-PVDZ
    Role: ORBITAL
    Keyword: BASIS
    atoms 1                                                   entry B          line   130 file /opt/software/pc2/EB-SW/software/PSI4/1.9-foss-2022a/share/psi4/basis/jun-cc-pvdz.gbs 
    atoms 2-5                                                 entry F          line   266 file /opt/software/pc2/EB-SW/software/PSI4/1.9-foss-2022a/share/psi4/basis/jun-cc-pvdz.gbs 
    atoms 6-23, 30-42, 45-59, 62-78, 81-93, 98-108, 111-119   entry C          line   164 file /opt/software/pc2/EB-SW/software/PSI4/1.9-foss-2022a/share/psi4/basis/jun-cc-pvdz.gbs 
    atoms 24-29, 43-44, 60-61, 79-80, 94-97, 109-110, 120-125 entry H          line    36 file /opt/software/pc2/EB-SW/software/PSI4/1.9-foss-2022a/share/psi4/basis/jun-cc-pvdz.gbs 


         ---------------------------------------------------------
                                   SCF
               by Justin Turney, Rob Parrish, Andy Simmonett
                          and Daniel G. A. Smith
                              RHF Reference
                       16 Threads,  76293 MiB Core
         ---------------------------------------------------------

  ==> Geometry <==

    Molecular point group: c1
    Full point group: C1

    Geometry (in Angstrom), charge = -1, multiplicity = 1:

       Center              X                  Y                   Z               Mass       
    ------------   -----------------  -----------------  -----------------  -----------------
         B           -0.000050191042     0.000351518223     2.514026993521    11.009305360000
         F           -1.153601191042     0.000062518223     3.329673993521    18.998403162730
         F            1.153656808958    -0.000566481777     3.329673993521    18.998403162730
         F           -0.000023191042    -1.153622481777     1.698392993521    18.998403162730
         F           -0.000023191042     1.153992518223     1.698392993521    18.998403162730
      Gh(C)          -3.668445455062     7.803766688305    -0.184066965143    12.000000000000
      Gh(C)          -4.847602910388     7.131256349563    -0.186433540076    12.000000000000
      Gh(C)          -4.894963490217     5.696344921754    -0.187006451174    12.000000000000
      Gh(C)          -3.653744869815     4.980744859182    -0.179346009445    12.000000000000
      Gh(C)          -2.409429312536     7.113995554897    -0.183872622883    12.000000000000
      Gh(C)          -2.425481535146     5.681136469126    -0.190877511753    12.000000000000
      Gh(C)          -1.194748207477     7.786158712532    -0.182400442341    12.000000000000
      Gh(C)           0.037954837895     7.099436163980    -0.184571146646    12.000000000000
      Gh(C)           0.030328396378     5.669504077927    -0.190054531562    12.000000000000
      Gh(C)          -1.200988698947     4.969284866138    -0.181084797629    12.000000000000
      Gh(C)           1.277953634773     7.772873961417    -0.183195298086    12.000000000000
      Gh(C)           2.485353893683     7.087711403460    -0.185469785990    12.000000000000
      Gh(C)           2.486124493876     5.654785328463    -0.192407534978    12.000000000000
      Gh(C)           1.254078728602     4.956092631887    -0.180779593390    12.000000000000
      Gh(C)           3.751710400364     7.763926669203    -0.185342934610    12.000000000000
      Gh(C)           4.923561865144     7.078795295213    -0.187399415318    12.000000000000
      Gh(C)           4.955603080284     5.643461981592    -0.187559828125    12.000000000000
      Gh(C)           3.706797343163     4.941224726556    -0.182468267955    12.000000000000
      Gh(H)          -3.658525328800     8.890841937358    -0.182381976893     1.007825032230
      Gh(H)          -1.189217520798     8.874135605583    -0.178428565900     1.007825032230
      Gh(H)           1.284290047845     8.860847953711    -0.179036473945     1.007825032230
      Gh(H)           3.753537895758     8.851049797195    -0.183820410294     1.007825032230
      Gh(H)           5.869954512165     7.613809352878    -0.188324782360     1.007825032230
      Gh(H)          -5.788235898544     7.676316731157    -0.187993387432     1.007825032230
[...]
    1519A      2.160159  1520A      2.161192  1521A      2.161909  
    1522A      2.163318  1523A      2.165516  1524A      2.165824  
    1525A      2.170522  1526A      2.173657  1527A      2.175313  
    1528A      2.175998  1529A      2.179229  1530A      2.181014  
    1531A      2.182629  1532A      2.184047  1533A      2.185766  
    1534A      2.187446  1535A      2.193922  1536A      2.195819  
    1537A      2.196622  1538A      2.198057  1539A      2.200755  
    1540A      2.202420  1541A      2.203320  1542A      2.204804  
    1543A      2.205394  1544A      2.208027  1545A      2.209045  
    1546A      2.211483  1547A      2.213309  1548A      2.215437  
    1549A      2.217312  1550A      2.220677  1551A      2.223118  
    1552A      2.225474  1553A      2.225864  1554A      2.228652  
    1555A      2.230297  1556A      2.231625  1557A      2.232237  
    1558A      2.232297  1559A      2.233009  1560A      2.234685  
    1561A      2.236208  1562A      2.240003  1563A      2.247563  
    1564A      2.248575  1565A      2.249729  1566A      2.251127  
    1567A      2.255960  1568A      2.264242  1569A      2.266660  
    1570A      2.268391  1571A      2.270284  1572A      2.272594  
    1573A      2.275455  1574A      2.279521  1575A      2.280189  
    1576A      2.280964  1577A      2.284417  1578A      2.287185  
    1579A      2.294128  1580A      2.295794  1581A      2.297438  
    1582A      2.299111  1583A      2.304614  1584A      2.306373  
    1585A      2.309448  1586A      2.321518  1587A      2.324827  
    1588A      2.325614  1589A      2.328885  1590A      2.329195  
    1591A      2.330565  1592A      2.330946  1593A      2.333776  
    1594A      2.335670  1595A      2.336007  1596A      2.338153  
    1597A      2.340907  1598A      2.341540  1599A      2.342686  
    1600A      2.343593  1601A      2.345372  1602A      2.346185  
    1603A      2.346989  1604A      2.348531  1605A      2.353907  
    1606A      2.354993  1607A      2.360787  1608A      2.380704  
    1609A      2.383959  1610A      2.386117  1611A      2.388320  
    1612A      2.393026  1613A      2.396824  1614A      2.407584  
    1615A      2.413559  1616A      2.418686  1617A      2.422462  
    1618A      2.426732  1619A      2.428283  1620A      2.430061  
    1621A      2.444199  1622A      2.444650  1623A      2.453467  
    1624A      2.459613  1625A      2.462854  1626A      2.466121  
    1627A      2.468693  1628A      2.469598  1629A      2.471660  
    1630A      2.472307  1631A      2.472700  1632A      2.492151  
    1633A      2.492805  1634A      2.503034  1635A      2.506446  
    1636A      2.507543  1637A      2.512668  1638A      2.516550  
    1639A      2.519544  1640A      2.540443  1641A      2.540791  
    1642A      2.541877  1643A      2.543949  1644A      2.545065  
    1645A      2.548818  1646A      2.550103  1647A      2.552643  
    1648A      2.555401  1649A      2.556745  1650A      2.558041  
    1651A      2.563154  1652A      2.564362  1653A      2.571744  
    1654A      2.572179  1655A      2.583921  1656A      2.584670  
    1657A      2.585555  1658A      2.585949  1659A      2.587749  
    1660A      2.589585  1661A      2.590722  1662A      2.593315  
    1663A      2.594601  1664A      2.602501  1665A      2.602554  
    1666A      2.613408  1667A      2.614438  1668A      2.615277  
    1669A      2.616022  1670A      2.616088  1671A      2.622199  
    1672A      2.635357  1673A      2.641767  1674A      2.643003  
    1675A      2.646176  1676A      2.647599  1677A      2.648986  
    1678A      2.650293  1679A      2.651073  1680A      2.653975  
    1681A      2.656621  1682A      2.658241  1683A      2.662433  
    1684A      2.666484  1685A      2.670770  1686A      2.671719  
    1687A      2.672479  1688A      2.673870  1689A      2.680841  
    1690A      2.681891  1691A      2.683128  1692A      2.687412  
    1693A      2.691702  1694A      2.691754  1695A      2.693151  
    1696A      2.694799  1697A      2.695301  1698A      2.697560  
    1699A      2.698608  1700A      2.705626  1701A      2.714097  
    1702A      2.726544  1703A      2.729364  1704A      2.731337  
    1705A      2.731596  1706A      2.732423  1707A      2.735835  
    1708A      2.755466  1709A      2.771157  1710A      2.778524  
    1711A      2.781238  1712A      2.782712  1713A      2.788052  
    1714A      2.793931  1715A      2.799982  1716A      2.801324  
    1717A      2.802456  1718A      2.802680  1719A      2.812531  
    1720A      2.815166  1721A      2.815464  1722A      2.816351  
    1723A      2.818655  1724A      2.819592  1725A      2.827287  
    1726A      2.829870  1727A      2.840197  1728A      2.842753  
    1729A      2.844559  1730A      2.847818  1731A      2.849300  
    1732A      2.854468  1733A      2.865663  1734A      2.866552  
    1735A      2.870984  1736A      2.873238  1737A      2.876708  
    1738A      2.890126  1739A      2.896128  1740A      2.896860  
    1741A      2.912953  1742A      2.918134  1743A      2.918513  
    1744A      2.928475  1745A      2.932361  1746A      2.933194  
    1747A      2.935835  1748A      2.953381  1749A      2.965235  
    1750A      2.966677  1751A      2.968095  1752A      2.976454  
    1753A      2.992338  1754A      2.992597  1755A      3.019779  
    1756A      3.029853  1757A      3.040424  1758A      3.041032  
    1759A      3.044099  1760A      3.047673  1761A      3.057172  
    1762A      3.058103  1763A      3.058618  1764A      3.068541  
    1765A      3.073214  1766A      3.075353  1767A      3.104578  
    1768A      3.111032  1769A      3.114128  1770A      3.122265  
    1771A      3.124585  1772A      3.129485  1773A      3.130914  
    1774A      3.139300  1775A      3.143418  1776A      3.143697  
    1777A      3.149864  1778A      3.151174  1779A      3.152133  
    1780A      3.155263  1781A      3.162222  1782A      3.162578  
    1783A      3.167808  1784A      3.170255  1785A      3.173288  
    1786A      3.178523  1787A      3.193552  1788A      3.195097  
    1789A      3.200656  1790A      3.223961  1791A      3.262053  
    1792A      3.262823  1793A      3.264505  1794A      3.265544  
    1795A      3.266560  1796A      3.267758  1797A      3.275123  
    1798A      3.276788  1799A      3.278318  1800A      3.283647  
    1801A      3.298603  1802A      3.307549  1803A      3.313363  
    1804A      3.326573  1805A      3.363181  1806A      3.363921  
    1807A      3.400848  1808A      3.420861  1809A      3.454311  
    1810A      3.457579  1811A      3.461576  1812A      3.466616  
    1813A      3.469673  1814A      3.473793  1815A      3.479025  
    1816A      3.479359  1817A      3.485235  1818A      3.489485  
    1819A      3.509826  1820A      3.515304  1821A      3.531997  
    1822A      3.554679  1823A      3.574363  1824A      3.581882  
    1825A      3.587202  1826A      3.591622  1827A      3.647574  
    1828A      3.658709  1829A      3.670395  1830A      3.678096  
    1831A      3.699303  1832A      3.722875  1833A      3.760715  
    1834A      3.762842  1835A      3.773446  1836A      3.779001  
    1837A      3.785099  1838A      3.847609  1839A      3.849510  
    1840A      3.874342  1841A      3.878362  1842A      3.921545  
    1843A      3.925168  1844A      3.946248  1845A      3.949940  
    1846A      3.955100  1847A      3.968218  1848A      3.971447  
    1849A      3.985787  1850A      4.015880  1851A      4.026646  
    1852A      4.027894  1853A      4.077554  1854A      4.197748  
    1855A      4.332129  1856A      4.382588  1857A      4.423836  
    1858A      4.454943  1859A      4.589996  1860A      4.758159  
    1861A      4.791959  1862A      5.764486  1863A      5.773112  
    1864A      5.781926  1865A      5.803571  1866A      5.808198  
    1867A      5.816013  1868A      5.865228  1869A      5.884490  
    1870A      5.893588  1871A      5.914309  1872A      5.961378  
    1873A      6.055335  1874A      6.078008  1875A      6.154577  
    1876A      6.234271  1877A      6.343534  1878A      6.349231  
    1879A      6.409278  1880A      6.414668  1881A      6.420036  
    1882A      7.341515  1883A      7.371382  1884A      7.413916  
    1885A      7.429703  1886A      7.609827  1887A      7.636740  
    1888A      7.692776  1889A      7.715905  1890A      7.736726  
    1891A      7.817097  1892A      8.042061  1893A      8.095254  
    1894A     12.979034  1895A     42.947252  1896A     42.975564  
    1897A     43.003400  1898A     43.007382  

    Final Occupation by Irrep:
              A 
    DOCC [   300 ]
    NA   [   300 ]
    NB   [   300 ]

  @DF-RHF Final Energy: -3650.34056649888817

   => Energetics <=

    Nuclear Repulsion Energy =          15611.4211649754324753
    One-Electron Energy =              -36072.1609366580232745
    Two-Electron Energy =               16810.3992051837012696
    Total Energy =                      -3650.3405664988895296

Computation Completed


Properties will be evaluated at   0.000000,   0.000000,   0.000000 [a0]

Properties computed using the SCF density matrix


 Multipole Moments:

 ------------------------------------------------------------------------------------
     Multipole            Electronic (a.u.)      Nuclear  (a.u.)        Total (a.u.)
 ------------------------------------------------------------------------------------

 L = 1.  Multiply by 2.5417464519 to convert [e a0] to [Debye]
 Dipole X            :          0.0002498            0.0001983            0.0004482
 Dipole Y            :          0.0012394           -0.0013163           -0.0000769
 Dipole Z            :        210.8540100         -210.8526345            0.0013756
 Magnitude           :                                                    0.0014488

 ------------------------------------------------------------------------------------

*** tstop() called on n2cn0291 at Wed Feb  7 21:34:19 2024
Module time:
	user time   =   16564.38 seconds =     276.07 minutes
	system time =    1010.68 seconds =      16.84 minutes
	total time  =       1865 seconds =      31.08 minutes
Total time:
	user time   =   45646.81 seconds =     760.78 minutes
	system time =    2877.83 seconds =      47.96 minutes
	total time  =       6021 seconds =     100.35 minutes
  Constructing Basis Sets for SAPT...

   => Loading Basis Set <=

    Name: (JUN-CC-PVDZ AUX)
    Role: RIFIT
    Keyword: DF_BASIS_SAPT
    atoms 1                                                   entry B          line    56 file /opt/software/pc2/EB-SW/software/PSI4/1.9-foss-2022a/share/psi4/basis/jun-cc-pvdz-ri.gbs 
    atoms 2-5                                                 entry F          line   232 file /opt/software/pc2/EB-SW/software/PSI4/1.9-foss-2022a/share/psi4/basis/jun-cc-pvdz-ri.gbs 
    atoms 6-23, 30-42, 45-59, 62-78, 81-93, 98-108, 111-119   entry C          line   100 file /opt/software/pc2/EB-SW/software/PSI4/1.9-foss-2022a/share/psi4/basis/jun-cc-pvdz-ri.gbs 
    atoms 24-29, 43-44, 60-61, 79-80, 94-97, 109-110, 120-125 entry H          line    30 file /opt/software/pc2/EB-SW/software/PSI4/1.9-foss-2022a/share/psi4/basis/jun-cc-pvdz-ri.gbs 

   => Loading Basis Set <=

    Name: (JUN-CC-PVDZ AUX)
    Role: JKFIT
    Keyword: DF_BASIS_ELST
    atoms 1                                                   entry B          line    90 file /opt/software/pc2/EB-SW/software/PSI4/1.9-foss-2022a/share/psi4/basis/jun-cc-pvdz-jkfit.gbs 
    atoms 2-5                                                 entry F          line   314 file /opt/software/pc2/EB-SW/software/PSI4/1.9-foss-2022a/share/psi4/basis/jun-cc-pvdz-jkfit.gbs 
    atoms 6-23, 30-42, 45-59, 62-78, 81-93, 98-108, 111-119   entry C          line   146 file /opt/software/pc2/EB-SW/software/PSI4/1.9-foss-2022a/share/psi4/basis/jun-cc-pvdz-jkfit.gbs 
    atoms 24-29, 43-44, 60-61, 79-80, 94-97, 109-110, 120-125 entry H          line    70 file /opt/software/pc2/EB-SW/software/PSI4/1.9-foss-2022a/share/psi4/basis/jun-cc-pvdz-jkfit.gbs 


  //>>>>>>>>>>>>>>>>>>>>>>>>>>>>>>>>>>>//
  //               SSAPT0              //
  //<<<<<<<<<<<<<<<<<<<<<<<<<<<<<<<<<<<//


*** tstart() called on n2cn0291
*** at Wed Feb  7 21:34:21 2024

        SAPT0  
    Ed Hohenstein
     6 June 2009

      Orbital Information
  --------------------------
    NSO        =      1938
    NMO        =      1898
    NRI        =      6901
    NRI (Elst) =      8531
    NOCC A     =        21
    NOCC B     =       300
    FOCC A     =         5
    FOCC B     =        96
    NVIR A     =      1877
    NVIR B     =      1598

    Elst10,r            =    -0.137549277952 [Eh]
    Exch10              =     0.339597831699 [Eh]
    Exch10 (S^2)        =     0.323509991040 [Eh]

    Iter     Energy [mEh]          dE [mEh]         Residual      Time [s]
       1     -54.00101643      54.001016431      55.591409233            99
       2     -65.70535411      11.704337684      25.695105360           182
       3     -69.59092121       3.885567097       4.212026884           246
       4     -69.40040146      -0.190519756       1.315370292           336
       5     -69.33169678      -0.068704671       0.290560108           403
       6     -69.33313186       0.001435076       0.087523851           483
       7     -69.33789588       0.004764018       0.015995799           559
       8     -69.33736171      -0.000534173       0.003571035           632
       9     -69.33735078      -0.000010929       0.000572224           700
      10     -69.33736656       0.000015785       0.000098882           809
      11     -69.33736405      -0.000002514       0.000020366           926
      12     -69.33736427       0.000000220       0.000003922          1027
      13     -69.33736430       0.000000035       0.000001460          1123
      14     -69.33736430      -0.000000003       0.000000278          1237

    CHF Iterations converged


    Iter     Energy [mEh]          dE [mEh]         Residual      Time [s]
       1    -150.92031736     150.920317361     134.234591766           142
       2    -139.41310241     -11.507214949      32.402153364           257
       3    -153.12097004      13.707867630      12.249956729           368
       4    -155.05762715       1.936657107       3.680522417           473
       5    -154.55501236      -0.502614785       1.713745627           581
       6    -154.37551292      -0.179499441       0.874450030           692
       7    -154.44632103       0.070808106       0.483901641           789
       8    -154.49626723       0.049946205       0.224319240           901
       9    -154.48496456      -0.011302672       0.122433934          1019
      10    -154.47428097      -0.010683597       0.062751237          1144
      11    -154.47746984       0.003188872       0.032667321          1274
      12    -154.47976601       0.002296168       0.015547635          1397
      13    -154.47939254      -0.000373470       0.008351679          1517
      14    -154.47871122      -0.000681314       0.006159674          1646
      15    -154.47886173       0.000150513       0.004540042          1761
      16    -154.47912268       0.000260944       0.002367516          1871
      17    -154.47902712      -0.000095554       0.000941394          1989
      18    -154.47900618      -0.000020944       0.000448118          2099
      19    -154.47901596       0.000009777       0.000175464          2212
      20    -154.47902057       0.000004619       0.000083850          2318
      21    -154.47902058       0.000000002       0.000040419          2431
      22    -154.47901947      -0.000001107       0.000021431          2536
      23    -154.47901923      -0.000000238       0.000009472          2641
      24    -154.47901949       0.000000261       0.000004119          2750
      25    -154.47901957       0.000000072       0.000001792          2885
      26    -154.47901952      -0.000000047       0.000000817          3048

    CHF Iterations converged

    Ind20,r (A<-B)      =    -0.069337364298 [Eh]
    Ind20,r (B<-A)      =    -0.154479019518 [Eh]
    Ind20,r             =    -0.223816383816 [Eh]
    Exch-Ind20,r (A<-B) =     0.055093370116 [Eh]
    Exch-Ind20,r (B<-A) =     0.115969883783 [Eh]
    Exch-Ind20,r        =     0.171063253899 [Eh]
    Disp20              =    -0.070764509431 [Eh]
    Disp20 (SS)         =    -0.035382254716 [Eh]
    Disp20 (OS)         =    -0.035382254716 [Eh]
    Exch-Disp20         =     0.023521436420 [Eh]
    Exch-Disp20 (SS)    =     0.011849727548 [Eh]
    Exch-Disp20 (OS)    =     0.011671708872 [Eh]

    SAPT Results 
  --------------------------------------------------------------------------------------------------------
    Electrostatics               -137.54927795 [mEh]     -86.31347503 [kcal/mol]    -361.13557951 [kJ/mol]
      Elst10,r                   -137.54927795 [mEh]     -86.31347503 [kcal/mol]    -361.13557951 [kJ/mol]

    Exchange                      339.59783170 [mEh]     213.10085667 [kcal/mol]     891.61398429 [kJ/mol]
      Exch10                      339.59783170 [mEh]     213.10085667 [kcal/mol]     891.61398429 [kJ/mol]
      Exch10(S^2)                 323.50999104 [mEh]     203.00558424 [kcal/mol]     849.37536446 [kJ/mol]

    Induction                     -61.76093944 [mEh]     -38.75557461 [kcal/mol]    -162.15332416 [kJ/mol]
      Ind20,r                    -223.81638382 [mEh]    -140.44690123 [kcal/mol]    -587.62983475 [kJ/mol]
      Exch-Ind20,r                171.06325390 [mEh]     107.34381244 [kcal/mol]     449.12651124 [kJ/mol]
      delta HF,r (2)               -9.00780952 [mEh]      -5.65248581 [kcal/mol]     -23.65000065 [kJ/mol]

    Dispersion                    -47.24307301 [mEh]     -29.64547589 [kcal/mol]    -124.03667110 [kJ/mol]
      Disp20                      -70.76450943 [mEh]     -44.40540008 [kcal/mol]    -185.79219391 [kJ/mol]
      Exch-Disp20                  23.52143642 [mEh]      14.75992419 [kcal/mol]      61.75552281 [kJ/mol]
      Disp20 (SS)                 -35.38225472 [mEh]     -22.20270004 [kcal/mol]     -92.89609696 [kJ/mol]
      Disp20 (OS)                 -35.38225472 [mEh]     -22.20270004 [kcal/mol]     -92.89609696 [kJ/mol]
      Exch-Disp20 (SS)             11.84972755 [mEh]       7.43581630 [kcal/mol]      31.11145539 [kJ/mol]
      Exch-Disp20 (OS)             11.67170887 [mEh]       7.32410789 [kcal/mol]      30.64406742 [kJ/mol]

  Total HF                        140.28761431 [mEh]      88.03180703 [kcal/mol]     368.32508062 [kJ/mol]
  Total SAPT0                      93.04454129 [mEh]      58.38633115 [kcal/mol]     244.28840951 [kJ/mol]

  Special recipe for scaled SAPT0 (see Manual):
    Electrostatics sSAPT0        -137.54927795 [mEh]     -86.31347503 [kcal/mol]    -361.13557951 [kJ/mol]
    Exchange sSAPT0               339.59783170 [mEh]     213.10085667 [kcal/mol]     891.61398429 [kJ/mol]
    Induction sSAPT0              -34.95036250 [mEh]     -21.93168358 [kcal/mol]     -91.76216411 [kJ/mol]
    Dispersion sSAPT0             -43.55658122 [mEh]     -27.33216736 [kcal/mol]    -114.35778825 [kJ/mol]
  Total sSAPT0                    123.54161002 [mEh]      77.52353069 [kcal/mol]     324.35845243 [kJ/mol]
  --------------------------------------------------------------------------------------------------------

*** tstop() called on n2cn0291 at Thu Feb  8 00:44:11 2024
Module time:
	user time   =   62571.71 seconds =    1042.86 minutes
	system time =    3508.28 seconds =      58.47 minutes
	total time  =      11390 seconds =     189.83 minutes
Total time:
	user time   =  108219.84 seconds =    1803.66 minutes
	system time =    6386.11 seconds =     106.44 minutes
	total time  =      17413 seconds =     290.22 minutes

    Psi4 stopped on: Thursday, 08 February 2024 12:44AM
    Psi4 wall time for execution: 4:50:14.71

*** Psi4 exiting successfully. Buy a developer a beer!
