
    -----------------------------------------------------------------------
          Psi4: An Open-Source Ab Initio Electronic Structure Package
                               Psi4 1.9 release

                         Git: Rev {} zzzzzzz 


    D. G. A. Smith, L. A. Burns, A. C. Simmonett, R. M. Parrish,
    M. C. Schieber, R. Galvelis, P. Kraus, H. Kruse, R. Di Remigio,
    A. Alenaizan, A. M. James, S. Lehtola, J. P. Misiewicz, M. Scheurer,
    R. A. Shaw, J. B. Schriber, Y. Xie, Z. L. Glick, D. A. Sirianni,
    J. S. O'Brien, J. M. Waldrop, A. Kumar, E. G. Hohenstein,
    B. P. Pritchard, B. R. Brooks, H. F. Schaefer III, A. Yu. Sokolov,
    K. Patkowski, A. E. DePrince III, U. Bozkaya, R. A. King,
    F. A. Evangelista, J. M. Turney, T. D. Crawford, C. D. Sherrill,
    J. Chem. Phys. 152(18) 184108 (2020). https://doi.org/10.1063/5.0006002

                            Additional Code Authors
    E. T. Seidl, C. L. Janssen, E. F. Valeev, M. L. Leininger,
    J. F. Gonthier, R. M. Richard, H. R. McAlexander, M. Saitow, X. Wang,
    P. Verma, M. H. Lechner, A. Jiang, S. Behnle, A. G. Heide,
    M. F. Herbst, and D. L. Poole

             Previous Authors, Complete List of Code Contributors,
                       and Citations for Specific Modules
    https://github.com/psi4/psi4/blob/master/codemeta.json
    https://github.com/psi4/psi4/graphs/contributors
    http://psicode.org/psi4manual/master/introduction.html#citing-psifour

    -----------------------------------------------------------------------


    Psi4 started on: Thursday, 25 January 2024 04:18AM

    Process ID: 869184
    Host:       n2cn0239
    PSIDATADIR: /opt/software/pc2/EB-SW/software/PSI4/1.9-foss-2022a/share/psi4
    Memory:     500.0 MiB
    Threads:    16
    
  ==> Input File <==

--------------------------------------------------------------------------
memory 47 GB # how much memory is available ! Depends on the nodes/cores !

molecule dimer {
# monomer A
-1 1    # Charge and multiplicity
B -1.977592e-04  2.742729e-04 -3.199966
F  1.123153e-16  1.430594e-17 -1.787181
F  1.147860e+00  6.757812e-01 -3.671107
F  1.191806e-02 -1.332011e+00 -3.670905
F -1.159666e+00  6.560735e-01 -3.670826
--
# monomer B
0 1     # Charge and multiplicity
C   -3.66844126402057      7.80375217008252      0.00190004133558
C   -4.84759871934653      7.13124183134024     -0.00046653359696
C   -4.89495929917518      5.69633040353158     -0.00103944469517
C   -3.65374067877320      4.98073034095895      0.00662099703436
C   -2.40942512149445      7.11398103667468      0.00209438359570
C   -2.42547734410473      5.68112195090346     -0.00491050527438
C   -1.19474401643570      7.78614419430947      0.00356656413763
C   0.03795902893699      7.09942164575698      0.00139585983271
C   0.03033258741920      5.66948955970466     -0.00408752508301
C   -1.20098450790502      4.96927034791531      0.00488220885047
C   1.27795782581485      7.77285944319479      0.00277170839332
C   2.48535808472416      7.08769688523756      0.00049722048857
C   2.48612868491717      5.65477081024076     -0.00644052849921
C   1.25408291964399      4.95607811366431      0.00518741308898
C   3.75171459140595      7.76391215098033      0.00062407186893
C   4.92356605618520      7.07878077698995     -0.00143240883900
C   4.95560727132542      5.64344746336949     -0.00159282164606
C   3.70680153420475      4.94121020833308      0.00349873852374
H   -3.65852113775815      8.89082741913536      0.00358502958574
H   -1.18921332975660      8.87412108735996      0.00753844057883
H   1.28429423888630      8.86083343548850      0.00693053253426
H   3.75354208679975      8.85103527897216      0.00214659618464
H   5.86995870320703      7.61379483465560     -0.00235777588134
H   -5.78823170750226      7.67630221293400     -0.00202638095293
C   -6.09197395869619      4.99326001364347     -0.00291168518608
C   -6.12866148031747      3.58258016879823     -0.00171050815740
C   -3.66457974004527      3.56418217974434     -0.00463560277484
C   -4.89429820469869      2.86108077590057      0.00453338221034
C   -2.43733499489796      2.84761165708481      0.00719617576166
C   -1.20922785759670      3.54788693497833     -0.00648285103018
C   1.24714157216223      3.53468075142962     -0.00729145743546
C   0.01517603956900      2.83311183930540      0.00439272578912
C   2.46764517244071      2.82128997725533      0.00449278391269
C   3.70254947457969      3.52466015442405     -0.00899517692985
C   6.14498038638375      4.92757236613191     -0.00282626685777
C   6.16658835886151      3.51658447594213     -0.00065971342101
C   4.92460995845939      2.80840792535402      0.00587903281610
H   7.08990550964105      5.46688776622306     -0.00658814770723
H   -7.03104175110130      5.54268795285765     -0.00714490013730
C   -7.33969804112295      2.85841153457957     -0.00333767559888
C   -7.36488195805880      1.47032337158330     -0.00157213747140
C   -4.90350460894690      1.44442681216000     -0.00628840166334
C   -6.13225715261081      0.73993935705394      0.00600164231964
C   -3.67687480051673      0.72669714267312      0.00433931473643
C   -2.44565658606518      1.42964113326212     -0.00597039546461
C   -1.22360068130162      0.71532450163492      0.00545886906656
C   0.00763786931376      1.41738314923765      0.00392452278437
C   1.23121980774686      0.70211669058719     -0.01490206287210
C   2.46082110053113      1.40329203612573      0.00460244601878
C   3.68443025419614      0.68719842821222      0.00377365974158
C   4.91870890153864      1.39173456118907     -0.00862816189375
C   7.36980207796101      2.77948220318441     -0.00242013321349
C   7.38016266612146      1.39121750785509     -0.00087345036788
C   6.13979953912259      0.67411862320065      0.00545489144369
H   -8.27919079934664      3.40711804112415     -0.00763522772059
H   8.31511347147953      3.31811809662368     -0.00663070901292
C   -8.59175593758115      0.72483255304480     -0.00123170985383
C   -8.59902460370342     -0.63263980622873      0.00089141472904
C   -6.13981313911873     -0.67413663715361     -0.00609792660607
C   -7.38018411213749     -1.39126618958160      0.00131813493501
C   -4.91868448025621     -1.39175501803000      0.00624257154343
C   -3.68443829568458     -0.68723731573599     -0.00478966852105
C   -2.46081704024768     -1.40334517882457      0.00575341766833
C   -1.23116201232071     -0.70217386488055     -0.00636696112346
C   -0.00756962538737     -1.41741884941102      0.00108956317991
C   1.22364771588843     -0.71527537726392      0.01109518512883
C   2.44567064933149     -1.42964328900682     -0.00065482763106
C   3.67686670284649     -0.72670743155550     -0.00479541202602
C   6.13224884641929     -0.73997883984993     -0.00632338623858
C   4.90351914550401     -1.44445752054090      0.00751768830159
C   8.59901484869081      0.63260386666793     -0.00101133422380
C   8.59174548810050     -0.72485086719319      0.00072504603735
C   7.36486276438985     -1.47033266560598      0.00049486934466
H   -9.52830597181814      1.27684744919284     -0.00270163681798
H   9.54141097460619      1.17457248844457     -0.00206336648518
C   -7.36983790976868     -2.77954514593389      0.00312634335708
C   -4.92459910905015     -2.80843725734101     -0.00460528907921
C   -6.16662249566744     -3.51665219282533      0.00169655107992
C   -3.70251035970491     -3.52468154912026      0.00571878010666
C   -2.46764698511392     -2.82132596280400     -0.00632585824990
C   -0.01513347410770     -2.83314164539971     -0.00604426974092
C   -1.24712184122656     -3.53473217556300      0.00551968366725
C   1.20924506964357     -3.54791467864352      0.00805871345849
C   2.43733602215464     -2.84764173817541     -0.00608104485234
C   4.89430234377080     -2.86112296828604     -0.00526030478103
C   3.66461525504104     -3.56421984553201      0.00761911515957
C   6.12863901474565     -3.58258405771778      0.00096495711699
C   7.33967266469532     -2.85841330737039      0.00248018319869
H   -9.54144911125902     -1.17456346666430      0.00226083090216
H   9.52826186807155     -1.27691907390448      0.00197485379837
H   -8.31516504384864     -3.31814985321231      0.00729857188773
H   8.27915514249207     -3.40714078989363      0.00681973918158
C   -6.14499418870218     -4.92764727278338      0.00302254913999
C   -3.70678334799751     -4.94126171411716     -0.00679841894792
C   -4.95559005800169     -5.64349397349412      0.00116871569699
C   -2.48612132622665     -5.65478557440947      0.00614125209662
C   -1.25405833548005     -4.95612205000132     -0.00503435388927
C   1.20101257386816     -4.96928038819302     -0.00385322963129
C   -0.03033667441341     -5.66952030313900      0.00398997003238
C   3.65375010132847     -4.98074377541453     -0.00309522988330
C   2.42549269587528     -5.68117463552727      0.00628170066869
C   6.09196561781097     -4.99325796338655      0.00325918379042
C   4.89497644461045     -5.69634842095790      0.00202298796027
H   -7.08989238804069     -5.46699984223871      0.00742531082125
H   7.03105520920009     -5.54265853633254      0.00683896355417
C   -4.92354532219813     -7.07882109967734      0.00061394679214
C   -2.48534208823777     -7.08772807792913     -0.00189594564379
C   -3.75168589177895     -7.76394715763627     -0.00170126671874
C   -0.03794895698805     -7.09946487446944     -0.00168022049625
C   -1.27795610040136     -7.77290438466689     -0.00366491325785
C   2.40944432072629     -7.11402201200282     -0.00081701968533
C   1.19474993715296     -7.78618536556242     -0.00296931056689
C   4.84762105249800     -7.13126211057943      0.00168979497423
C   3.66847160587561     -7.80378799294376     -0.00065863938960
H   -5.86994035041618     -7.61383059804164      0.00215798365757
H   5.78824962538815     -7.67633218931421      0.00281691445618
H   -3.75352693944918     -8.85107156923607     -0.00353718114765
H   -1.28430440589466     -8.86087539249706     -0.00809229711623
H   1.18922157469537     -8.87416062058945     -0.00706194725726
H   3.65854661482387     -8.89086063405326     -0.00231318081200

    units angstrom      # Angstroms are the default
    no_reorient         # Geometry fixed, default
    symmetry c1         # C1 symmetry, default
}

set {
    scf_type DF         # Density fitting, faster than exact integrals
    freeze_core True    # Freeze core electrons
    basis jun-cc-pVDZ   # Jun-cc-pVDZ basis set, recommended for sSAPT0 in https://doi.org/10.1063/1.4867135
}

energy('ssapt0')        # Compute sSAPT0 energy, includes also SAPT0
--------------------------------------------------------------------------

  Memory set to  43.772 GiB by Python driver.

Scratch directory: /tmp/
   => Loading Basis Set <=

    Name: JUN-CC-PVDZ
    Role: ORBITAL
    Keyword: BASIS
    atoms 1                                                   entry B          line   130 file /opt/software/pc2/EB-SW/software/PSI4/1.9-foss-2022a/share/psi4/basis/jun-cc-pvdz.gbs 
    atoms 2-5                                                 entry F          line   266 file /opt/software/pc2/EB-SW/software/PSI4/1.9-foss-2022a/share/psi4/basis/jun-cc-pvdz.gbs 
    atoms 6-23, 30-42, 45-59, 62-78, 81-93, 98-108, 111-119   entry C          line   164 file /opt/software/pc2/EB-SW/software/PSI4/1.9-foss-2022a/share/psi4/basis/jun-cc-pvdz.gbs 
    atoms 24-29, 43-44, 60-61, 79-80, 94-97, 109-110, 120-125 entry H          line    36 file /opt/software/pc2/EB-SW/software/PSI4/1.9-foss-2022a/share/psi4/basis/jun-cc-pvdz.gbs 

   => Loading Basis Set <=

    Name: JUN-CC-PVDZ
    Role: ORBITAL
    Keyword: BASIS
    atoms 1                                                   entry B          line   130 file /opt/software/pc2/EB-SW/software/PSI4/1.9-foss-2022a/share/psi4/basis/jun-cc-pvdz.gbs 
    atoms 2-5                                                 entry F          line   266 file /opt/software/pc2/EB-SW/software/PSI4/1.9-foss-2022a/share/psi4/basis/jun-cc-pvdz.gbs 
    atoms 6-23, 30-42, 45-59, 62-78, 81-93, 98-108, 111-119   entry C          line   164 file /opt/software/pc2/EB-SW/software/PSI4/1.9-foss-2022a/share/psi4/basis/jun-cc-pvdz.gbs 
    atoms 24-29, 43-44, 60-61, 79-80, 94-97, 109-110, 120-125 entry H          line    36 file /opt/software/pc2/EB-SW/software/PSI4/1.9-foss-2022a/share/psi4/basis/jun-cc-pvdz.gbs 


  //>>>>>>>>>>>>>>>>>>>>>>>>>>>>>>>>>>>//
  //              Dimer HF             //
  //<<<<<<<<<<<<<<<<<<<<<<<<<<<<<<<<<<<//

   => Libint2 <=

    Primary   basis highest AM E, G, H:  5, 4, 3
    Auxiliary basis highest AM E, G, H:  6, 5, 4
    Onebody   basis highest AM E, G, H:  6, 5, 4
    Solid Harmonics ordering:            gaussian

*** tstart() called on n2cn0239
*** at Thu Jan 25 04:18:05 2024

   => Loading Basis Set <=

    Name: JUN-CC-PVDZ
    Role: ORBITAL
    Keyword: BASIS
    atoms 1                                                   entry B          line   130 file /opt/software/pc2/EB-SW/software/PSI4/1.9-foss-2022a/share/psi4/basis/jun-cc-pvdz.gbs 
    atoms 2-5                                                 entry F          line   266 file /opt/software/pc2/EB-SW/software/PSI4/1.9-foss-2022a/share/psi4/basis/jun-cc-pvdz.gbs 
    atoms 6-23, 30-42, 45-59, 62-78, 81-93, 98-108, 111-119   entry C          line   164 file /opt/software/pc2/EB-SW/software/PSI4/1.9-foss-2022a/share/psi4/basis/jun-cc-pvdz.gbs 
    atoms 24-29, 43-44, 60-61, 79-80, 94-97, 109-110, 120-125 entry H          line    36 file /opt/software/pc2/EB-SW/software/PSI4/1.9-foss-2022a/share/psi4/basis/jun-cc-pvdz.gbs 


         ---------------------------------------------------------
                                   SCF
               by Justin Turney, Rob Parrish, Andy Simmonett
                          and Daniel G. A. Smith
                              RHF Reference
                       16 Threads,  44822 MiB Core
         ---------------------------------------------------------

  ==> Geometry <==

    Molecular point group: c1
    Full point group: C1

    Geometry (in Angstrom), charge = -1, multiplicity = 1:

       Center              X                  Y                   Z               Mass       
    ------------   -----------------  -----------------  -----------------  -----------------
         B           -0.000201921932     0.000288800891    -2.979567469411    11.009305360000
         F           -0.000004162732     0.000014527991    -1.566782469411    18.998403162730
         F            1.147855837268     0.675795727991    -3.450708469411    18.998403162730
         F            0.011913897268    -1.331996472009    -3.450506469411    18.998403162730
         F           -1.159670162732     0.656088027991    -3.450427469411    18.998403162730
         C           -3.668445426752     7.803766698073     0.222298571925    12.000000000000
         C           -4.847602882078     7.131256359331     0.219931996992    12.000000000000
         C           -4.894963461907     5.696344931522     0.219359085894    12.000000000000
         C           -3.653744841505     4.980744868950     0.227019527624    12.000000000000
         C           -2.409429284226     7.113995564665     0.222492914185    12.000000000000
         C           -2.425481506836     5.681136478894     0.215488025315    12.000000000000
         C           -1.194748179167     7.786158722300     0.223965094727    12.000000000000
         C            0.037954866205     7.099436173748     0.221794390422    12.000000000000
         C            0.030328424687     5.669504087695     0.216311005506    12.000000000000
         C           -1.200988670637     4.969284875906     0.225280739440    12.000000000000
         C            1.277953663083     7.772873971185     0.223170238983    12.000000000000
         C            2.485353921992     7.087711413228     0.220895751078    12.000000000000
         C            2.486124522185     5.654785338231     0.213958002090    12.000000000000
         C            1.254078756912     4.956092641655     0.225585943678    12.000000000000
         C            3.751710428674     7.763926678971     0.221022602458    12.000000000000
         C            4.923561893453     7.078795304981     0.218966121750    12.000000000000
         C            4.955603108594     5.643461991360     0.218805708943    12.000000000000
         C            3.706797371473     4.941224736324     0.223897269113    12.000000000000
         H           -3.658525300490     8.890841947126     0.223983560175     1.007825032230
         H           -1.189217492488     8.874135615351     0.227936971168     1.007825032230
         H            1.284290076155     8.860847963479     0.227329063124     1.007825032230
         H            3.753537924068     8.851049806963     0.222545126774     1.007825032230
         H            5.869954540475     7.613809362646     0.218040754708     1.007825032230
         H           -5.788235870234     7.676316740925     0.218372149637     1.007825032230
         C           -6.091978121428     4.993274541634     0.217486845403    12.000000000000
         C           -6.128665643049     3.582594696789     0.218688022432    12.000000000000
         C           -3.664583902777     3.564196707735     0.215762927815    12.000000000000
         C           -4.894302367430     2.861095303891     0.224931912800    12.000000000000
         C           -2.437339157630     2.847626185075     0.227594706351    12.000000000000
         C           -1.209232020328     3.547901462969     0.213915679559    12.000000000000
         C            1.247137409430     3.534695279420     0.213107073154    12.000000000000
         C            0.015171876837     2.833126367296     0.224791256379    12.000000000000
         C            2.467641009709     2.821304505246     0.224891314502    12.000000000000
         C            3.702545311848     3.524674682415     0.211403353660    12.000000000000
         C            6.144976223652     4.927586894122     0.217572263732    12.000000000000
         C            6.166584196130     3.516599003933     0.219738817168    12.000000000000
         C            4.924605795728     2.808422453345     0.226277563406    12.000000000000
         H            7.089901346909     5.466902294214     0.213810382882     1.007825032230
         H           -7.031045913833     5.542702480848     0.213253630452     1.007825032230
         C           -7.339702203855     2.858426062570     0.217060854991    12.000000000000
         C           -7.364886120791     1.470337899574     0.218826393118    12.000000000000
         C           -4.903508771679     1.444441340151     0.214110128926    12.000000000000
         C           -6.132261315343     0.739953885044     0.226400172909    12.000000000000
         C           -3.676878963248     0.726711670664     0.224737845326    12.000000000000
         C           -2.445660748797     1.429655661253     0.214428135125    12.000000000000
         C           -1.223604844033     0.715339029625     0.225857399656    12.000000000000
         C            0.007633706582     1.417397677228     0.224323053374    12.000000000000
         C            1.231215645015     0.702131218578     0.205496467717    12.000000000000
         C            2.460816937799     1.403306564116     0.225000976608    12.000000000000
         C            3.684426091464     0.687212956203     0.224172190331    12.000000000000
         C            4.918704738807     1.391749089180     0.211770368696    12.000000000000
         C            7.369797915229     2.779496731175     0.217978397376    12.000000000000
         C            7.380158503390     1.391232035846     0.219525080222    12.000000000000
         C            6.139795376391     0.674133151191     0.225853422033    12.000000000000
         H           -8.279194962078     3.407132569115     0.212763302869     1.007825032230
         H            8.315109308748     3.318132624614     0.213767821577     1.007825032230
         C           -8.591760100313     0.724847081035     0.219166820736    12.000000000000
         C           -8.599028766435    -0.632625278238     0.221289945318    12.000000000000
         C           -6.139817301850    -0.674122109163     0.214300603983    12.000000000000
         C           -7.380188274869    -1.391251661591     0.221716665524    12.000000000000
         C           -4.918688642988    -1.391740490039     0.226641102133    12.000000000000
         C           -3.684442458416    -0.687222787745     0.215608862068    12.000000000000
         C           -2.460821202979    -1.403330650834     0.226151948258    12.000000000000
         C           -1.231166175052    -0.702159336890     0.214031569466    12.000000000000
         C           -0.007573788119    -1.417404321420     0.221488093769    12.000000000000
         C            1.223643553157    -0.715260849273     0.231493715718    12.000000000000
         C            2.445666486600    -1.429628761016     0.219743702958    12.000000000000
         C            3.676862540115    -0.726692903565     0.215603118563    12.000000000000
         C            6.132244683688    -0.739964311859     0.214075144351    12.000000000000
         C            4.903514982772    -1.444442992550     0.227916218891    12.000000000000
         C            8.599010685959     0.632618394658     0.219387196366    12.000000000000
         C            8.591741325369    -0.724836339203     0.221123576627    12.000000000000
         C            7.364858601658    -1.470318137615     0.220893399934    12.000000000000
         H           -9.528310134550     1.276861977183     0.217696893771     1.007825032230
         H            9.541406811874     1.174587016435     0.218335164104     1.007825032230
         C           -7.369842072500    -2.779530617943     0.223524873947    12.000000000000
         C           -4.924603271782    -2.808422729350     0.215793241510    12.000000000000
         C           -6.166626658399    -3.516637664835     0.222095081669    12.000000000000
         C           -3.702514522437    -3.524667021130     0.226117310696    12.000000000000
         C           -2.467651147846    -2.821311434813     0.214072672340    12.000000000000
         C           -0.015137636839    -2.833127117409     0.214354260849    12.000000000000
         C           -1.247126003958    -3.534717647572     0.225918214257    12.000000000000
         C            1.209240906912    -3.547900150653     0.228457244048    12.000000000000
         C            2.437331859423    -2.847627210185     0.214317485737    12.000000000000
         C            4.894298181039    -2.861108440295     0.215138225808    12.000000000000
         C            3.664611092309    -3.564205317541     0.228017645749    12.000000000000
         C            6.128634852014    -3.582569529727     0.221363487706    12.000000000000
         C            7.339668501964    -2.858398779380     0.222878713788    12.000000000000
         H           -9.541453273991    -1.174548938674     0.222659361492     1.007825032230
         H            9.528257705340    -1.276904545914     0.222373384388     1.007825032230
         H           -8.315169206580    -3.318135325222     0.227697102477     1.007825032230
         H            8.279150979760    -3.407126261903     0.227218269771     1.007825032230
         C           -6.144998351434    -4.927632744793     0.223421079729    12.000000000000
         C           -3.706787510729    -4.941247186127     0.213600111642    12.000000000000
         C           -4.955594220733    -5.643479445504     0.221567246286    12.000000000000
         C           -2.486125488958    -5.654771046419     0.226539782686    12.000000000000
         C           -1.254062498212    -4.956107522011     0.215364176700    12.000000000000
         C            1.201008411136    -4.969265860202     0.216545300958    12.000000000000
         C           -0.030340837145    -5.669505775148     0.224388500622    12.000000000000
         C            3.653745938597    -4.980729247424     0.217303300706    12.000000000000
         C            2.425488533144    -5.681160107537     0.226680231258    12.000000000000
         C            6.091961455079    -4.993243435396     0.223657714380    12.000000000000
         C            4.894972281879    -5.696333892967     0.222421518550    12.000000000000
         H           -7.089896550772    -5.466985314248     0.227823841411     1.007825032230
         H            7.031051046468    -5.542644008342     0.227237494144     1.007825032230
         C           -4.923549484930    -7.078806571687     0.221012477382    12.000000000000
         C           -2.485346250970    -7.087713549939     0.218502584946    12.000000000000
         C           -3.751690054511    -7.763932629646     0.218697263871    12.000000000000
         C           -0.037953119720    -7.099450346479     0.218718310093    12.000000000000
         C           -1.277960263133    -7.772889856676     0.216733617332    12.000000000000
         C            2.409440157995    -7.114007484012     0.219581510904    12.000000000000
         C            1.194745774421    -7.786170837572     0.217429220023    12.000000000000
         C            4.847616889766    -7.131247582589     0.222088325564    12.000000000000
         C            3.668467443144    -7.803773464953     0.219739891200    12.000000000000
         H           -5.869944513148    -7.613816070051     0.222556514247     1.007825032230
         H            5.788245462656    -7.676317661324     0.223215445046     1.007825032230
         H           -3.753531102181    -8.851057041246     0.216861349442     1.007825032230
         H           -1.284308568626    -8.860860864507     0.212306233473     1.007825032230
         H            1.189217411964    -8.874146092599     0.213336583332     1.007825032230
         H            3.658542452092    -8.890846106063     0.218085349777     1.007825032230

  Running in c1 symmetry.

  Rotational constants: A =      0.00068  B =      0.00068  C =      0.00035 [cm^-1]
  Rotational constants: A =     20.35606  B =     20.35255  C =     10.55117 [MHz]
  Nuclear repulsion = 17815.389128103863186

  Charge       = -1
  Multiplicity = 1
  Electrons    = 642
  Nalpha       = 321
  Nbeta        = 321

  ==> Algorithm <==

  SCF Algorithm Type is DF.
  DIIS enabled.
  MOM disabled.
  Fractional occupation disabled.
  Guess Type is SAD.
  Energy threshold   = 1.00e-08
  Density threshold  = 1.00e-08
  Integral threshold = 1.00e-12

  ==> Primary Basis <==

  Basis Set: JUN-CC-PVDZ
    Blend: JUN-CC-PVDZ
    Number of shells: 880
    Number of basis functions: 1938
    Number of Cartesian functions: 2039
    Spherical Harmonics?: true
    Max angular momentum: 2

   => Loading Basis Set <=

    Name: (JUN-CC-PVDZ AUX)
    Role: JKFIT
    Keyword: DF_BASIS_SCF
    atoms 1                                                   entry B          line    90 file /opt/software/pc2/EB-SW/software/PSI4/1.9-foss-2022a/share/psi4/basis/jun-cc-pvdz-jkfit.gbs 
    atoms 2-5                                                 entry F          line   314 file /opt/software/pc2/EB-SW/software/PSI4/1.9-foss-2022a/share/psi4/basis/jun-cc-pvdz-jkfit.gbs 
    atoms 6-23, 30-42, 45-59, 62-78, 81-93, 98-108, 111-119   entry C          line   146 file /opt/software/pc2/EB-SW/software/PSI4/1.9-foss-2022a/share/psi4/basis/jun-cc-pvdz-jkfit.gbs 
    atoms 24-29, 43-44, 60-61, 79-80, 94-97, 109-110, 120-125 entry H          line    70 file /opt/software/pc2/EB-SW/software/PSI4/1.9-foss-2022a/share/psi4/basis/jun-cc-pvdz-jkfit.gbs 

  ==> Integral Setup <==

  ==> DiskDFJK: Density-Fitted J/K Matrices <==

    J tasked:                  Yes
    K tasked:                  Yes
    wK tasked:                  No
    OpenMP threads:             16
    Integrals threads:          16
    Memory [MiB]:            33617
    Algorithm:                Disk
    Integral Cache:           SAVE
    Schwarz Cutoff:          1E-12
    Fitting Condition:       1E-10

   => Auxiliary Basis Set <=

  Basis Set: (JUN-CC-PVDZ AUX)
    Blend: JUN-CC-PVDZ-JKFIT
    Number of shells: 2943
    Number of basis functions: 8531
    Number of Cartesian functions: 9791
    Spherical Harmonics?: true
    Max angular momentum: 3

  Minimum eigenvalue in the overlap matrix is 5.9409996771E-11.
  Reciprocal condition number of the overlap matrix is 2.4407051335E-12.
    Using canonical orthogonalization.
  Overall, 39 of 1938 possible MOs eliminated.


  ==> Pre-Iterations <==

  SCF Guess: Superposition of Atomic Densities via on-the-fly atomic UHF (no occupation information).

   -------------------------
    Irrep   Nso     Nmo    
   -------------------------
     A       1938    1899 
   -------------------------
    Total    1938    1899
   -------------------------

  ==> Iterations <==

                           Total Energy        Delta E     RMS |[F,P]|

   @DF-RHF iter SAD: -4085.56352013372452   -4.08556e+03   0.00000e+00 
   @DF-RHF iter   1: -4071.43638681570701    1.41271e+01   7.92381e-04 DIIS/ADIIS
   @DF-RHF iter   2: -4072.84610273580438   -1.40972e+00   3.14191e-04 DIIS/ADIIS
   @DF-RHF iter   3: -4073.01900120119853   -1.72898e-01   1.14113e-04 DIIS/ADIIS
   @DF-RHF iter   4: -4073.04475148723805   -2.57503e-02   5.10989e-05 DIIS
   @DF-RHF iter   5: -4073.05084255484144   -6.09107e-03   1.49962e-05 DIIS
   @DF-RHF iter   6: -4073.05154944572405   -7.06891e-04   5.26768e-06 DIIS
   @DF-RHF iter   7: -4073.05176584490118   -2.16399e-04   2.83413e-06 DIIS
   @DF-RHF iter   8: -4073.05184694962918   -8.11047e-05   1.30988e-06 DIIS
   @DF-RHF iter   9: -4073.05187174296225   -2.47933e-05   4.98256e-07 DIIS
   @DF-RHF iter  10: -4073.05187339321537   -1.65025e-06   1.84875e-07 DIIS
   @DF-RHF iter  11: -4073.05187363071036   -2.37495e-07   6.62779e-08 DIIS
   @DF-RHF iter  12: -4073.05187366684595   -3.61356e-08   3.57876e-08 DIIS
   @DF-RHF iter  13: -4073.05187367664530   -9.79935e-09   1.13392e-08 DIIS
   @DF-RHF iter  14: -4073.05187367744566   -8.00355e-10   4.11385e-09 DIIS
  Energy and wave function converged.


  ==> Post-Iterations <==

    Orbital Energies [Eh]
    ---------------------

    Doubly Occupied:                                                      

       1A    -26.120251     2A    -26.100784     3A    -26.100710  
       4A    -26.100608     5A    -11.195259     6A    -11.195245  
       7A    -11.195241     8A    -11.195240     9A    -11.195236  
      10A    -11.195222    11A    -11.195214    12A    -11.195196  
      13A    -11.195193    14A    -11.195192    15A    -11.195187  
      16A    -11.195173    17A    -11.194221    18A    -11.194203  
      19A    -11.194196    20A    -11.194152    21A    -11.194131  
      22A    -11.194122    23A    -11.192367    24A    -11.192366  
      25A    -11.192353    26A    -11.192349    27A    -11.192348  
      28A    -11.192348    29A    -11.190919    30A    -11.190918  
      31A    -11.190905    32A    -11.190900    33A    -11.190900  
      34A    -11.190900    35A    -11.190749    36A    -11.190739  
      37A    -11.190728    38A    -11.190651    39A    -11.190642  
      40A    -11.190566    41A    -11.190559    42A    -11.190452  
      43A    -11.190450    44A    -11.190331    45A    -11.190324  
      46A    -11.190273    47A    -11.189752    48A    -11.189693  
      49A    -11.189688    50A    -11.189583    51A    -11.189561  
      52A    -11.189508    53A    -11.188986    54A    -11.188931  
      55A    -11.188923    56A    -11.188814    57A    -11.188802  
      58A    -11.188731    59A    -11.188612    60A    -11.188573  
      61A    -11.188565    62A    -11.188461    63A    -11.188454  
      64A    -11.188438    65A    -11.186953    66A    -11.186935  
      67A    -11.186912    68A    -11.186905    69A    -11.186887  
      70A    -11.186859    71A    -11.186857    72A    -11.186825  
      73A    -11.186811    74A    -11.186807    75A    -11.186781  
      76A    -11.186760    77A    -11.185271    78A    -11.185262  
      79A    -11.185222    80A    -11.185190    81A    -11.185157  
      82A    -11.185139    83A    -11.184229    84A    -11.184207  
      85A    -11.184153    86A    -11.184105    87A    -11.184084  
      88A    -11.184059    89A    -11.180932    90A    -11.180851  
      91A    -11.180794    92A    -11.180753    93A    -11.180708  
      94A    -11.180586    95A    -11.178317    96A    -11.177973  
      97A    -11.177619    98A    -11.176858    99A    -11.176544  
     100A    -11.176170   101A     -7.579775   102A     -1.465388  
     103A     -1.412603   104A     -1.384744   105A     -1.384583  
     106A     -1.176832   107A     -1.166217   108A     -1.166209  
     109A     -1.149884   110A     -1.149867   111A     -1.139137  
     112A     -1.132240   113A     -1.125868   114A     -1.114133  
     115A     -1.114126   116A     -1.105393   117A     -1.105389  
     118A     -1.082928   119A     -1.082914   120A     -1.078732  
     121A     -1.076779   122A     -1.076774   123A     -1.057890  
     124A     -1.044994   125A     -1.044260   126A     -1.042571  
     127A     -1.039633   128A     -1.039607   129A     -1.018053  
     130A     -1.018039   131A     -1.009187   132A     -1.009183  
     133A     -0.996097   134A     -0.996068   135A     -0.992312  
     136A     -0.977376   137A     -0.977361   138A     -0.970869  
     139A     -0.970865   140A     -0.970512   141A     -0.953190  
     142A     -0.946671   143A     -0.946618   144A     -0.938541  
     145A     -0.936209   146A     -0.933330   147A     -0.928968  
     148A     -0.928922   149A     -0.923914   150A     -0.900216  
     151A     -0.900173   152A     -0.887007   153A     -0.886954  
     154A     -0.838968   155A     -0.838927   156A     -0.832662  
     157A     -0.832618   158A     -0.830937   159A     -0.818984  
     160A     -0.818926   161A     -0.818240   162A     -0.817149  
     163A     -0.817090   164A     -0.804652   165A     -0.803841  
     166A     -0.783819   167A     -0.776609   168A     -0.776577  
     169A     -0.772731   170A     -0.772224   171A     -0.765284  
     172A     -0.765271   173A     -0.761179   174A     -0.761169  
     175A     -0.717971   176A     -0.717954   177A     -0.712351  
     178A     -0.712303   179A     -0.712284   180A     -0.710532  
     181A     -0.710506   182A     -0.697827   183A     -0.691121  
     184A     -0.678787   185A     -0.666592   186A     -0.657886  
     187A     -0.657870   188A     -0.657680   189A     -0.655181  
     190A     -0.655158   191A     -0.655026   192A     -0.645217  
     193A     -0.643045   194A     -0.643000   195A     -0.631102  
     196A     -0.631086   197A     -0.618135   198A     -0.618125  
     199A     -0.613453   200A     -0.613442   201A     -0.613312  
     202A     -0.609240   203A     -0.586168   204A     -0.585141  
     205A     -0.583250   206A     -0.583186   207A     -0.579738  
     208A     -0.578363   209A     -0.578339   210A     -0.576146  
     211A     -0.576022   212A     -0.571789   213A     -0.571388  
     214A     -0.567319   215A     -0.567277   216A     -0.565626  
     217A     -0.565597   218A     -0.559543   219A     -0.547644  
     220A     -0.547620   221A     -0.540934   222A     -0.540927  
     223A     -0.537181   224A     -0.528352   225A     -0.528050  
     226A     -0.528038   227A     -0.527973   228A     -0.527448  
     229A     -0.527427   230A     -0.527067   231A     -0.527054  
     232A     -0.526241   233A     -0.521293   234A     -0.521267  
     235A     -0.519084   236A     -0.514294   237A     -0.512059  
     238A     -0.512048   239A     -0.505593   240A     -0.505576  
     241A     -0.505251   242A     -0.505038   243A     -0.504818  
     244A     -0.498738   245A     -0.498731   246A     -0.494938  
     247A     -0.491897   248A     -0.491415   249A     -0.491389  
     250A     -0.490127   251A     -0.487995   252A     -0.487970  
     253A     -0.484086   254A     -0.482474   255A     -0.482424  
     256A     -0.475110   257A     -0.465391   258A     -0.465387  
     259A     -0.461670   260A     -0.461611   261A     -0.459801  
     262A     -0.459696   263A     -0.455275   264A     -0.452178  
     265A     -0.447924   266A     -0.447870   267A     -0.447736  
     268A     -0.447661   269A     -0.446779   270A     -0.446741  
     271A     -0.441917   272A     -0.441883   273A     -0.428625  
     274A     -0.427643   275A     -0.427558   276A     -0.426270  
     277A     -0.426240   278A     -0.421275   279A     -0.421255  
     280A     -0.417645   281A     -0.413862   282A     -0.410140  
     283A     -0.410136   284A     -0.405247   285A     -0.397848  
     286A     -0.397513   287A     -0.396019   288A     -0.396014  
     289A     -0.388818   290A     -0.372330   291A     -0.372254  
     292A     -0.369004   293A     -0.368452   294A     -0.364230  
     295A     -0.362122   296A     -0.361944   297A     -0.337301  
     298A     -0.337272   299A     -0.318686   300A     -0.318663  
     301A     -0.314675   302A     -0.314629   303A     -0.301057  
     304A     -0.284420   305A     -0.284402   306A     -0.281111  
     307A     -0.266426   308A     -0.266422   309A     -0.262408  
     310A     -0.251616   311A     -0.251260   312A     -0.235249  
     313A     -0.229732   314A     -0.229624   315A     -0.229566  
     316A     -0.217389   317A     -0.191847   318A     -0.176820  
     319A     -0.176526   320A     -0.135854   321A     -0.135759  

    Virtual:                                                              

     322A      0.058786   323A      0.058885   324A      0.095052  
     325A      0.095067   326A      0.095816   327A      0.097407  
     328A      0.097424   329A      0.102789   330A      0.103629  
     331A      0.105253   332A      0.106377   333A      0.106441  
     334A      0.110765   335A      0.110769   336A      0.122109  
     337A      0.122113   338A      0.131053   339A      0.132155  
     340A      0.136251   341A      0.137801   342A      0.137834  
     343A      0.139199   344A      0.140529   345A      0.141236  
     346A      0.142097   347A      0.142167   348A      0.142208  
     349A      0.143385   350A      0.143569   351A      0.143597  
     352A      0.149440   353A      0.149734   354A      0.149966  
     355A      0.150195   356A      0.150229   357A      0.150822  
     358A      0.158149   359A      0.159154   360A      0.162477  
     361A      0.162589   362A      0.162633   363A      0.163970  
     364A      0.164021   365A      0.165028   366A      0.172015  
     367A      0.172095   368A      0.172210   369A      0.172504  
     370A      0.173910   371A      0.174577   372A      0.176109  
     373A      0.176207   374A      0.176337   375A      0.177099  
     376A      0.178562   377A      0.178765   378A      0.180201  
     379A      0.180247   380A      0.188288   381A      0.188291  
     382A      0.190391   383A      0.196168   384A      0.196707  
     385A      0.196853   386A      0.198869   387A      0.198899  
     388A      0.203809   389A      0.203946   390A      0.204059  
     391A      0.204720   392A      0.204996   393A      0.213740  
     394A      0.215224   395A      0.215330   396A      0.215801  
     397A      0.216502   398A      0.218389   399A      0.220316  
     400A      0.221742   401A      0.221851   402A      0.222752  
     403A      0.223751   404A      0.223786   405A      0.224489  
     406A      0.226194   407A      0.226280   408A      0.228205  
     409A      0.228268   410A      0.228510   411A      0.228820  
     412A      0.233631   413A      0.235343   414A      0.239774  
     415A      0.239780   416A      0.242113   417A      0.242917  
     418A      0.243425   419A      0.243522   420A      0.243981  
     421A      0.244017   422A      0.250654   423A      0.251685  
     424A      0.252472   425A      0.253096   426A      0.254340  
     427A      0.257464   428A      0.257850   429A      0.258096  
     430A      0.260361   431A      0.260435   432A      0.261056  
     433A      0.262160   434A      0.263304   435A      0.263916  
     436A      0.268143   437A      0.268834   438A      0.271637  
     439A      0.272035   440A      0.272542   441A      0.272610  
     442A      0.273594   443A      0.273659   444A      0.273935  
     445A      0.274398   446A      0.275290   447A      0.276009  
     448A      0.276088   449A      0.276258   450A      0.278310  
     451A      0.278513   452A      0.278560   453A      0.279653  
     454A      0.284637   455A      0.285319   456A      0.289471  
     457A      0.289723   458A      0.290524   459A      0.292174  
     460A      0.292209   461A      0.292544   462A      0.293630  
     463A      0.293714   464A      0.294702   465A      0.294790  
     466A      0.297134   467A      0.299693   468A      0.299738  
     469A      0.301881   470A      0.304887   471A      0.305960  
     472A      0.308170   473A      0.309307   474A      0.310477  
     475A      0.314999   476A      0.316085   477A      0.316109  
     478A      0.316464   479A      0.319435   480A      0.319633  
     481A      0.321097   482A      0.321242   483A      0.321838  
     484A      0.322030   485A      0.324008   486A      0.324849  
     487A      0.325235   488A      0.327334   489A      0.327473  
     490A      0.329604   491A      0.330492   492A      0.330768  
     493A      0.338481   494A      0.338626   495A      0.338910  
     496A      0.339011   497A      0.339579   498A      0.340694  
     499A      0.340789   500A      0.342620   501A      0.343745  
     502A      0.343842   503A      0.343914   504A      0.346493  
     505A      0.346608   506A      0.348320   507A      0.349382  
     508A      0.350200   509A      0.353222   510A      0.353237  
     511A      0.359417   512A      0.359475   513A      0.360286  
     514A      0.361768   515A      0.362933   516A      0.366232  
     517A      0.366289   518A      0.366987   519A      0.367047  
     520A      0.368609   521A      0.368822   522A      0.370068  
     523A      0.370188   524A      0.372317   525A      0.372529  
     526A      0.373519   527A      0.373727   528A      0.375127  
     529A      0.375461   530A      0.375473   531A      0.377945  
     532A      0.378178   533A      0.378758   534A      0.379082  
     535A      0.381383   536A      0.382320   537A      0.384928  
     538A      0.385102   539A      0.387001   540A      0.387211  
     541A      0.388285   542A      0.388338   543A      0.389756  
     544A      0.390129   545A      0.390887   546A      0.392218  
     547A      0.393677   548A      0.396048   549A      0.396577  
     550A      0.397296   551A      0.397474   552A      0.398248  
     553A      0.398422   554A      0.402260   555A      0.402844  
     556A      0.402874   557A      0.404135   558A      0.406966  
     559A      0.407369   560A      0.407386   561A      0.408398  
     562A      0.411972   563A      0.415943   564A      0.416275  
     565A      0.417628   566A      0.418815   567A      0.423030  
     568A      0.423651   569A      0.424001   570A      0.424439  
     571A      0.425251   572A      0.425768   573A      0.426314  
     574A      0.429909   575A      0.430925   576A      0.431286  
     577A      0.433579   578A      0.434337   579A      0.435457  
     580A      0.435533   581A      0.438520   582A      0.438891  
     583A      0.439125   584A      0.439245   585A      0.444043  
     586A      0.444133   587A      0.444773   588A      0.446055  
     589A      0.447574   590A      0.449863   591A      0.449906  
     592A      0.453011   593A      0.453809   594A      0.454853  
     595A      0.454988   596A      0.456637   597A      0.457054  
     598A      0.457230   599A      0.457696   600A      0.459901  
     601A      0.461223   602A      0.461451   603A      0.462367  
     604A      0.463686   605A      0.463751   606A      0.465226  
     607A      0.465359   608A      0.466010   609A      0.466763  
     610A      0.466846   611A      0.468502   612A      0.469046  
     613A      0.470527   614A      0.470576   615A      0.470664  
     616A      0.470889   617A      0.472651   618A      0.473644  
     619A      0.475086   620A      0.475147   621A      0.476657  
     622A      0.477453   623A      0.477578   624A      0.477825  
     625A      0.478030   626A      0.479296   627A      0.480315  
     628A      0.481865   629A      0.481894   630A      0.483996  
     631A      0.484526   632A      0.484968   633A      0.486260  
     634A      0.486828   635A      0.487520   636A      0.490531  
     637A      0.491934   638A      0.492072   639A      0.494034  
     640A      0.494693   641A      0.497832   642A      0.498465  
     643A      0.499781   644A      0.499809   645A      0.501142  
     646A      0.501231   647A      0.502638   648A      0.502877  
     649A      0.503232   650A      0.504687   651A      0.505052  
     652A      0.505179   653A      0.505222   654A      0.508453  
     655A      0.510442   656A      0.511700   657A      0.512323  
     658A      0.512465   659A      0.512807   660A      0.515616  
     661A      0.517219   662A      0.517527   663A      0.518206  
     664A      0.518572   665A      0.519007   666A      0.520783  
     667A      0.520991   668A      0.521276   669A      0.522132  
     670A      0.523479   671A      0.523639   672A      0.524542  
     673A      0.525759   674A      0.526797   675A      0.527170  
     676A      0.528099   677A      0.528993   678A      0.530290  
     679A      0.531852   680A      0.531883   681A      0.536601  
     682A      0.537231   683A      0.538905   684A      0.539453  
     685A      0.540508   686A      0.540610   687A      0.542607  
     688A      0.543561   689A      0.544159   690A      0.544561  
     691A      0.547170   692A      0.547291   693A      0.548649  
     694A      0.550750   695A      0.550816   696A      0.550963  
     697A      0.551902   698A      0.551947   699A      0.556077  
     700A      0.556116   701A      0.557835   702A      0.557917  
     703A      0.558994   704A      0.561897   705A      0.562205  
     706A      0.563171   707A      0.563738   708A      0.564211  
     709A      0.565016   710A      0.566266   711A      0.566616  
     712A      0.567499   713A      0.567629   714A      0.569660  
     715A      0.570613   716A      0.572225   717A      0.575167  
     718A      0.577082   719A      0.577270   720A      0.578772  
     721A      0.581421   722A      0.582016   723A      0.582769  
     724A      0.583316   725A      0.584417   726A      0.585393  
     727A      0.586098   728A      0.586321   729A      0.589026  
     730A      0.592400   731A      0.592456   732A      0.592494  
     733A      0.595678   734A      0.596720   735A      0.599979  
     736A      0.600619   737A      0.601185   738A      0.603240  
     739A      0.603316   740A      0.608232   741A      0.609751  
     742A      0.614095   743A      0.614335   744A      0.615466  
     745A      0.616021   746A      0.623759   747A      0.624449  
     748A      0.626492   749A      0.626596   750A      0.628139  
     751A      0.630176   752A      0.630847   753A      0.630991  
     754A      0.631523   755A      0.632589   756A      0.633186  
     757A      0.633775   758A      0.637393   759A      0.638226  
     760A      0.639408   761A      0.639512   762A      0.641948  
     763A      0.643343   764A      0.643810   765A      0.644086  
     766A      0.648535   767A      0.650699   768A      0.650999  
     769A      0.654087   770A      0.654139   771A      0.654733  
     772A      0.655346   773A      0.656294   774A      0.657572  
     775A      0.662327   776A      0.665661   777A      0.665878  
     778A      0.667870   779A      0.669774   780A      0.671195  
     781A      0.671487   782A      0.673030   783A      0.674241  
     784A      0.675422   785A      0.675514   786A      0.677179  
     787A      0.681662   788A      0.683064   789A      0.687018  
     790A      0.687384   791A      0.687771   792A      0.692780  
     793A      0.697259   794A      0.697526   795A      0.702461  
     796A      0.704315   797A      0.706034   798A      0.708619  
     799A      0.712393   800A      0.713162   801A      0.713618  
     802A      0.715177   803A      0.716820   804A      0.717054  
     805A      0.728314   806A      0.729267   807A      0.729399  
     808A      0.731985   809A      0.732424   810A      0.736772  
     811A      0.737156   812A      0.737351   813A      0.743876  
     814A      0.744147   815A      0.748385   816A      0.749638  
     817A      0.753214   818A      0.753395   819A      0.758545  
     820A      0.758579   821A      0.759920   822A      0.761965  
     823A      0.762146   824A      0.765675   825A      0.767435  
     826A      0.772007   827A      0.773547   828A      0.779447  
     829A      0.782657   830A      0.783019   831A      0.785994  
     832A      0.791783   833A      0.794845   834A      0.797444  
     835A      0.798579   836A      0.800552   837A      0.801908  
     838A      0.803367   839A      0.809114   840A      0.810011  
     841A      0.814059   842A      0.814884   843A      0.821869  
     844A      0.822613   845A      0.823829   846A      0.824015  
     847A      0.824558   848A      0.844834   849A      0.844965  
     850A      0.847192   851A      0.850383   852A      0.852397  
     853A      0.853155   854A      0.854317   855A      0.858124  
     856A      0.858339   857A      0.863216   858A      0.863654  
     859A      0.866507   860A      0.868608   861A      0.869078  
     862A      0.870846   863A      0.874803   864A      0.875676  
     865A      0.878582   866A      0.880715   867A      0.881861  
     868A      0.882004   869A      0.882561   870A      0.883813  
     871A      0.885066   872A      0.888430   873A      0.889331  
     874A      0.894343   875A      0.894990   876A      0.896065  
     877A      0.906468   878A      0.906800   879A      0.909939  
     880A      0.911091   881A      0.912607   882A      0.912951  
     883A      0.913840   884A      0.916195   885A      0.916748  
     886A      0.918672   887A      0.921316   888A      0.924780  
     889A      0.927899   890A      0.930651   891A      0.930731  
     892A      0.932134   893A      0.932893   894A      0.935676  
     895A      0.936668   896A      0.938141   897A      0.939209  
     898A      0.939825   899A      0.944450   900A      0.944538  
     901A      0.946324   902A      0.947390   903A      0.948091  
     904A      0.948461   905A      0.951840   906A      0.953325  
     907A      0.954718   908A      0.955925   909A      0.955999  
     910A      0.962286   911A      0.963262   912A      0.965693  
     913A      0.966000   914A      0.968754   915A      0.969350  
     916A      0.972975   917A      0.973892   918A      0.978553  
     919A      0.979019   920A      0.983033   921A      0.983529  
     922A      0.984374   923A      0.984668   924A      0.984814  
     925A      0.985992   926A      0.986990   927A      0.989559  
     928A      0.990470   929A      0.992170   930A      0.992903  
     931A      0.994252   932A      0.994557   933A      0.997065  
     934A      1.001931   935A      1.002193   936A      1.002846  
     937A      1.008187   938A      1.008707   939A      1.010598  
     940A      1.011243   941A      1.012326   942A      1.013119  
     943A      1.015093   944A      1.016720   945A      1.017073  
     946A      1.018005   947A      1.018191   948A      1.018429  
     949A      1.021104   950A      1.021776   951A      1.022712  
     952A      1.024001   953A      1.025576   954A      1.026201  
     955A      1.030164   956A      1.030665   957A      1.035409  
     958A      1.036514   959A      1.040595   960A      1.040849  
     961A      1.042333   962A      1.052983   963A      1.053245  
     964A      1.056444   965A      1.059326   966A      1.059433  
     967A      1.060407   968A      1.062745   969A      1.063263  
     970A      1.064748   971A      1.070692   972A      1.071604  
     973A      1.072019   974A      1.072190   975A      1.073700  
     976A      1.073969   977A      1.080184   978A      1.080471  
     979A      1.081713   980A      1.081956   981A      1.082901  
     982A      1.086138   983A      1.088589   984A      1.091603  
     985A      1.092905   986A      1.093722   987A      1.094300  
     988A      1.094545   989A      1.100518   990A      1.106629  
     991A      1.106978   992A      1.112582   993A      1.112893  
     994A      1.114068   995A      1.114533   996A      1.115114  
     997A      1.115852   998A      1.116625   999A      1.116785  
    1000A      1.117107  1001A      1.120734  1002A      1.121068  
    1003A      1.122032  1004A      1.123598  1005A      1.126277  
    1006A      1.126612  1007A      1.129703  1008A      1.130074  
    1009A      1.130898  1010A      1.131758  1011A      1.131816  
    1012A      1.133448  1013A      1.134273  1014A      1.137365  
    1015A      1.137903  1016A      1.138881  1017A      1.138962  
    1018A      1.140479  1019A      1.141364  1020A      1.141493  
    1021A      1.142495  1022A      1.143126  1023A      1.145632  
    1024A      1.145737  1025A      1.147398  1026A      1.148063  
    1027A      1.148462  1028A      1.149746  1029A      1.149893  
    1030A      1.150051  1031A      1.150426  1032A      1.150931  
    1033A      1.152190  1034A      1.153395  1035A      1.153578  
    1036A      1.155338  1037A      1.156285  1038A      1.158379  
    1039A      1.158590  1040A      1.158913  1041A      1.159416  
    1042A      1.163508  1043A      1.165427  1044A      1.165806  
    1045A      1.169558  1046A      1.171924  1047A      1.172229  
    1048A      1.173211  1049A      1.173893  1050A      1.175655  
    1051A      1.176905  1052A      1.177206  1053A      1.178212  
    1054A      1.179584  1055A      1.181484  1056A      1.182030  
    1057A      1.186885  1058A      1.187940  1059A      1.189076  
    1060A      1.191113  1061A      1.191401  1062A      1.194299  
    1063A      1.197496  1064A      1.200102  1065A      1.200267  
    1066A      1.202572  1067A      1.203313  1068A      1.204640  
    1069A      1.205067  1070A      1.206519  1071A      1.207538  
    1072A      1.209004  1073A      1.212235  1074A      1.213841  
    1075A      1.214711  1076A      1.219728  1077A      1.220825  
    1078A      1.222210  1079A      1.223276  1080A      1.224612  
    1081A      1.226656  1082A      1.226701  1083A      1.228007  
    1084A      1.230397  1085A      1.230914  1086A      1.236370  
    1087A      1.237577  1088A      1.237954  1089A      1.238586  
    1090A      1.240606  1091A      1.242416  1092A      1.243052  
    1093A      1.244354  1094A      1.251531  1095A      1.252386  
    1096A      1.253768  1097A      1.257376  1098A      1.258116  
    1099A      1.258252  1100A      1.261065  1101A      1.262309  
    1102A      1.263013  1103A      1.269511  1104A      1.273790  
    1105A      1.274078  1106A      1.275670  1107A      1.276726  
    1108A      1.277023  1109A      1.277302  1110A      1.279662  
    1111A      1.280621  1112A      1.282495  1113A      1.285064  
    1114A      1.287028  1115A      1.287708  1116A      1.287799  
    1117A      1.290098  1118A      1.291322  1119A      1.295697  
    1120A      1.296052  1121A      1.296547  1122A      1.304042  
    1123A      1.304231  1124A      1.313850  1125A      1.319813  
    1126A      1.320043  1127A      1.320457  1128A      1.322151  
    1129A      1.322285  1130A      1.326940  1131A      1.329820  
    1132A      1.330063  1133A      1.334711  1134A      1.335040  
    1135A      1.335857  1136A      1.340814  1137A      1.341116  
    1138A      1.344570  1139A      1.348688  1140A      1.348782  
    1141A      1.354371  1142A      1.359619  1143A      1.360581  
    1144A      1.361391  1145A      1.361467  1146A      1.361647  
    1147A      1.365001  1148A      1.369313  1149A      1.371531  
    1150A      1.372202  1151A      1.373574  1152A      1.381350  
    1153A      1.382461  1154A      1.382874  1155A      1.383325  
    1156A      1.383465  1157A      1.386144  1158A      1.386516  
    1159A      1.389551  1160A      1.390581  1161A      1.393629  
    1162A      1.394639  1163A      1.396398  1164A      1.396749  
    1165A      1.396909  1166A      1.397255  1167A      1.401632  
    1168A      1.401889  1169A      1.403670  1170A      1.408255  
    1171A      1.409473  1172A      1.409582  1173A      1.425224  
    1174A      1.425421  1175A      1.426100  1176A      1.426244  
    1177A      1.430498  1178A      1.430666  1179A      1.430944  
    1180A      1.431677  1181A      1.431810  1182A      1.432776  
    1183A      1.440136  1184A      1.440509  1185A      1.444072  
    1186A      1.446343  1187A      1.446949  1188A      1.452536  
    1189A      1.453006  1190A      1.455577  1191A      1.457151  
    1192A      1.457465  1193A      1.459867  1194A      1.459991  
    1195A      1.472752  1196A      1.473427  1197A      1.473664  
    1198A      1.474052  1199A      1.477430  1200A      1.477536  
    1201A      1.477581  1202A      1.477930  1203A      1.478650  
    1204A      1.478963  1205A      1.488422  1206A      1.488510  
    1207A      1.490501  1208A      1.490682  1209A      1.492526  
    1210A      1.498052  1211A      1.498493  1212A      1.500701  
    1213A      1.503011  1214A      1.503997  1215A      1.504475  
    1216A      1.507631  1217A      1.507970  1218A      1.510238  
    1219A      1.511045  1220A      1.511800  1221A      1.512457  
    1222A      1.513065  1223A      1.520581  1224A      1.522734  
    1225A      1.523517  1226A      1.526840  1227A      1.530940  
    1228A      1.534068  1229A      1.534585  1230A      1.536819  
    1231A      1.543301  1232A      1.543401  1233A      1.543684  
    1234A      1.544276  1235A      1.552256  1236A      1.552702  
    1237A      1.553551  1238A      1.556096  1239A      1.563145  
    1240A      1.564160  1241A      1.564404  1242A      1.570963  
    1243A      1.572319  1244A      1.572872  1245A      1.573288  
    1246A      1.579933  1247A      1.582047  1248A      1.589604  
    1249A      1.590134  1250A      1.608786  1251A      1.608950  
    1252A      1.610483  1253A      1.618625  1254A      1.628194  
    1255A      1.628306  1256A      1.628377  1257A      1.656630  
    1258A      1.660406  1259A      1.661146  1260A      1.662287  
    1261A      1.670905  1262A      1.675955  1263A      1.678566  
    1264A      1.679134  1265A      1.680445  1266A      1.681156  
    1267A      1.684227  1268A      1.684571  1269A      1.687334  
    1270A      1.687863  1271A      1.688842  1272A      1.689444  
    1273A      1.689787  1274A      1.691125  1275A      1.694321  
    1276A      1.694711  1277A      1.696060  1278A      1.697938  
    1279A      1.698953  1280A      1.701840  1281A      1.702786  
    1282A      1.703443  1283A      1.704775  1284A      1.706182  
    1285A      1.706699  1286A      1.707875  1287A      1.708788  
    1288A      1.709582  1289A      1.710436  1290A      1.710610  
    1291A      1.712479  1292A      1.714733  1293A      1.715880  
    1294A      1.716142  1295A      1.719774  1296A      1.722837  
    1297A      1.723604  1298A      1.724517  1299A      1.724698  
    1300A      1.726009  1301A      1.728960  1302A      1.736217  
    1303A      1.737729  1304A      1.739116  1305A      1.740179  
    1306A      1.741094  1307A      1.742369  1308A      1.742834  
    1309A      1.743061  1310A      1.743672  1311A      1.745267  
    1312A      1.745388  1313A      1.747211  1314A      1.751016  
    1315A      1.751327  1316A      1.753540  1317A      1.757563  
    1318A      1.759602  1319A      1.762782  1320A      1.769231  
    1321A      1.770262  1322A      1.770587  1323A      1.775194  
    1324A      1.776017  1325A      1.779730  1326A      1.780126  
    1327A      1.783645  1328A      1.783752  1329A      1.784603  
    1330A      1.785001  1331A      1.788501  1332A      1.790165  
    1333A      1.793284  1334A      1.793501  1335A      1.797418  
    1336A      1.797532  1337A      1.797793  1338A      1.807136  
    1339A      1.811963  1340A      1.819432  1341A      1.819717  
    1342A      1.820472  1343A      1.820734  1344A      1.834596  
    1345A      1.834818  1346A      1.835898  1347A      1.847288  
    1348A      1.849218  1349A      1.852349  1350A      1.852862  
    1351A      1.859365  1352A      1.872491  1353A      1.872744  
    1354A      1.881449  1355A      1.888375  1356A      1.893954  
    1357A      1.895465  1358A      1.897353  1359A      1.898502  
    1360A      1.898565  1361A      1.901018  1362A      1.902156  
    1363A      1.902281  1364A      1.904084  1365A      1.907995  
    1366A      1.914618  1367A      1.919479  1368A      1.920043  
    1369A      1.922136  1370A      1.922343  1371A      1.922568  
    1372A      1.926623  1373A      1.931370  1374A      1.932089  
    1375A      1.934328  1376A      1.934742  1377A      1.935585  
    1378A      1.935876  1379A      1.939187  1380A      1.939883  
    1381A      1.941320  1382A      1.942443  1383A      1.942622  
    1384A      1.947278  1385A      1.947643  1386A      1.950804  
    1387A      1.952791  1388A      1.953516  1389A      1.955735  
    1390A      1.960284  1391A      1.963486  1392A      1.965009  
    1393A      1.965179  1394A      1.970650  1395A      1.970740  
    1396A      1.976656  1397A      1.976936  1398A      1.977419  
    1399A      1.984711  1400A      1.985798  1401A      1.986588  
    1402A      1.993000  1403A      1.993477  1404A      1.993684  
    1405A      1.994577  1406A      1.995227  1407A      1.996501  
    1408A      2.003201  1409A      2.003532  1410A      2.004358  
    1411A      2.005612  1412A      2.007749  1413A      2.009600  
    1414A      2.009753  1415A      2.011386  1416A      2.014032  
    1417A      2.017740  1418A      2.018364  1419A      2.019048  
    1420A      2.025579  1421A      2.025815  1422A      2.027671  
    1423A      2.027777  1424A      2.030621  1425A      2.034979  
    1426A      2.035697  1427A      2.036231  1428A      2.037833  
    1429A      2.038797  1430A      2.039989  1431A      2.042443  
    1432A      2.048776  1433A      2.051458  1434A      2.052685  
    1435A      2.054490  1436A      2.055658  1437A      2.059634  
    1438A      2.061199  1439A      2.062873  1440A      2.065190  
    1441A      2.065527  1442A      2.071150  1443A      2.073203  
    1444A      2.076842  1445A      2.082288  1446A      2.083661  
    1447A      2.084321  1448A      2.084703  1449A      2.089158  
    1450A      2.089374  1451A      2.090054  1452A      2.090320  
    1453A      2.091481  1454A      2.094289  1455A      2.095438  
    1456A      2.096460  1457A      2.098661  1458A      2.099562  
    1459A      2.100725  1460A      2.101643  1461A      2.103625  
    1462A      2.105912  1463A      2.107525  1464A      2.108111  
    1465A      2.108408  1466A      2.110914  1467A      2.120646  
    1468A      2.123618  1469A      2.124436  1470A      2.125219  
    1471A      2.127677  1472A      2.128879  1473A      2.133148  
    1474A      2.133654  1475A      2.135716  1476A      2.138920  
    1477A      2.140412  1478A      2.141510  1479A      2.142246  
    1480A      2.145252  1481A      2.148763  1482A      2.150021  
    1483A      2.151022  1484A      2.152668  1485A      2.152946  
    1486A      2.153681  1487A      2.155467  1488A      2.156391  
    1489A      2.156550  1490A      2.157351  1491A      2.158320  
    1492A      2.158709  1493A      2.158830  1494A      2.160693  
    1495A      2.160960  1496A      2.161488  1497A      2.161956  
    1498A      2.164295  1499A      2.167256  1500A      2.168521  
    1501A      2.169064  1502A      2.171319  1503A      2.173595  
    1504A      2.174717  1505A      2.176837  1506A      2.179707  
    1507A      2.180496  1508A      2.180657  1509A      2.185240  
    1510A      2.186422  1511A      2.187027  1512A      2.187410  
    1513A      2.188438  1514A      2.189252  1515A      2.192444  
    1516A      2.194727  1517A      2.195609  1518A      2.195881  
    1519A      2.196458  1520A      2.197825  1521A      2.198594  
    1522A      2.199056  1523A      2.201416  1524A      2.204509  
    1525A      2.205430  1526A      2.207374  1527A      2.208970  
    1528A      2.211661  1529A      2.212209  1530A      2.213655  
    1531A      2.213954  1532A      2.215812  1533A      2.217191  
    1534A      2.221161  1535A      2.228152  1536A      2.229082  
    1537A      2.230515  1538A      2.231216  1539A      2.231284  
    1540A      2.231840  1541A      2.232436  1542A      2.235823  
    1543A      2.236974  1544A      2.241261  1545A      2.242059  
    1546A      2.242240  1547A      2.248866  1548A      2.250849  
    1549A      2.252348  1550A      2.252577  1551A      2.257267  
    1552A      2.258763  1553A      2.262708  1554A      2.265596  
    1555A      2.266355  1556A      2.268037  1557A      2.268473  
    1558A      2.270349  1559A      2.271286  1560A      2.271768  
    1561A      2.273248  1562A      2.273786  1563A      2.276505  
    1564A      2.278135  1565A      2.278667  1566A      2.284806  
    1567A      2.285578  1568A      2.285753  1569A      2.290013  
    1570A      2.291752  1571A      2.292312  1572A      2.295891  
    1573A      2.296182  1574A      2.296606  1575A      2.296879  
    1576A      2.297425  1577A      2.298373  1578A      2.301544  
    1579A      2.303354  1580A      2.310403  1581A      2.311141  
    1582A      2.311892  1583A      2.314138  1584A      2.314578  
    1585A      2.316785  1586A      2.317473  1587A      2.320740  
    1588A      2.328594  1589A      2.334160  1590A      2.343092  
    1591A      2.343873  1592A      2.348196  1593A      2.349455  
    1594A      2.350136  1595A      2.351175  1596A      2.353366  
    1597A      2.360082  1598A      2.362621  1599A      2.363425  
    1600A      2.365582  1601A      2.367739  1602A      2.368648  
    1603A      2.379418  1604A      2.379966  1605A      2.380390  
    1606A      2.389135  1607A      2.392671  1608A      2.394255  
    1609A      2.396450  1610A      2.397189  1611A      2.397575  
    1612A      2.403630  1613A      2.403923  1614A      2.405421  
    1615A      2.405747  1616A      2.408536  1617A      2.410334  
    1618A      2.411981  1619A      2.412859  1620A      2.413280  
    1621A      2.414395  1622A      2.414851  1623A      2.415544  
    1624A      2.419156  1625A      2.423198  1626A      2.432219  
    1627A      2.436280  1628A      2.436820  1629A      2.453866  
    1630A      2.456760  1631A      2.457378  1632A      2.458910  
    1633A      2.463042  1634A      2.482718  1635A      2.486445  
    1636A      2.486961  1637A      2.488601  1638A      2.489203  
    1639A      2.492762  1640A      2.506182  1641A      2.507867  
    1642A      2.509559  1643A      2.522044  1644A      2.525037  
    1645A      2.533053  1646A      2.533939  1647A      2.536421  
    1648A      2.536776  1649A      2.540173  1650A      2.540478  
    1651A      2.544680  1652A      2.558571  1653A      2.558984  
    1654A      2.565192  1655A      2.574142  1656A      2.574966  
    1657A      2.576319  1658A      2.577728  1659A      2.585621  
    1660A      2.587428  1661A      2.608732  1662A      2.612500  
    1663A      2.613650  1664A      2.614464  1665A      2.615287  
    1666A      2.617231  1667A      2.618824  1668A      2.626963  
    1669A      2.628667  1670A      2.630316  1671A      2.630543  
    1672A      2.633906  1673A      2.637235  1674A      2.639675  
    1675A      2.648038  1676A      2.649218  1677A      2.649767  
    1678A      2.653113  1679A      2.653531  1680A      2.653719  
    1681A      2.654349  1682A      2.655481  1683A      2.657392  
    1684A      2.661666  1685A      2.670800  1686A      2.671430  
    1687A      2.682157  1688A      2.682641  1689A      2.683257  
    1690A      2.683618  1691A      2.687043  1692A      2.687802  
    1693A      2.702245  1694A      2.711454  1695A      2.712455  
    1696A      2.715266  1697A      2.716364  1698A      2.717804  
    1699A      2.719582  1700A      2.721946  1701A      2.723438  
    1702A      2.723692  1703A      2.723765  1704A      2.734375  
    1705A      2.737658  1706A      2.738115  1707A      2.740764  
    1708A      2.742362  1709A      2.746864  1710A      2.747235  
    1711A      2.747587  1712A      2.756029  1713A      2.758635  
    1714A      2.759387  1715A      2.761671  1716A      2.761948  
    1717A      2.762910  1718A      2.764862  1719A      2.767580  
    1720A      2.769423  1721A      2.772340  1722A      2.787118  
    1723A      2.793944  1724A      2.797493  1725A      2.798593  
    1726A      2.798722  1727A      2.801942  1728A      2.802066  
    1729A      2.830518  1730A      2.834071  1731A      2.834734  
    1732A      2.851775  1733A      2.855016  1734A      2.856038  
    1735A      2.872972  1736A      2.873290  1737A      2.873556  
    1738A      2.874142  1739A      2.874306  1740A      2.882092  
    1741A      2.883579  1742A      2.887506  1743A      2.887976  
    1744A      2.889659  1745A      2.894020  1746A      2.895874  
    1747A      2.907042  1748A      2.907685  1749A      2.911492  
    1750A      2.912349  1751A      2.912720  1752A      2.917198  
    1753A      2.922208  1754A      2.937305  1755A      2.937357  
    1756A      2.941196  1757A      2.942032  1758A      2.945594  
    1759A      2.972657  1760A      2.973126  1761A      2.984119  
    1762A      2.984267  1763A      2.988485  1764A      2.993211  
    1765A      2.995798  1766A      3.002872  1767A      3.002887  
    1768A      3.022760  1769A      3.032369  1770A      3.032790  
    1771A      3.032940  1772A      3.043972  1773A      3.060200  
    1774A      3.060352  1775A      3.099103  1776A      3.099621  
    1777A      3.104024  1778A      3.106595  1779A      3.114765  
    1780A      3.118456  1781A      3.118828  1782A      3.128270  
    1783A      3.128536  1784A      3.130659  1785A      3.142397  
    1786A      3.145661  1787A      3.146241  1788A      3.176031  
    1789A      3.181387  1790A      3.181886  1791A      3.193922  
    1792A      3.199162  1793A      3.199244  1794A      3.207399  
    1795A      3.209806  1796A      3.210223  1797A      3.211010  
    1798A      3.218189  1799A      3.218681  1800A      3.219156  
    1801A      3.222357  1802A      3.222849  1803A      3.227548  
    1804A      3.238850  1805A      3.241502  1806A      3.245382  
    1807A      3.245654  1808A      3.259995  1809A      3.260628  
    1810A      3.285350  1811A      3.322472  1812A      3.323746  
    1813A      3.325581  1814A      3.331289  1815A      3.332289  
    1816A      3.333985  1817A      3.342528  1818A      3.344174  
    1819A      3.345068  1820A      3.346192  1821A      3.353995  
    1822A      3.372270  1823A      3.374041  1824A      3.376000  
    1825A      3.384456  1826A      3.434646  1827A      3.435327  
    1828A      3.453650  1829A      3.485896  1830A      3.509686  
    1831A      3.514338  1832A      3.533956  1833A      3.535099  
    1834A      3.536847  1835A      3.540517  1836A      3.546042  
    1837A      3.547723  1838A      3.553221  1839A      3.561627  
    1840A      3.563620  1841A      3.573439  1842A      3.581811  
    1843A      3.621465  1844A      3.624093  1845A      3.642670  
    1846A      3.650780  1847A      3.652688  1848A      3.662106  
    1849A      3.686149  1850A      3.725018  1851A      3.732447  
    1852A      3.738393  1853A      3.740940  1854A      3.779132  
    1855A      3.828766  1856A      3.830629  1857A      3.834797  
    1858A      3.846742  1859A      3.847889  1860A      3.871716  
    1861A      3.912083  1862A      3.922617  1863A      3.943558  
    1864A      3.947045  1865A      3.991082  1866A      3.992464  
    1867A      4.019077  1868A      4.019763  1869A      4.034874  
    1870A      4.040812  1871A      4.047361  1872A      4.059923  
    1873A      4.067903  1874A      4.099243  1875A      4.102589  
    1876A      4.145180  1877A      4.156214  1878A      4.172441  
    1879A      4.179023  1880A      4.181635  1881A      4.186461  
    1882A      4.189670  1883A      4.212763  1884A      4.216022  
    1885A      4.292572  1886A      4.293702  1887A      4.301619  
    1888A      4.351200  1889A      4.418581  1890A      4.429956  
    1891A      4.432593  1892A      4.515601  1893A      4.572517  
    1894A      4.629150  1895A      4.643566  1896A      4.644344  
    1897A      4.729702  1898A      4.755238  1899A      4.757278  

    Final Occupation by Irrep:
              A 
    DOCC [   321 ]
    NA   [   321 ]
    NB   [   321 ]

  @DF-RHF Final Energy: -4073.05187367744566

   => Energetics <=

    Nuclear Repulsion Energy =          17815.3891281038631860
    One-Electron Energy =              -41120.5703717241267441
    Two-Electron Energy =               19232.1293699428169930
    Total Energy =                      -4073.0518736774465651

Computation Completed


Properties will be evaluated at   0.000000,   0.000000,   0.000000 [a0]

Properties computed using the SCF density matrix


 Multipole Moments:

 ------------------------------------------------------------------------------------
     Multipole            Electronic (a.u.)      Nuclear  (a.u.)        Total (a.u.)
 ------------------------------------------------------------------------------------

 L = 1.  Multiply by 2.5417464519 to convert [e a0] to [Debye]
 Dipole X            :          0.0007005           -0.0000548            0.0006457
 Dipole Y            :          0.0004936           -0.0002464            0.0002472
 Dipole Z            :        -15.1495905           19.0432464            3.8936560
 Magnitude           :                                                    3.8936560

 ------------------------------------------------------------------------------------

*** tstop() called on n2cn0239 at Thu Jan 25 08:57:44 2024
Module time:
	user time   =   24058.60 seconds =     400.98 minutes
	system time =    1429.89 seconds =      23.83 minutes
	total time  =      16779 seconds =     279.65 minutes
Total time:
	user time   =   24058.60 seconds =     400.98 minutes
	system time =    1429.89 seconds =      23.83 minutes
	total time  =      16779 seconds =     279.65 minutes

  //>>>>>>>>>>>>>>>>>>>>>>>>>>>>>>>>>>>//
  //            Monomer A HF           //
  //<<<<<<<<<<<<<<<<<<<<<<<<<<<<<<<<<<<//

   => Libint2 <=

    Primary   basis highest AM E, G, H:  5, 4, 3
    Auxiliary basis highest AM E, G, H:  6, 5, 4
    Onebody   basis highest AM E, G, H:  6, 5, 4
    Solid Harmonics ordering:            gaussian

*** tstart() called on n2cn0239
*** at Thu Jan 25 08:57:44 2024

   => Loading Basis Set <=

    Name: JUN-CC-PVDZ
    Role: ORBITAL
    Keyword: BASIS
    atoms 1                                                   entry B          line   130 file /opt/software/pc2/EB-SW/software/PSI4/1.9-foss-2022a/share/psi4/basis/jun-cc-pvdz.gbs 
    atoms 2-5                                                 entry F          line   266 file /opt/software/pc2/EB-SW/software/PSI4/1.9-foss-2022a/share/psi4/basis/jun-cc-pvdz.gbs 
    atoms 6-23, 30-42, 45-59, 62-78, 81-93, 98-108, 111-119   entry C          line   164 file /opt/software/pc2/EB-SW/software/PSI4/1.9-foss-2022a/share/psi4/basis/jun-cc-pvdz.gbs 
    atoms 24-29, 43-44, 60-61, 79-80, 94-97, 109-110, 120-125 entry H          line    36 file /opt/software/pc2/EB-SW/software/PSI4/1.9-foss-2022a/share/psi4/basis/jun-cc-pvdz.gbs 


         ---------------------------------------------------------
                                   SCF
               by Justin Turney, Rob Parrish, Andy Simmonett
                          and Daniel G. A. Smith
                              RHF Reference
                       16 Threads,  44822 MiB Core
         ---------------------------------------------------------

  ==> Geometry <==

    Molecular point group: c1
    Full point group: C1

    Geometry (in Angstrom), charge = -1, multiplicity = 1:

       Center              X                  Y                   Z               Mass       
    ------------   -----------------  -----------------  -----------------  -----------------
         B           -0.000201921932     0.000288800891    -2.979567469411    11.009305360000
         F           -0.000004162732     0.000014527991    -1.566782469411    18.998403162730
         F            1.147855837268     0.675795727991    -3.450708469411    18.998403162730
         F            0.011913897268    -1.331996472009    -3.450506469411    18.998403162730
         F           -1.159670162732     0.656088027991    -3.450427469411    18.998403162730
      Gh(C)          -3.668445426752     7.803766698073     0.222298571925    12.000000000000
      Gh(C)          -4.847602882078     7.131256359331     0.219931996992    12.000000000000
      Gh(C)          -4.894963461907     5.696344931522     0.219359085894    12.000000000000
      Gh(C)          -3.653744841505     4.980744868950     0.227019527624    12.000000000000
      Gh(C)          -2.409429284226     7.113995564665     0.222492914185    12.000000000000
      Gh(C)          -2.425481506836     5.681136478894     0.215488025315    12.000000000000
      Gh(C)          -1.194748179167     7.786158722300     0.223965094727    12.000000000000
      Gh(C)           0.037954866205     7.099436173748     0.221794390422    12.000000000000
      Gh(C)           0.030328424687     5.669504087695     0.216311005506    12.000000000000
      Gh(C)          -1.200988670637     4.969284875906     0.225280739440    12.000000000000
      Gh(C)           1.277953663083     7.772873971185     0.223170238983    12.000000000000
      Gh(C)           2.485353921992     7.087711413228     0.220895751078    12.000000000000
      Gh(C)           2.486124522185     5.654785338231     0.213958002090    12.000000000000
      Gh(C)           1.254078756912     4.956092641655     0.225585943678    12.000000000000
      Gh(C)           3.751710428674     7.763926678971     0.221022602458    12.000000000000
      Gh(C)           4.923561893453     7.078795304981     0.218966121750    12.000000000000
      Gh(C)           4.955603108594     5.643461991360     0.218805708943    12.000000000000
      Gh(C)           3.706797371473     4.941224736324     0.223897269113    12.000000000000
      Gh(H)          -3.658525300490     8.890841947126     0.223983560175     1.007825032230
      Gh(H)          -1.189217492488     8.874135615351     0.227936971168     1.007825032230
      Gh(H)           1.284290076155     8.860847963479     0.227329063124     1.007825032230
      Gh(H)           3.753537924068     8.851049806963     0.222545126774     1.007825032230
      Gh(H)           5.869954540475     7.613809362646     0.218040754708     1.007825032230
      Gh(H)          -5.788235870234     7.676316740925     0.218372149637     1.007825032230
      Gh(C)          -6.091978121428     4.993274541634     0.217486845403    12.000000000000
[...]
    1510A      2.136032  1511A      2.137985  1512A      2.138908  
    1513A      2.139489  1514A      2.143172  1515A      2.143482  
    1516A      2.144335  1517A      2.144868  1518A      2.145669  
    1519A      2.157822  1520A      2.158249  1521A      2.159160  
    1522A      2.159365  1523A      2.160574  1524A      2.161032  
    1525A      2.162694  1526A      2.163318  1527A      2.168462  
    1528A      2.168651  1529A      2.174001  1530A      2.174942  
    1531A      2.177882  1532A      2.180910  1533A      2.181776  
    1534A      2.183602  1535A      2.183689  1536A      2.192270  
    1537A      2.193323  1538A      2.194759  1539A      2.196008  
    1540A      2.198894  1541A      2.199780  1542A      2.201352  
    1543A      2.201693  1544A      2.203535  1545A      2.203898  
    1546A      2.205353  1547A      2.207382  1548A      2.209729  
    1549A      2.214412  1550A      2.215267  1551A      2.217705  
    1552A      2.220280  1553A      2.222812  1554A      2.225362  
    1555A      2.226900  1556A      2.228226  1557A      2.230441  
    1558A      2.231657  1559A      2.232080  1560A      2.232417  
    1561A      2.233319  1562A      2.236085  1563A      2.239275  
    1564A      2.240186  1565A      2.240556  1566A      2.240679  
    1567A      2.243961  1568A      2.249222  1569A      2.250171  
    1570A      2.263882  1571A      2.266858  1572A      2.267696  
    1573A      2.269027  1574A      2.269973  1575A      2.277872  
    1576A      2.278248  1577A      2.278969  1578A      2.279849  
    1579A      2.280114  1580A      2.284269  1581A      2.284514  
    1582A      2.294830  1583A      2.295339  1584A      2.296979  
    1585A      2.298765  1586A      2.305929  1587A      2.306201  
    1588A      2.313945  1589A      2.325240  1590A      2.325300  
    1591A      2.326056  1592A      2.327014  1593A      2.331007  
    1594A      2.331452  1595A      2.332782  1596A      2.335048  
    1597A      2.335304  1598A      2.335975  1599A      2.340121  
    1600A      2.341486  1601A      2.342425  1602A      2.342593  
    1603A      2.343383  1604A      2.345518  1605A      2.346487  
    1606A      2.346739  1607A      2.354775  1608A      2.355056  
    1609A      2.375483  1610A      2.382952  1611A      2.386047  
    1612A      2.388167  1613A      2.389537  1614A      2.394143  
    1615A      2.401004  1616A      2.404013  1617A      2.416851  
    1618A      2.418955  1619A      2.419693  1620A      2.422014  
    1621A      2.430302  1622A      2.430405  1623A      2.437824  
    1624A      2.447525  1625A      2.447661  1626A      2.453259  
    1627A      2.464756  1628A      2.466594  1629A      2.467313  
    1630A      2.468590  1631A      2.472020  1632A      2.472277  
    1633A      2.479629  1634A      2.491618  1635A      2.492085  
    1636A      2.502986  1637A      2.507753  1638A      2.508167  
    1639A      2.511990  1640A      2.516584  1641A      2.521839  
    1642A      2.540348  1643A      2.541877  1644A      2.542118  
    1645A      2.545660  1646A      2.546512  1647A      2.548501  
    1648A      2.549435  1649A      2.551274  1650A      2.552260  
    1651A      2.556734  1652A      2.556878  1653A      2.564383  
    1654A      2.571575  1655A      2.572332  1656A      2.581492  
    1657A      2.584335  1658A      2.585099  1659A      2.585986  
    1660A      2.586751  1661A      2.588607  1662A      2.589164  
    1663A      2.589541  1664A      2.593298  1665A      2.593739  
    1666A      2.602773  1667A      2.603106  1668A      2.614557  
    1669A      2.614817  1670A      2.615181  1671A      2.615351  
    1672A      2.618656  1673A      2.619296  1674A      2.632788  
    1675A      2.642798  1676A      2.643994  1677A      2.646288  
    1678A      2.647357  1679A      2.649746  1680A      2.650651  
    1681A      2.651798  1682A      2.653882  1683A      2.657078  
    1684A      2.657288  1685A      2.666261  1686A      2.668231  
    1687A      2.671814  1688A      2.672327  1689A      2.674085  
    1690A      2.681057  1691A      2.681187  1692A      2.682208  
    1693A      2.687346  1694A      2.688715  1695A      2.691544  
    1696A      2.691824  1697A      2.692208  1698A      2.694120  
    1699A      2.695282  1700A      2.699081  1701A      2.701905  
    1702A      2.709078  1703A      2.726598  1704A      2.730930  
    1705A      2.731888  1706A      2.732199  1707A      2.732326  
    1708A      2.732647  1709A      2.758126  1710A      2.761015  
    1711A      2.761731  1712A      2.777043  1713A      2.784848  
    1714A      2.786488  1715A      2.800958  1716A      2.801120  
    1717A      2.802347  1718A      2.802377  1719A      2.805758  
    1720A      2.811366  1721A      2.812416  1722A      2.815165  
    1723A      2.815561  1724A      2.817303  1725A      2.817974  
    1726A      2.818319  1727A      2.831926  1728A      2.832768  
    1729A      2.840431  1730A      2.842994  1731A      2.843033  
    1732A      2.847057  1733A      2.852939  1734A      2.864805  
    1735A      2.864918  1736A      2.871470  1737A      2.872389  
    1738A      2.875605  1739A      2.880749  1740A      2.880899  
    1741A      2.896146  1742A      2.896996  1743A      2.918530  
    1744A      2.918676  1745A      2.919599  1746A      2.923293  
    1747A      2.927719  1748A      2.935791  1749A      2.935814  
    1750A      2.964203  1751A      2.966083  1752A      2.966639  
    1753A      2.971126  1754A      2.976518  1755A      2.992950  
    1756A      2.993434  1757A      3.030464  1758A      3.030894  
    1759A      3.033761  1760A      3.037887  1761A      3.040391  
    1762A      3.048514  1763A      3.048684  1764A      3.048871  
    1765A      3.057995  1766A      3.058130  1767A      3.068507  
    1768A      3.073141  1769A      3.111297  1770A      3.114303  
    1771A      3.114924  1772A      3.125770  1773A      3.129816  
    1774A      3.129935  1775A      3.138269  1776A      3.140809  
    1777A      3.143179  1778A      3.144018  1779A      3.150688  
    1780A      3.151279  1781A      3.151926  1782A      3.152317  
    1783A      3.154515  1784A      3.162193  1785A      3.168791  
    1786A      3.173320  1787A      3.178688  1788A      3.178734  
    1789A      3.193597  1790A      3.194369  1791A      3.220794  
    1792A      3.257999  1793A      3.260485  1794A      3.262798  
    1795A      3.263148  1796A      3.263832  1797A      3.265623  
    1798A      3.272568  1799A      3.275174  1800A      3.276440  
    1801A      3.277051  1802A      3.300647  1803A      3.302502  
    1804A      3.305425  1805A      3.314385  1806A      3.362232  
    1807A      3.363008  1808A      3.396716  1809A      3.418969  
    1810A      3.436186  1811A      3.440396  1812A      3.457388  
    1813A      3.458246  1814A      3.460523  1815A      3.466607  
    1816A      3.473184  1817A      3.474383  1818A      3.476791  
    1819A      3.487695  1820A      3.489830  1821A      3.509057  
    1822A      3.512754  1823A      3.546964  1824A      3.561139  
    1825A      3.579097  1826A      3.580976  1827A      3.591679  
    1828A      3.593747  1829A      3.652320  1830A      3.657647  
    1831A      3.667652  1832A      3.670168  1833A      3.706866  
    1834A      3.759446  1835A      3.761102  1836A      3.763202  
    1837A      3.774429  1838A      3.778691  1839A      3.797089  
    1840A      3.843486  1841A      3.850482  1842A      3.873898  
    1843A      3.877454  1844A      3.922343  1845A      3.923096  
    1846A      3.948986  1847A      3.949775  1848A      3.964526  
    1849A      3.967786  1850A      3.972358  1851A      3.978317  
    1852A      3.991451  1853A      4.024851  1854A      4.027660  
    1855A      4.081404  1856A      4.259251  1857A      4.385957  
    1858A      4.389494  1859A      4.425562  1860A      4.457780  
    1861A      4.484092  1862A      4.769437  1863A      5.758145  
    1864A      5.767497  1865A      5.769305  1866A      5.769411  
    1867A      5.785657  1868A      5.786086  1869A      5.805872  
    1870A      5.816092  1871A      5.860794  1872A      5.883569  
    1873A      5.891219  1874A      6.029899  1875A      6.044633  
    1876A      6.052397  1877A      6.214758  1878A      6.338752  
    1879A      6.339933  1880A      6.395878  1881A      6.396192  
    1882A      6.400064  1883A      7.321902  1884A      7.322052  
    1885A      7.327060  1886A      7.420371  1887A      7.423436  
    1888A      7.463226  1889A      7.618885  1890A      7.620066  
    1891A      7.714020  1892A      7.731435  1893A      7.740131  
    1894A      7.982374  1895A     12.850099  1896A     42.949480  
    1897A     42.949693  1898A     42.964579  1899A     42.998995  

    Final Occupation by Irrep:
              A 
    DOCC [   300 ]
    NA   [   300 ]
    NB   [   300 ]

  @DF-RHF Final Energy: -3650.34017380901241

   => Energetics <=

    Nuclear Repulsion Energy =          15611.4211649754324753
    One-Electron Energy =              -36072.1517338393095997
    Two-Electron Energy =               16810.3903950548628927
    Total Energy =                      -3650.3401738090142317

Computation Completed


Properties will be evaluated at   0.000000,   0.000000,   0.000000 [a0]

Properties computed using the SCF density matrix


 Multipole Moments:

 ------------------------------------------------------------------------------------
     Multipole            Electronic (a.u.)      Nuclear  (a.u.)        Total (a.u.)
 ------------------------------------------------------------------------------------

 L = 1.  Multiply by 2.5417464519 to convert [e a0] to [Debye]
 Dipole X            :          0.0003218            0.0002304            0.0005522
 Dipole Y            :          0.0014224           -0.0013052            0.0001172
 Dipole Z            :       -249.8978220          249.8991087            0.0012867
 Magnitude           :                                                    0.0014051

 ------------------------------------------------------------------------------------

*** tstop() called on n2cn0239 at Thu Jan 25 11:04:35 2024
Module time:
	user time   =   17712.65 seconds =     295.21 minutes
	system time =     891.14 seconds =      14.85 minutes
	total time  =       5018 seconds =      83.63 minutes
Total time:
	user time   =   46145.94 seconds =     769.10 minutes
	system time =    2556.41 seconds =      42.61 minutes
	total time  =      24390 seconds =     406.50 minutes
  Constructing Basis Sets for SAPT...

   => Loading Basis Set <=

    Name: (JUN-CC-PVDZ AUX)
    Role: RIFIT
    Keyword: DF_BASIS_SAPT
    atoms 1                                                   entry B          line    56 file /opt/software/pc2/EB-SW/software/PSI4/1.9-foss-2022a/share/psi4/basis/jun-cc-pvdz-ri.gbs 
    atoms 2-5                                                 entry F          line   232 file /opt/software/pc2/EB-SW/software/PSI4/1.9-foss-2022a/share/psi4/basis/jun-cc-pvdz-ri.gbs 
    atoms 6-23, 30-42, 45-59, 62-78, 81-93, 98-108, 111-119   entry C          line   100 file /opt/software/pc2/EB-SW/software/PSI4/1.9-foss-2022a/share/psi4/basis/jun-cc-pvdz-ri.gbs 
    atoms 24-29, 43-44, 60-61, 79-80, 94-97, 109-110, 120-125 entry H          line    30 file /opt/software/pc2/EB-SW/software/PSI4/1.9-foss-2022a/share/psi4/basis/jun-cc-pvdz-ri.gbs 

   => Loading Basis Set <=

    Name: (JUN-CC-PVDZ AUX)
    Role: JKFIT
    Keyword: DF_BASIS_ELST
    atoms 1                                                   entry B          line    90 file /opt/software/pc2/EB-SW/software/PSI4/1.9-foss-2022a/share/psi4/basis/jun-cc-pvdz-jkfit.gbs 
    atoms 2-5                                                 entry F          line   314 file /opt/software/pc2/EB-SW/software/PSI4/1.9-foss-2022a/share/psi4/basis/jun-cc-pvdz-jkfit.gbs 
    atoms 6-23, 30-42, 45-59, 62-78, 81-93, 98-108, 111-119   entry C          line   146 file /opt/software/pc2/EB-SW/software/PSI4/1.9-foss-2022a/share/psi4/basis/jun-cc-pvdz-jkfit.gbs 
    atoms 24-29, 43-44, 60-61, 79-80, 94-97, 109-110, 120-125 entry H          line    70 file /opt/software/pc2/EB-SW/software/PSI4/1.9-foss-2022a/share/psi4/basis/jun-cc-pvdz-jkfit.gbs 


  //>>>>>>>>>>>>>>>>>>>>>>>>>>>>>>>>>>>//
  //               SSAPT0              //
  //<<<<<<<<<<<<<<<<<<<<<<<<<<<<<<<<<<<//


*** tstart() called on n2cn0239
*** at Thu Jan 25 11:04:38 2024

        SAPT0  
    Ed Hohenstein
     6 June 2009

      Orbital Information
  --------------------------
    NSO        =      1938
    NMO        =      1899
    NRI        =      6901
    NRI (Elst) =      8531
    NOCC A     =        21
    NOCC B     =       300
    FOCC A     =         5
    FOCC B     =        96
    NVIR A     =      1878
    NVIR B     =      1599

    Elst10,r            =    -0.048433242653 [Eh]
    Exch10              =     0.143675241527 [Eh]
    Exch10 (S^2)        =     0.141446268104 [Eh]

    Iter     Energy [mEh]          dE [mEh]         Residual      Time [s]
       1     -22.23395193      22.233951926      34.748842503           327
       2     -26.82959543       4.595643505      15.714595653           641
       3     -28.43836431       1.608768876       2.233229139          1187
       4     -28.38805208      -0.050312223       0.688855402          1564
       5     -28.36515175      -0.022900334       0.143924929          1884
       6     -28.36587212       0.000720373       0.043164245          2210
       7     -28.36730571       0.001433588       0.008169123          2689
       8     -28.36713934      -0.000166371       0.001760463          3100
       9     -28.36713644      -0.000002904       0.000264442          3461
      10     -28.36714084       0.000004407       0.000043389          3720
      11     -28.36714016      -0.000000682       0.000010180          4066
      12     -28.36714022       0.000000056       0.000002372          4338
      13     -28.36714023       0.000000016       0.000000787          4592

    CHF Iterations converged


    Iter     Energy [mEh]          dE [mEh]         Residual      Time [s]
       1     -66.76504639      66.765046393     115.153742751           575
       2     -53.26678125     -13.498265147      18.020592691           862
       3     -55.50651953       2.239738282       7.596869353          1129
       4     -56.73865622       1.232136696       1.732777020          1441
       5     -56.74488194       0.006225712       0.711647211          1676
       6     -56.67673703      -0.068144907       0.298931842          1977
       7     -56.67359368      -0.003143353       0.139752537          2257
       8     -56.68379169       0.010198009       0.061953305          2518
       9     -56.68539416       0.001602475       0.023876792          2834
      10     -56.68397960      -0.001414561       0.009379292          3095
      11     -56.68376690      -0.000212699       0.004641566          3380
      12     -56.68398545       0.000218552       0.004371864          3630
      13     -56.68406982       0.000084365       0.003033606          3902
      14     -56.68395676      -0.000113053       0.001136640          4190
      15     -56.68394390      -0.000012861       0.000596893          4452
      16     -56.68395455       0.000010648       0.000298520          4722
      17     -56.68396024       0.000005694       0.000184581          4982
      18     -56.68395761      -0.000002638       0.000087072          5219
      19     -56.68395586      -0.000001743       0.000047656          5430
      20     -56.68395590       0.000000036       0.000020677          5634
      21     -56.68395648       0.000000577       0.000008075          5854
      22     -56.68395649       0.000000015       0.000003576          6087
      23     -56.68395640      -0.000000092       0.000001748          6318
      24     -56.68395640      -0.000000003       0.000000825          6577

    CHF Iterations converged

    Ind20,r (A<-B)      =    -0.028367140233 [Eh]
    Ind20,r (B<-A)      =    -0.056683956396 [Eh]
    Ind20,r             =    -0.085051096629 [Eh]
    Exch-Ind20,r (A<-B) =     0.024945063163 [Eh]
    Exch-Ind20,r (B<-A) =     0.031021301280 [Eh]
    Exch-Ind20,r        =     0.055966364443 [Eh]
    Disp20              =    -0.038246051003 [Eh]
    Disp20 (SS)         =    -0.019123025502 [Eh]
    Disp20 (OS)         =    -0.019123025502 [Eh]
    Exch-Disp20         =     0.010930068776 [Eh]
    Exch-Disp20 (SS)    =     0.005807430795 [Eh]
    Exch-Disp20 (OS)    =     0.005122637980 [Eh]

    SAPT Results 
  --------------------------------------------------------------------------------------------------------
    Electrostatics                -48.43324265 [mEh]     -30.39231861 [kcal/mol]    -127.16146107 [kJ/mol]
      Elst10,r                    -48.43324265 [mEh]     -30.39231861 [kcal/mol]    -127.16146107 [kJ/mol]

    Exchange                      143.67524153 [mEh]      90.15757521 [kcal/mol]     377.21929466 [kJ/mol]
      Exch10                      143.67524153 [mEh]      90.15757521 [kcal/mol]     377.21929466 [kJ/mol]
      Exch10(S^2)                 141.44626810 [mEh]      88.75887327 [kcal/mol]     371.36712574 [kJ/mol]

    Induction                     -32.31237841 [mEh]     -20.27632357 [kcal/mol]     -84.83613783 [kJ/mol]
      Ind20,r                     -85.05109663 [mEh]     -53.37036889 [kcal/mol]    -223.30162343 [kJ/mol]
      Exch-Ind20,r                 55.96636444 [mEh]      35.11942390 [kcal/mol]     146.93966960 [kJ/mol]
      delta HF,r (2)               -3.22764622 [mEh]      -2.02537858 [kcal/mol]      -8.47418399 [kJ/mol]

    Dispersion                    -27.31598223 [mEh]     -17.14103763 [kcal/mol]     -71.71810146 [kJ/mol]
      Disp20                      -38.24605100 [mEh]     -23.99975934 [kcal/mol]    -100.41499308 [kJ/mol]
      Exch-Disp20                  10.93006878 [mEh]       6.85872171 [kcal/mol]      28.69689162 [kJ/mol]
      Disp20 (SS)                 -19.12302550 [mEh]     -11.99987967 [kcal/mol]     -50.20749654 [kJ/mol]
      Disp20 (OS)                 -19.12302550 [mEh]     -11.99987967 [kcal/mol]     -50.20749654 [kJ/mol]
      Exch-Disp20 (SS)              5.80743080 [mEh]       3.64421784 [kcal/mol]      15.24740745 [kJ/mol]
      Exch-Disp20 (OS)              5.12263798 [mEh]       3.21450386 [kcal/mol]      13.44948416 [kJ/mol]

  Total HF                         62.92962046 [mEh]      39.48893302 [kcal/mol]     165.22169577 [kJ/mol]
  Total SAPT0                      35.61363824 [mEh]      22.34789539 [kcal/mol]      93.50359431 [kJ/mol]

  Special recipe for scaled SAPT0 (see Manual):
    Electrostatics sSAPT0         -48.43324265 [mEh]     -30.39231861 [kcal/mol]    -127.16146107 [kJ/mol]
    Exchange sSAPT0               143.67524153 [mEh]      90.15757521 [kcal/mol]     377.21929466 [kJ/mol]
    Induction sSAPT0              -29.62463640 [mEh]     -18.58974000 [kcal/mol]     -77.77947215 [kJ/mol]
    Dispersion sSAPT0             -26.79107400 [mEh]     -16.81165275 [kcal/mol]     -70.33995510 [kJ/mol]
  Total sSAPT0                     38.82628847 [mEh]      24.36386385 [kcal/mol]     101.93840634 [kJ/mol]
  --------------------------------------------------------------------------------------------------------

*** tstop() called on n2cn0239 at Thu Jan 25 22:10:13 2024
Module time:
	user time   =   68469.34 seconds =    1141.16 minutes
	system time =    3188.21 seconds =      53.14 minutes
	total time  =      39935 seconds =     665.58 minutes
Total time:
	user time   =  114616.72 seconds =    1910.28 minutes
	system time =    5744.63 seconds =      95.74 minutes
	total time  =      64328 seconds =    1072.13 minutes

    Psi4 stopped on: Thursday, 25 January 2024 10:10PM
    Psi4 wall time for execution: 17:52:10.21

*** Psi4 exiting successfully. Buy a developer a beer!
