created by fftool

131 atoms
148 bonds
168 angles
342 dihedrals
5 atom types
4 bond types
3 angle types
5 dihedral types
-30.000000 30.000000 xlo xhi
-30.000000 30.000000 ylo yhi
-30.000000 30.000000 zlo zhi

Masses

   1   10.811  # B
   2   18.998  # FB
   3   11.611  # CA DC
   4    1.008  # HA
   5    0.400  # CA DP

Bond Coeffs

   1   386.591778     1.394000  # B-F
   2   469.000956     1.400000  # CA-CA
   3   367.005258     1.080000  # CA-HA
   4   500.000000     0.000000  # CA DC-DP

Angle Coeffs

   1    80.007170   109.500000  # F-B-F
   2    63.001912   120.000000  # CA-CA-CA
   3    35.002390   120.000000  # CA-CA-HA

Dihedral Coeffs

   1     0.000000     7.250000     0.000000     0.000000  # CA-CA-CA-CA
   2     0.000000     7.250000     0.000000     0.000000  # CA-CA-CA-HA
   3     0.000000     7.250000     0.000000     0.000000  # HA-CA-CA-HA
   4     0.000000     2.200000     0.000000     0.000000  # CA-CA-CA-CA
   5     0.000000     2.200000     0.000000     0.000000  # CA-CA-CA-HA

Atoms

1   1   1   1.257825   -1.977592e-04   2.742729e-04   7.600034e+00
2   1   2   -0.564682   1.123153e-16   1.430594e-17   9.012819e+00
3   1   2   -0.564312   1.147860e+00   6.757812e-01   7.128893e+00
4   1   2   -0.564472   1.191806e-02   -1.332011e+00   7.129095e+00
5   1   2   -0.564360   -1.159666e+00   6.560735e-01   7.129174e+00
      6       2    3   1.852040  1.225312e+00  7.075387e-01  6.137627e-03  # CA aromatic DC
      7       2    3   1.852040  1.225324e+00 -7.075385e-01 -6.193182e-03  # CA aromatic DC
      8       2    3   1.852040 -5.674090e-06  1.414966e+00 -6.726806e-03  # CA aromatic DC
      9       2    3   1.852040  2.456449e+00  1.418328e+00  9.024485e-03  # CA aromatic DC
     10       2    3   1.852040  1.130712e-05 -1.414976e+00  3.472752e-03  # CA aromatic DC
     11       2    3   1.852040 -1.225300e+00  7.075457e-01  8.389148e-03  # CA aromatic DC
     12       2    3   1.852040  2.456438e+00 -1.418323e+00 -8.438339e-03  # CA aromatic DC
     13       2    3   1.852040 -8.531359e-07  2.836801e+00 -9.130356e-03  # CA aromatic DC
     14       2    3   1.852040  3.681827e+00  7.093183e-01 -8.089549e-03  # CA aromatic DC
     15       2    3   1.852040  2.455121e+00  2.834224e+00 -8.192106e-03  # CA aromatic DC
     16       2    3   1.852040  3.681822e+00 -7.093335e-01  7.982935e-03  # CA aromatic DC
     17       2    3   1.852040 -1.225313e+00 -7.075271e-01 -5.120421e-03  # CA aromatic DC
     18       2    3   1.852040  1.226700e+00  3.543470e+00  8.166967e-03  # CA aromatic DC
     19       2    3   1.852040  5.264699e-06 -2.836782e+00  8.320919e-03  # CA aromatic DC
     20       2    3   1.852040 -2.456436e+00  1.418317e+00  8.424543e-03  # CA aromatic DC
     21       2    3   1.852040  2.455124e+00 -2.834230e+00  7.831026e-03  # CA aromatic DC
     22       2    3   1.852040 -1.226714e+00  3.543469e+00  8.270300e-03  # CA aromatic DC
     23       2    3   1.852040  4.914518e+00  1.427173e+00 -1.608866e-03  # CA aromatic DC
     24       2    3   1.852040  3.693151e+00  3.542796e+00 -1.559067e-03  # CA aromatic DC
     25       2    3   1.852040 -2.456437e+00 -1.418313e+00 -8.463377e-03  # CA aromatic DC
     26       2    3   1.852040  1.226705e+00 -3.543474e+00 -7.803164e-03  # CA aromatic DC
     27       2    3   1.852040 -2.455125e+00  2.834217e+00 -8.185730e-03  # CA aromatic DC
     28       2    3   1.852040  4.914525e+00 -1.427187e+00  1.363876e-03  # CA aromatic DC
     29       2    3   1.852040  1.221425e+00  4.970134e+00  1.502311e-03  # CA aromatic DC
     30       2    3   1.852040  4.893009e+00  2.825188e+00 -3.921980e-04  # CA aromatic DC
     31       2    3   1.852040 -1.226697e+00 -3.543471e+00 -7.535960e-03  # CA aromatic DC
     32       2    3   1.852040 -3.681818e+00  7.093253e-01 -8.076869e-03  # CA aromatic DC
     33       2    3   1.852040  3.693148e+00 -3.542801e+00  1.481767e-03  # CA aromatic DC
     34       2    3   1.852040 -1.221432e+00  4.970129e+00  1.685806e-03  # CA aromatic DC
     35       2    3   1.852040  6.134771e+00  6.805483e-01 -8.390918e-04  # CA aromatic DC
     36       2    3   1.852040  3.656789e+00  4.972954e+00 -6.504289e-04  # CA aromatic DC
     37       2    3   1.852040 -2.455126e+00 -2.834215e+00  7.586669e-03  # CA aromatic DC
     38       2    3   1.852040 -3.681819e+00 -7.093253e-01  8.100556e-03  # CA aromatic DC
     39       2    3   1.852040  4.893013e+00 -2.825200e+00  2.189539e-04  # CA aromatic DC
     40       2    3   1.852040 -5.932711e-07  5.650448e+00  4.544973e-04  # CA aromatic DC
     41       2    3   1.852040  6.134776e+00 -6.805545e-01  4.262287e-04  # CA aromatic DC
     42       2    3   1.852040  2.478132e+00  5.653577e+00  6.383508e-04  # CA aromatic DC
     43       2    3   1.852040  1.221423e+00 -4.970127e+00 -1.297186e-03  # CA aromatic DC
     44       2    3   1.852040 -3.693162e+00  3.542797e+00 -1.393559e-03  # CA aromatic DC
     45       2    3   1.852040 -1.221428e+00 -4.970118e+00 -1.409948e-03  # CA aromatic DC
     46       2    3   1.852040 -4.914521e+00  1.427176e+00 -1.531921e-03  # CA aromatic DC
     47       2    3   1.852040  3.656787e+00 -4.972955e+00  8.000716e-04  # CA aromatic DC
     48       2    3   1.852040 -2.478138e+00  5.653575e+00  9.228758e-04  # CA aromatic DC
     49       2    3   1.852040 -3.693141e+00 -3.542790e+00  1.365641e-03  # CA aromatic DC
     50       2    3   1.852040 -4.914512e+00 -1.427181e+00  1.398574e-03  # CA aromatic DC
     51       2    3   1.852040 -5.529084e-06 -5.650438e+00  5.899322e-05  # CA aromatic DC
     52       2    3   1.852040 -4.893020e+00  2.825189e+00 -4.022798e-04  # CA aromatic DC
     53       2    3   1.852040  2.478126e+00 -5.653573e+00 -2.905292e-04  # CA aromatic DC
     54       2    3   1.852040 -3.656798e+00  4.972957e+00 -4.737485e-04  # CA aromatic DC
     55       2    3   1.852040 -4.892999e+00 -2.825191e+00  6.491824e-05  # CA aromatic DC
     56       2    3   1.852040 -2.478128e+00 -5.653566e+00 -5.657168e-04  # CA aromatic DC
     57       2    3   1.852040 -6.134770e+00  6.805491e-01 -8.646435e-04  # CA aromatic DC
     58       2    3   1.852040 -3.656788e+00 -4.972944e+00  5.857838e-04  # CA aromatic DC
     59       2    3   1.852040 -6.134765e+00 -6.805535e-01  4.057530e-04  # CA aromatic DC
     60       2    4   0.000000  5.835289e+00  3.369276e+00  3.967128e-03  # HA aromatic
     61       2    4   0.000000  7.073860e+00  1.228218e+00 -3.774484e-04  # HA aromatic
     62       2    4   0.000000  4.600664e+00  5.512381e+00 -1.452281e-04  # HA aromatic
     63       2    4   0.000000  5.835284e+00 -3.369306e+00 -4.235513e-03  # HA aromatic
     64       2    4   0.000000 -1.167146e-05  6.738531e+00 -3.894748e-03  # HA aromatic
     65       2    4   0.000000  7.073862e+00 -1.228227e+00 -8.250934e-05  # HA aromatic
     66       2    4   0.000000  2.473314e+00  6.740685e+00  1.716298e-04  # HA aromatic
     67       2    4   0.000000  4.600669e+00 -5.512376e+00  3.900745e-04  # HA aromatic
     68       2    4   0.000000 -2.473318e+00  6.740682e+00  4.729764e-04  # HA aromatic
     69       2    4   0.000000 -9.788386e-06 -6.738528e+00  4.588678e-03  # HA aromatic
     70       2    4   0.000000 -5.835301e+00  3.369271e+00  4.103150e-03  # HA aromatic
     71       2    4   0.000000  2.473308e+00 -6.740685e+00  2.798013e-04  # HA aromatic
     72       2    4   0.000000 -4.600674e+00  5.512378e+00  2.010018e-05  # HA aromatic
     73       2    4   0.000000 -5.835279e+00 -3.369289e+00 -4.514819e-03  # HA aromatic
     74       2    4   0.000000 -2.473300e+00 -6.740679e+00 -1.695153e-04  # HA aromatic
     75       2    4   0.000000 -7.073857e+00  1.228221e+00 -4.614399e-04  # HA aromatic
     76       2    4   0.000000 -4.600673e+00 -5.512362e+00  2.177664e-04  # HA aromatic
     77       2    4   0.000000 -7.073856e+00 -1.228220e+00 -1.773658e-04  # HA aromatic
     78       2    5  -1.852040  1.180548e+00  6.662574e-01 -3.138197e-03  # CA aromatic DP
     79       2    5  -1.852040  1.186094e+00 -6.674186e-01 -5.237782e-02  # CA aromatic DP
     80       2    5  -1.852040  3.614530e-03  1.398186e+00  2.848186e-02  # CA aromatic DP
     81       2    5  -1.852040  2.422415e+00  1.402050e+00 -7.595876e-03  # CA aromatic DP
     82       2    5  -1.852040 -2.547236e-02 -1.464809e+00 -2.899669e-03  # CA aromatic DP
     83       2    5  -1.852040 -1.266539e+00  7.173056e-01 -3.462316e-02  # CA aromatic DP
     84       2    5  -1.852040  2.437984e+00 -1.423491e+00  3.210153e-02  # CA aromatic DP
     85       2    5  -1.852040 -4.072440e-02  2.801019e+00  1.987683e-02  # CA aromatic DP
     86       2    5  -1.852040  3.633951e+00  7.504334e-01 -7.487404e-04  # CA aromatic DP
     87       2    5  -1.852040  2.431653e+00  2.868008e+00  1.868737e-02  # CA aromatic DP
     88       2    5  -1.852040  3.666168e+00 -6.791838e-01 -2.133082e-02  # CA aromatic DP
     89       2    5  -1.852040 -1.214423e+00 -7.048196e-01  2.581343e-02  # CA aromatic DP
     90       2    5  -1.852040  1.208226e+00  3.533294e+00  3.509488e-02  # CA aromatic DP
     91       2    5  -1.852040  1.280478e-03 -2.818298e+00  2.215625e-02  # CA aromatic DP
     92       2    5  -1.852040 -2.439770e+00  1.457327e+00  7.038190e-03  # CA aromatic DP
     93       2    5  -1.852040  2.471971e+00 -2.846778e+00 -3.898484e-02  # CA aromatic DP
     94       2    5  -1.852040 -1.201297e+00  3.511615e+00  4.028932e-02  # CA aromatic DP
     95       2    5  -1.852040  4.955883e+00  1.442980e+00 -3.459618e-02  # CA aromatic DP
     96       2    5  -1.852040  3.676843e+00  3.531915e+00 -4.422999e-02  # CA aromatic DP
     97       2    5  -1.852040 -2.460760e+00 -1.410996e+00 -2.485277e-02  # CA aromatic DP
     98       2    5  -1.852040  1.195611e+00 -3.584658e+00  5.028588e-03  # CA aromatic DP
     99       2    5  -1.852040 -2.503842e+00  2.819408e+00 -3.527275e-02  # CA aromatic DP
    100       2    5  -1.852040  4.917725e+00 -1.404821e+00  4.227920e-02  # CA aromatic DP
    101       2    5  -1.852040  1.235305e+00  5.019313e+00  4.790823e-02  # CA aromatic DP
    102       2    5  -1.852040  4.906008e+00  2.798525e+00 -2.011050e-03  # CA aromatic DP
    103       2    5  -1.852040 -1.258938e+00 -3.494275e+00 -1.308597e-02  # CA aromatic DP
    104       2    5  -1.852040 -3.656653e+00  6.637383e-01 -4.460411e-02  # CA aromatic DP
    105       2    5  -1.852040  3.662466e+00 -3.567165e+00 -1.331348e-02  # CA aromatic DP
    106       2    5  -1.852040 -1.244239e+00  4.963556e+00 -6.278462e-03  # CA aromatic DP
    107       2    5  -1.852040  6.095633e+00  6.368092e-01 -1.533295e-02  # CA aromatic DP
    108       2    5  -1.852040  3.615668e+00  4.966274e+00 -4.979431e-02  # CA aromatic DP
    109       2    5  -1.852040 -2.451546e+00 -2.876867e+00  2.700726e-02  # CA aromatic DP
    110       2    5  -1.852040 -3.691398e+00 -6.607905e-01 -1.564544e-02  # CA aromatic DP
    111       2    5  -1.852040  4.890264e+00 -2.800119e+00 -1.629799e-02  # CA aromatic DP
    112       2    5  -1.852040 -1.516389e-02  5.664361e+00  4.742311e-02  # CA aromatic DP
    113       2    5  -1.852040  6.173164e+00 -6.886507e-01  2.219802e-02  # CA aromatic DP
    114       2    5  -1.852040  2.496037e+00  5.640788e+00 -2.586531e-02  # CA aromatic DP
    115       2    5  -1.852040  1.179261e+00 -4.932236e+00 -4.558126e-02  # CA aromatic DP
    116       2    5  -1.852040 -3.691292e+00  3.546551e+00 -3.677964e-02  # CA aromatic DP
    117       2    5  -1.852040 -1.205835e+00 -4.928536e+00  2.620335e-02  # CA aromatic DP
    118       2    5  -1.852040 -4.925595e+00  1.389823e+00  4.596104e-02  # CA aromatic DP
    119       2    5  -1.852040  3.658497e+00 -4.959993e+00  3.102774e-02  # CA aromatic DP
    120       2    5  -1.852040 -2.489513e+00  5.609781e+00 -3.547555e-02  # CA aromatic DP
    121       2    5  -1.852040 -3.676296e+00 -3.557836e+00  3.847336e-02  # CA aromatic DP
    122       2    5  -1.852040 -4.890496e+00 -1.379137e+00  1.828201e-02  # CA aromatic DP
    123       2    5  -1.852040 -1.962495e-02 -5.621327e+00 -4.711520e-02  # CA aromatic DP
    124       2    5  -1.852040 -4.890861e+00  2.862328e+00  1.069634e-03  # CA aromatic DP
    125       2    5  -1.852040  2.441863e+00 -5.653561e+00  4.255245e-03  # CA aromatic DP
    126       2    5  -1.852040 -3.669898e+00  5.012300e+00 -1.646566e-02  # CA aromatic DP
    127       2    5  -1.852040 -4.915824e+00 -2.824561e+00 -2.960788e-02  # CA aromatic DP
    128       2    5  -1.852040 -2.495922e+00 -5.663749e+00  4.326053e-02  # CA aromatic DP
    129       2    5  -1.852040 -6.176734e+00  6.502586e-01 -3.091471e-02  # CA aromatic DP
    130       2    5  -1.852040 -3.607261e+00 -4.933863e+00 -2.999789e-02  # CA aromatic DP
    131       2    5  -1.852040 -6.128303e+00 -7.220435e-01 -1.789143e-02  # CA aromatic DP

Bonds

      1    1       1       2  # B-F
      2    1       1       3  # B-F
      3    1       1       4  # B-F
      4    1       1       5  # B-F
      5    2       6       7  # CA-CA
      6    2       6       8  # CA-CA
      7    2       6       9  # CA-CA
      8    2       7      10  # CA-CA
      9    2       7      12  # CA-CA
     10    2       8      11  # CA-CA
     11    2       8      13  # CA-CA
     12    2       9      14  # CA-CA
     13    2       9      15  # CA-CA
     14    2      10      17  # CA-CA
     15    2      10      19  # CA-CA
     16    2      11      17  # CA-CA
     17    2      11      20  # CA-CA
     18    2      12      16  # CA-CA
     19    2      12      21  # CA-CA
     20    2      13      18  # CA-CA
     21    2      13      22  # CA-CA
     22    2      14      16  # CA-CA
     23    2      14      23  # CA-CA
     24    2      15      18  # CA-CA
     25    2      15      24  # CA-CA
     26    2      16      28  # CA-CA
     27    2      17      25  # CA-CA
     28    2      18      29  # CA-CA
     29    2      19      26  # CA-CA
     30    2      19      31  # CA-CA
     31    2      20      27  # CA-CA
     32    2      20      32  # CA-CA
     33    2      21      26  # CA-CA
     34    2      21      33  # CA-CA
     35    2      22      27  # CA-CA
     36    2      22      34  # CA-CA
     37    2      23      30  # CA-CA
     38    2      23      35  # CA-CA
     39    2      24      30  # CA-CA
     40    2      24      36  # CA-CA
     41    2      25      37  # CA-CA
     42    2      25      38  # CA-CA
     43    2      26      43  # CA-CA
     44    2      27      44  # CA-CA
     45    2      28      39  # CA-CA
     46    2      28      41  # CA-CA
     47    2      29      40  # CA-CA
     48    2      29      42  # CA-CA
     49    3      30      60  # CA-HA
     50    2      31      37  # CA-CA
     51    2      31      45  # CA-CA
     52    2      32      38  # CA-CA
     53    2      32      46  # CA-CA
     54    2      33      39  # CA-CA
     55    2      33      47  # CA-CA
     56    2      34      40  # CA-CA
     57    2      34      48  # CA-CA
     58    2      35      41  # CA-CA
     59    3      35      61  # CA-HA
     60    2      36      42  # CA-CA
     61    3      36      62  # CA-HA
     62    2      37      49  # CA-CA
     63    2      38      50  # CA-CA
     64    3      39      63  # CA-HA
     65    3      40      64  # CA-HA
     66    3      41      65  # CA-HA
     67    3      42      66  # CA-HA
     68    2      43      51  # CA-CA
     69    2      43      53  # CA-CA
     70    2      44      52  # CA-CA
     71    2      44      54  # CA-CA
     72    2      45      51  # CA-CA
     73    2      45      56  # CA-CA
     74    2      46      52  # CA-CA
     75    2      46      57  # CA-CA
     76    2      47      53  # CA-CA
     77    3      47      67  # CA-HA
     78    2      48      54  # CA-CA
     79    3      48      68  # CA-HA
     80    2      49      55  # CA-CA
     81    2      49      58  # CA-CA
     82    2      50      55  # CA-CA
     83    2      50      59  # CA-CA
     84    3      51      69  # CA-HA
     85    3      52      70  # CA-HA
     86    3      53      71  # CA-HA
     87    3      54      72  # CA-HA
     88    3      55      73  # CA-HA
     89    2      56      58  # CA-CA
     90    3      56      74  # CA-HA
     91    2      57      59  # CA-CA
     92    3      57      75  # CA-HA
     93    3      58      76  # CA-HA
     94    3      59      77  # CA-HA
     95    4       6      78  # CA DC-DP
     96    4       7      79  # CA DC-DP
     97    4       8      80  # CA DC-DP
     98    4       9      81  # CA DC-DP
     99    4      10      82  # CA DC-DP
    100    4      11      83  # CA DC-DP
    101    4      12      84  # CA DC-DP
    102    4      13      85  # CA DC-DP
    103    4      14      86  # CA DC-DP
    104    4      15      87  # CA DC-DP
    105    4      16      88  # CA DC-DP
    106    4      17      89  # CA DC-DP
    107    4      18      90  # CA DC-DP
    108    4      19      91  # CA DC-DP
    109    4      20      92  # CA DC-DP
    110    4      21      93  # CA DC-DP
    111    4      22      94  # CA DC-DP
    112    4      23      95  # CA DC-DP
    113    4      24      96  # CA DC-DP
    114    4      25      97  # CA DC-DP
    115    4      26      98  # CA DC-DP
    116    4      27      99  # CA DC-DP
    117    4      28     100  # CA DC-DP
    118    4      29     101  # CA DC-DP
    119    4      30     102  # CA DC-DP
    120    4      31     103  # CA DC-DP
    121    4      32     104  # CA DC-DP
    122    4      33     105  # CA DC-DP
    123    4      34     106  # CA DC-DP
    124    4      35     107  # CA DC-DP
    125    4      36     108  # CA DC-DP
    126    4      37     109  # CA DC-DP
    127    4      38     110  # CA DC-DP
    128    4      39     111  # CA DC-DP
    129    4      40     112  # CA DC-DP
    130    4      41     113  # CA DC-DP
    131    4      42     114  # CA DC-DP
    132    4      43     115  # CA DC-DP
    133    4      44     116  # CA DC-DP
    134    4      45     117  # CA DC-DP
    135    4      46     118  # CA DC-DP
    136    4      47     119  # CA DC-DP
    137    4      48     120  # CA DC-DP
    138    4      49     121  # CA DC-DP
    139    4      50     122  # CA DC-DP
    140    4      51     123  # CA DC-DP
    141    4      52     124  # CA DC-DP
    142    4      53     125  # CA DC-DP
    143    4      54     126  # CA DC-DP
    144    4      55     127  # CA DC-DP
    145    4      56     128  # CA DC-DP
    146    4      57     129  # CA DC-DP
    147    4      58     130  # CA DC-DP
    148    4      59     131  # CA DC-DP

Angles

      1    1       2       1       3  # F-B-F
      2    1       2       1       4  # F-B-F
      3    1       2       1       5  # F-B-F
      4    1       3       1       4  # F-B-F
      5    1       3       1       5  # F-B-F
      6    1       4       1       5  # F-B-F
      7    2       7       6       8  # CA-CA-CA
      8    2       7       6       9  # CA-CA-CA
      9    2       8       6       9  # CA-CA-CA
     10    2       6       7      10  # CA-CA-CA
     11    2       6       7      12  # CA-CA-CA
     12    2      10       7      12  # CA-CA-CA
     13    2       6       8      11  # CA-CA-CA
     14    2       6       8      13  # CA-CA-CA
     15    2      11       8      13  # CA-CA-CA
     16    2       6       9      14  # CA-CA-CA
     17    2       6       9      15  # CA-CA-CA
     18    2      14       9      15  # CA-CA-CA
     19    2       7      10      17  # CA-CA-CA
     20    2       7      10      19  # CA-CA-CA
     21    2      17      10      19  # CA-CA-CA
     22    2       8      11      17  # CA-CA-CA
     23    2       8      11      20  # CA-CA-CA
     24    2      17      11      20  # CA-CA-CA
     25    2       7      12      16  # CA-CA-CA
     26    2       7      12      21  # CA-CA-CA
     27    2      16      12      21  # CA-CA-CA
     28    2       8      13      18  # CA-CA-CA
     29    2       8      13      22  # CA-CA-CA
     30    2      18      13      22  # CA-CA-CA
     31    2       9      14      16  # CA-CA-CA
     32    2       9      14      23  # CA-CA-CA
     33    2      16      14      23  # CA-CA-CA
     34    2       9      15      18  # CA-CA-CA
     35    2       9      15      24  # CA-CA-CA
     36    2      18      15      24  # CA-CA-CA
     37    2      12      16      14  # CA-CA-CA
     38    2      12      16      28  # CA-CA-CA
     39    2      14      16      28  # CA-CA-CA
     40    2      10      17      11  # CA-CA-CA
     41    2      10      17      25  # CA-CA-CA
     42    2      11      17      25  # CA-CA-CA
     43    2      13      18      15  # CA-CA-CA
     44    2      13      18      29  # CA-CA-CA
     45    2      15      18      29  # CA-CA-CA
     46    2      10      19      26  # CA-CA-CA
     47    2      10      19      31  # CA-CA-CA
     48    2      26      19      31  # CA-CA-CA
     49    2      11      20      27  # CA-CA-CA
     50    2      11      20      32  # CA-CA-CA
     51    2      27      20      32  # CA-CA-CA
     52    2      12      21      26  # CA-CA-CA
     53    2      12      21      33  # CA-CA-CA
     54    2      26      21      33  # CA-CA-CA
     55    2      13      22      27  # CA-CA-CA
     56    2      13      22      34  # CA-CA-CA
     57    2      27      22      34  # CA-CA-CA
     58    2      14      23      30  # CA-CA-CA
     59    2      14      23      35  # CA-CA-CA
     60    2      30      23      35  # CA-CA-CA
     61    2      15      24      30  # CA-CA-CA
     62    2      15      24      36  # CA-CA-CA
     63    2      30      24      36  # CA-CA-CA
     64    2      17      25      37  # CA-CA-CA
     65    2      17      25      38  # CA-CA-CA
     66    2      37      25      38  # CA-CA-CA
     67    2      19      26      21  # CA-CA-CA
     68    2      19      26      43  # CA-CA-CA
     69    2      21      26      43  # CA-CA-CA
     70    2      20      27      22  # CA-CA-CA
     71    2      20      27      44  # CA-CA-CA
     72    2      22      27      44  # CA-CA-CA
     73    2      16      28      39  # CA-CA-CA
     74    2      16      28      41  # CA-CA-CA
     75    2      39      28      41  # CA-CA-CA
     76    2      18      29      40  # CA-CA-CA
     77    2      18      29      42  # CA-CA-CA
     78    2      40      29      42  # CA-CA-CA
     79    2      23      30      24  # CA-CA-CA
     80    3      23      30      60  # CA-CA-HA
     81    3      24      30      60  # CA-CA-HA
     82    2      19      31      37  # CA-CA-CA
     83    2      19      31      45  # CA-CA-CA
     84    2      37      31      45  # CA-CA-CA
     85    2      20      32      38  # CA-CA-CA
     86    2      20      32      46  # CA-CA-CA
     87    2      38      32      46  # CA-CA-CA
     88    2      21      33      39  # CA-CA-CA
     89    2      21      33      47  # CA-CA-CA
     90    2      39      33      47  # CA-CA-CA
     91    2      22      34      40  # CA-CA-CA
     92    2      22      34      48  # CA-CA-CA
     93    2      40      34      48  # CA-CA-CA
     94    2      23      35      41  # CA-CA-CA
     95    3      23      35      61  # CA-CA-HA
     96    3      41      35      61  # CA-CA-HA
     97    2      24      36      42  # CA-CA-CA
     98    3      24      36      62  # CA-CA-HA
     99    3      42      36      62  # CA-CA-HA
    100    2      25      37      31  # CA-CA-CA
    101    2      25      37      49  # CA-CA-CA
    102    2      31      37      49  # CA-CA-CA
    103    2      25      38      32  # CA-CA-CA
    104    2      25      38      50  # CA-CA-CA
    105    2      32      38      50  # CA-CA-CA
    106    2      28      39      33  # CA-CA-CA
    107    3      28      39      63  # CA-CA-HA
    108    3      33      39      63  # CA-CA-HA
    109    2      29      40      34  # CA-CA-CA
    110    3      29      40      64  # CA-CA-HA
    111    3      34      40      64  # CA-CA-HA
    112    2      28      41      35  # CA-CA-CA
    113    3      28      41      65  # CA-CA-HA
    114    3      35      41      65  # CA-CA-HA
    115    2      29      42      36  # CA-CA-CA
    116    3      29      42      66  # CA-CA-HA
    117    3      36      42      66  # CA-CA-HA
    118    2      26      43      51  # CA-CA-CA
    119    2      26      43      53  # CA-CA-CA
    120    2      51      43      53  # CA-CA-CA
    121    2      27      44      52  # CA-CA-CA
    122    2      27      44      54  # CA-CA-CA
    123    2      52      44      54  # CA-CA-CA
    124    2      31      45      51  # CA-CA-CA
    125    2      31      45      56  # CA-CA-CA
    126    2      51      45      56  # CA-CA-CA
    127    2      32      46      52  # CA-CA-CA
    128    2      32      46      57  # CA-CA-CA
    129    2      52      46      57  # CA-CA-CA
    130    2      33      47      53  # CA-CA-CA
    131    3      33      47      67  # CA-CA-HA
    132    3      53      47      67  # CA-CA-HA
    133    2      34      48      54  # CA-CA-CA
    134    3      34      48      68  # CA-CA-HA
    135    3      54      48      68  # CA-CA-HA
    136    2      37      49      55  # CA-CA-CA
    137    2      37      49      58  # CA-CA-CA
    138    2      55      49      58  # CA-CA-CA
    139    2      38      50      55  # CA-CA-CA
    140    2      38      50      59  # CA-CA-CA
    141    2      55      50      59  # CA-CA-CA
    142    2      43      51      45  # CA-CA-CA
    143    3      43      51      69  # CA-CA-HA
    144    3      45      51      69  # CA-CA-HA
    145    2      44      52      46  # CA-CA-CA
    146    3      44      52      70  # CA-CA-HA
    147    3      46      52      70  # CA-CA-HA
    148    2      43      53      47  # CA-CA-CA
    149    3      43      53      71  # CA-CA-HA
    150    3      47      53      71  # CA-CA-HA
    151    2      44      54      48  # CA-CA-CA
    152    3      44      54      72  # CA-CA-HA
    153    3      48      54      72  # CA-CA-HA
    154    2      49      55      50  # CA-CA-CA
    155    3      49      55      73  # CA-CA-HA
    156    3      50      55      73  # CA-CA-HA
    157    2      45      56      58  # CA-CA-CA
    158    3      45      56      74  # CA-CA-HA
    159    3      58      56      74  # CA-CA-HA
    160    2      46      57      59  # CA-CA-CA
    161    3      46      57      75  # CA-CA-HA
    162    3      59      57      75  # CA-CA-HA
    163    2      49      58      56  # CA-CA-CA
    164    3      49      58      76  # CA-CA-HA
    165    3      56      58      76  # CA-CA-HA
    166    2      50      59      57  # CA-CA-CA
    167    3      50      59      77  # CA-CA-HA
    168    3      57      59      77  # CA-CA-HA

Dihedrals

      1    1       8       6       7      10  # CA-CA-CA-CA
      2    1       8       6       7      12  # CA-CA-CA-CA
      3    1       9       6       7      10  # CA-CA-CA-CA
      4    1       9       6       7      12  # CA-CA-CA-CA
      5    1       7       6       8      11  # CA-CA-CA-CA
      6    1       7       6       8      13  # CA-CA-CA-CA
      7    1       9       6       8      11  # CA-CA-CA-CA
      8    1       9       6       8      13  # CA-CA-CA-CA
      9    1       7       6       9      14  # CA-CA-CA-CA
     10    1       7       6       9      15  # CA-CA-CA-CA
     11    1       8       6       9      14  # CA-CA-CA-CA
     12    1       8       6       9      15  # CA-CA-CA-CA
     13    1       6       7      10      17  # CA-CA-CA-CA
     14    1       6       7      10      19  # CA-CA-CA-CA
     15    1      12       7      10      17  # CA-CA-CA-CA
     16    1      12       7      10      19  # CA-CA-CA-CA
     17    1       6       7      12      16  # CA-CA-CA-CA
     18    1       6       7      12      21  # CA-CA-CA-CA
     19    1      10       7      12      16  # CA-CA-CA-CA
     20    1      10       7      12      21  # CA-CA-CA-CA
     21    1       6       8      11      17  # CA-CA-CA-CA
     22    1       6       8      11      20  # CA-CA-CA-CA
     23    1      13       8      11      17  # CA-CA-CA-CA
     24    1      13       8      11      20  # CA-CA-CA-CA
     25    1       6       8      13      18  # CA-CA-CA-CA
     26    1       6       8      13      22  # CA-CA-CA-CA
     27    1      11       8      13      18  # CA-CA-CA-CA
     28    1      11       8      13      22  # CA-CA-CA-CA
     29    1       6       9      14      16  # CA-CA-CA-CA
     30    1       6       9      14      23  # CA-CA-CA-CA
     31    1      15       9      14      16  # CA-CA-CA-CA
     32    1      15       9      14      23  # CA-CA-CA-CA
     33    1       6       9      15      18  # CA-CA-CA-CA
     34    1       6       9      15      24  # CA-CA-CA-CA
     35    1      14       9      15      18  # CA-CA-CA-CA
     36    1      14       9      15      24  # CA-CA-CA-CA
     37    1       7      10      17      11  # CA-CA-CA-CA
     38    1       7      10      17      25  # CA-CA-CA-CA
     39    1      19      10      17      11  # CA-CA-CA-CA
     40    1      19      10      17      25  # CA-CA-CA-CA
     41    1       7      10      19      26  # CA-CA-CA-CA
     42    1       7      10      19      31  # CA-CA-CA-CA
     43    1      17      10      19      26  # CA-CA-CA-CA
     44    1      17      10      19      31  # CA-CA-CA-CA
     45    1       8      11      17      10  # CA-CA-CA-CA
     46    1       8      11      17      25  # CA-CA-CA-CA
     47    1      20      11      17      10  # CA-CA-CA-CA
     48    1      20      11      17      25  # CA-CA-CA-CA
     49    1       8      11      20      27  # CA-CA-CA-CA
     50    1       8      11      20      32  # CA-CA-CA-CA
     51    1      17      11      20      27  # CA-CA-CA-CA