
    -----------------------------------------------------------------------
          Psi4: An Open-Source Ab Initio Electronic Structure Package
                               Psi4 1.9 release

                         Git: Rev {} zzzzzzz 


    D. G. A. Smith, L. A. Burns, A. C. Simmonett, R. M. Parrish,
    M. C. Schieber, R. Galvelis, P. Kraus, H. Kruse, R. Di Remigio,
    A. Alenaizan, A. M. James, S. Lehtola, J. P. Misiewicz, M. Scheurer,
    R. A. Shaw, J. B. Schriber, Y. Xie, Z. L. Glick, D. A. Sirianni,
    J. S. O'Brien, J. M. Waldrop, A. Kumar, E. G. Hohenstein,
    B. P. Pritchard, B. R. Brooks, H. F. Schaefer III, A. Yu. Sokolov,
    K. Patkowski, A. E. DePrince III, U. Bozkaya, R. A. King,
    F. A. Evangelista, J. M. Turney, T. D. Crawford, C. D. Sherrill,
    J. Chem. Phys. 152(18) 184108 (2020). https://doi.org/10.1063/5.0006002

                            Additional Code Authors
    E. T. Seidl, C. L. Janssen, E. F. Valeev, M. L. Leininger,
    J. F. Gonthier, R. M. Richard, H. R. McAlexander, M. Saitow, X. Wang,
    P. Verma, M. H. Lechner, A. Jiang, S. Behnle, A. G. Heide,
    M. F. Herbst, and D. L. Poole

             Previous Authors, Complete List of Code Contributors,
                       and Citations for Specific Modules
    https://github.com/psi4/psi4/blob/master/codemeta.json
    https://github.com/psi4/psi4/graphs/contributors
    http://psicode.org/psi4manual/master/introduction.html#citing-psifour

    -----------------------------------------------------------------------


    Psi4 started on: Monday, 22 January 2024 04:49PM

    Process ID: 2411726
    Host:       d-16-12-3
    PSIDATADIR: /home/gridsan/tfroembgen/.conda/envs/psi4test/share/psi4
    Memory:     500.0 MiB
    Threads:    12
    
  ==> Input File <==

--------------------------------------------------------------------------
memory 32 GB # how much memory is available ! Depends on the nodes/cores !

molecule dimer {
# monomer A
+1 1    # Charge and multiplicity
C  0.680067 -1.215929 4.408042
C -0.680504 -1.215545 4.406014
N -1.085635  0.102779 4.405016
C  0.000108  0.884180 4.401740
C -2.477365  0.570758 4.355610
N  1.085222  0.102779 4.405016
H  1.385146 -2.033368 4.415870
H -1.385302 -2.033214 4.406204
H -0.000009  1.965269 4.399993
C  2.478117  0.567877 4.421908
H  2.490592  1.658130 4.394563
H  2.967028  0.220701 5.335354
H  3.001428  0.176405 3.546425
H -2.857359  0.490799 3.333539
H -3.082679 -0.042306 5.025694
H -2.518128  1.610706 4.682594
--
# monomer B
0 1     # Charge and multiplicity
C   1.22531237526482      0.70753866091955      0.00613762728373
C   1.22532433589282     -0.70753852257020     -0.00619318228664
C   -0.00000567409046      1.41496628609039     -0.00672680580738
C   2.45644923379077      1.41832825917820      0.00902448468363
C   0.00001130712078     -1.41497612663474      0.00347275151708
C   -1.22530046906674      0.70754574598412      0.00838914760619
C   2.45643823516184     -1.41832293188077     -0.00843833914343
C   -0.00000085313587      2.83680140328112     -0.00913035594137
C   3.68182717731192      0.70931832800114     -0.00808954934571
C   2.45512052870677      2.83422403348893     -0.00819210630633
C   3.68182158506039     -0.70933346742900      0.00798293467272
C   -1.22531311884624     -0.70752714354401     -0.00512042085974
C   1.22670006104402      3.54346985599427      0.00816696660346
C   0.00000526469929     -2.83678176723568      0.00832091913869
C   -2.45643555300670      1.41831729028492      0.00842454345199
C   2.45512389762097     -2.83422965658853      0.00783102630520
C   -1.22671388474763      3.54346943575023      0.00827029982280
C   4.91451777504333      1.42717324448953     -0.00160886631602
C   3.69315067131765      3.54279566454522     -0.00155906667985
C   -2.45643712022637     -1.41831290883911     -0.00846337726810
C   1.22670532178455     -3.54347386990643     -0.00780316414624
C   -2.45512491866593      2.83421703463423     -0.00818572995999
C   4.91452486062398     -1.42718653794377      0.00136387641845
C   1.22142509354026      4.97013443726031      0.00150231067809
C   4.89300870916237      2.82518837202648     -0.00039219795739
C   -1.22669652864725     -3.54347062507680     -0.00753595973677
C   -3.68181849668397      0.70932533873199     -0.00807686886569
C   3.69314758099218     -3.54280096939050      0.00148176697923
C   -1.22143177215231      4.97012866986289      0.00168580605083
C   6.13477145276790      0.68054831910577     -0.00083909176631
C   3.65678936045204      4.97295361556775     -0.00065042889723
C   -2.45512642789169     -2.83421472106065      0.00758666850712
C   -3.68181869921921     -0.70932533146830      0.00810055625144
C   4.89301309775526     -2.82519973363176      0.00021895393805
C   -0.00000059327114      5.65044773803267      0.00045449734393
C   6.13477559217374     -0.68055448207492      0.00042622874941
C   2.47813196269732      5.65357712333155      0.00063835075260
C   1.22142288457925     -4.97012668293268     -0.00129718634452
C   -3.69316190412301      3.54279732619245     -0.00139355922051
C   -1.22142804110313     -4.97011793159564     -0.00140994817719
C   -4.91452132810043      1.42717581899491     -0.00153192130862
C   3.65678749952045     -4.97295485423912      0.00080007163680
C   -2.47813805026426      5.65357479452875      0.00092287576113
C   -3.69314125872231     -3.54278984697859      0.00136564082345
C   -4.91451200321153     -1.42718062802730      0.00139857359209
C   -0.00000552908399     -5.65043791501335      0.00005899322272
C   -4.89302000425900      2.82518897091939     -0.00040227981744
C   2.47812647313991     -5.65357317188818     -0.00029052915548
C   -3.65679823041642      4.97295655404175     -0.00047374852278
C   -4.89299899901461     -2.82519139505969      0.00006491824035
C   -2.47812801824129     -5.65356579800621     -0.00056571680280
C   -6.13477002348955      0.68054913825639     -0.00086464346868
C   -3.65678835334731     -4.97294365097028      0.00058578382008
C   -6.13476456307132     -0.68055354348201      0.00040575295444
H   5.83528897565761      3.36927626695423      0.00396712770529
H   7.07385965258860      1.22821762089947     -0.00037744837300
H   4.60066374401555      5.51238117445323     -0.00014522814529
H   5.83528386714679     -3.36930568472863     -0.00423551337640
H   -0.00001167146422      6.73853104613662     -0.00389474766392
H   7.07386165167227     -1.22822657074368     -0.00008250934481
H   2.47331421164041      6.74068466339473      0.00017162982210
H   4.60066897122302     -5.51237575717576      0.00039007446835
H   -2.47331820069565      6.74068209160650      0.00047297644710
H   -0.00000978838621     -6.73852780445195      0.00458867820736
H   -5.83530143450167      3.36927132229595      0.00410314985360
H   2.47330840367253     -6.74068500242887      0.00027980126949
H   -4.60067436136587      5.51237839860371      0.00002010017831
H   -5.83527902699321     -3.36928859177951     -0.00451481925734
H   -2.47329986759855     -6.74067870613986     -0.00016951527498
H   -7.07385728692578      1.22822084484047     -0.00046143985387
H   -4.60067330624313     -5.51236229778631      0.00021776644566
H   -7.07385645456741     -1.22822025997701     -0.00017736581114

    units angstrom      # Angstroms are the default
    no_reorient         # Geometry fixed, default
    symmetry c1         # C1 symmetry, default
}

set {
    scf_type DF         # Density fitting, faster than exact integrals
    freeze_core True    # Freeze core electrons
    basis jun-cc-pVDZ   # Jun-cc-pVDZ basis set, recommended for sSAPT0 in https://doi.org/10.1063/1.4867135
}

energy('ssapt0')        # Compute sSAPT0 energy, includes also SAPT0
--------------------------------------------------------------------------

  Memory set to  29.802 GiB by Python driver.

Scratch directory: /state/partition1/slurm_tmp/24798242.4294967291.0/
   => Loading Basis Set <=

    Name: JUN-CC-PVDZ
    Role: ORBITAL
    Keyword: BASIS
    atoms 1-2, 4-5, 10, 17-70 entry C          line   164 file /home/gridsan/tfroembgen/.conda/envs/psi4test/share/psi4/basis/jun-cc-pvdz.gbs 
    atoms 3, 6                entry N          line   198 file /home/gridsan/tfroembgen/.conda/envs/psi4test/share/psi4/basis/jun-cc-pvdz.gbs 
    atoms 7-9, 11-16, 71-88   entry H          line    36 file /home/gridsan/tfroembgen/.conda/envs/psi4test/share/psi4/basis/jun-cc-pvdz.gbs 

   => Loading Basis Set <=

    Name: JUN-CC-PVDZ
    Role: ORBITAL
    Keyword: BASIS
    atoms 1-2, 4-5, 10, 17-70 entry C          line   164 file /home/gridsan/tfroembgen/.conda/envs/psi4test/share/psi4/basis/jun-cc-pvdz.gbs 
    atoms 3, 6                entry N          line   198 file /home/gridsan/tfroembgen/.conda/envs/psi4test/share/psi4/basis/jun-cc-pvdz.gbs 
    atoms 7-9, 11-16, 71-88   entry H          line    36 file /home/gridsan/tfroembgen/.conda/envs/psi4test/share/psi4/basis/jun-cc-pvdz.gbs 


  //>>>>>>>>>>>>>>>>>>>>>>>>>>>>>>>>>>>//
  //              Dimer HF             //
  //<<<<<<<<<<<<<<<<<<<<<<<<<<<<<<<<<<<//

   => Libint2 <=

    Primary   basis highest AM E, G, H:  7, 7, 4
    Auxiliary basis highest AM E, G, H:  7, 7, 5
    Onebody   basis highest AM E, G, H:  7, 7, 5
    Solid Harmonics ordering:            gaussian

*** tstart() called on d-16-12-3
*** at Mon Jan 22 16:49:36 2024

   => Loading Basis Set <=

    Name: JUN-CC-PVDZ
    Role: ORBITAL
    Keyword: BASIS
    atoms 1-2, 4-5, 10, 17-70 entry C          line   164 file /home/gridsan/tfroembgen/.conda/envs/psi4test/share/psi4/basis/jun-cc-pvdz.gbs 
    atoms 3, 6                entry N          line   198 file /home/gridsan/tfroembgen/.conda/envs/psi4test/share/psi4/basis/jun-cc-pvdz.gbs 
    atoms 7-9, 11-16, 71-88   entry H          line    36 file /home/gridsan/tfroembgen/.conda/envs/psi4test/share/psi4/basis/jun-cc-pvdz.gbs 


         ---------------------------------------------------------
                                   SCF
               by Justin Turney, Rob Parrish, Andy Simmonett
                          and Daniel G. A. Smith
                              RHF Reference
                       12 Threads,  30517 MiB Core
         ---------------------------------------------------------

  ==> Geometry <==

    Molecular point group: c1
    Full point group: C1

    Geometry (in Angstrom), charge = 1, multiplicity = 1:

       Center              X                  Y                   Z               Mass       
    ------------   -----------------  -----------------  -----------------  -----------------
         C            0.680066520158    -1.215933861162     3.848391177522    12.000000000000
         C           -0.680504479842    -1.215549861162     3.846363177522    12.000000000000
         N           -1.085635479842     0.102774138838     3.845365177522    14.003074004430
         C            0.000107520158     0.884175138838     3.842089177522    12.000000000000
         C           -2.477365479842     0.570753138838     3.795959177522    12.000000000000
         N            1.085221520158     0.102774138838     3.845365177522    14.003074004430
         H            1.385145520158    -2.033372861162     3.856219177522     1.007825032230
         H           -1.385302479842    -2.033218861162     3.846553177522     1.007825032230
         H           -0.000009479842     1.965264138838     3.840342177522     1.007825032230
         C            2.478116520158     0.567872138838     3.862257177522    12.000000000000
         H            2.490591520158     1.658125138838     3.834912177522     1.007825032230
         H            2.967027520158     0.220696138838     4.775703177522     1.007825032230
         H            3.001427520158     0.176400138838     2.986774177522     1.007825032230
         H           -2.857359479842     0.490794138838     2.773888177522     1.007825032230
         H           -3.082679479842    -0.042310861162     4.466043177522     1.007825032230
         H           -2.518128479842     1.610701138838     4.122943177522     1.007825032230
         C            1.225311895423     0.707533799757    -0.553513195194    12.000000000000
         C            1.225323856051    -0.707543383733    -0.565844004764    12.000000000000
         C           -0.000006153932     1.414961424928    -0.566377628285    12.000000000000
         C            2.456448753949     1.418323398016    -0.550626337794    12.000000000000
         C            0.000010827279    -1.414980987797    -0.556178070961    12.000000000000
         C           -1.225300948908     0.707540884822    -0.551261674872    12.000000000000
         C            2.456437755320    -1.418327793043    -0.568089161621    12.000000000000
         C           -0.000001332978     2.836796542119    -0.568781178419    12.000000000000
         C            3.681826697470     0.709313466839    -0.567740371823    12.000000000000
         C            2.455120048865     2.834219172327    -0.567842928784    12.000000000000
         C            3.681821105219    -0.709338328591    -0.551667887805    12.000000000000
         C           -1.225313598688    -0.707532004706    -0.564771243337    12.000000000000
         C            1.226699581202     3.543464994832    -0.551483855874    12.000000000000
         C            0.000004784858    -2.836786628398    -0.551329903339    12.000000000000
         C           -2.456436032848     1.418312429123    -0.551226279026    12.000000000000
         C            2.455123417779    -2.834234517751    -0.551819796173    12.000000000000
         C           -1.226714364589     3.543464574588    -0.551380522655    12.000000000000
         C            4.914517295202     1.427168383327    -0.561259688794    12.000000000000
         C            3.693150191476     3.542790803383    -0.561209889158    12.000000000000
         C           -2.456437600068    -1.418317770001    -0.568114199746    12.000000000000
         C            1.226704841943    -3.543478731069    -0.567453986624    12.000000000000
         C           -2.455125398508     2.834212173472    -0.567836552438    12.000000000000
         C            4.914524380782    -1.427191399106    -0.558286946059    12.000000000000
         C            1.221424613699     4.970129576098    -0.558148511800    12.000000000000
         C            4.893008229321     2.825183510864    -0.560043020435    12.000000000000
         C           -1.226697008489    -3.543475486239    -0.567186782214    12.000000000000
         C           -3.681818976526     0.709320477570    -0.567727691343    12.000000000000
         C            3.693147101150    -3.542805830553    -0.558169055498    12.000000000000
         C           -1.221432251994     4.970123808701    -0.557965016427    12.000000000000
         C            6.134770972926     0.680543457943    -0.560489914244    12.000000000000
         C            3.656788880610     4.972948754405    -0.560301251375    12.000000000000
         C           -2.455126907733    -2.834219582223    -0.552064153971    12.000000000000
         C           -3.681819179061    -0.709330192631    -0.551550266226    12.000000000000
         C            4.893012617914    -2.825204594794    -0.559431868540    12.000000000000
         C           -0.000001073113     5.650442876870    -0.559196325134    12.000000000000
         C            6.134775112332    -0.680559343237    -0.559224593728    12.000000000000
         C            2.478131482856     5.653572262169    -0.559012471725    12.000000000000
         C            1.221422404738    -4.970131544095    -0.560948008822    12.000000000000
         C           -3.693162383965     3.542792465030    -0.561044381698    12.000000000000
         C           -1.221428520945    -4.970122792758    -0.561060770655    12.000000000000
         C           -4.914521807942     1.427170957833    -0.561182743786    12.000000000000
         C            3.656787019679    -4.972959715401    -0.558850750841    12.000000000000
         C           -2.478138530106     5.653569933366    -0.558727946717    12.000000000000
         C           -3.693141738564    -3.542794708141    -0.558285181654    12.000000000000
         C           -4.914512483053    -1.427185489190    -0.558252248886    12.000000000000
         C           -0.000006008926    -5.650442776176    -0.559591829255    12.000000000000
         C           -4.893020484101     2.825184109757    -0.560053102295    12.000000000000
         C            2.478125993298    -5.653578033051    -0.559941351633    12.000000000000
         C           -3.656798710258     4.972951692879    -0.560124571000    12.000000000000
         C           -4.892999478856    -2.825196256222    -0.559585904237    12.000000000000
         C           -2.478128498083    -5.653570659169    -0.560216539281    12.000000000000
         C           -6.134770503331     0.680544277094    -0.560515465946    12.000000000000
         C           -3.656788833189    -4.972948512133    -0.559065038658    12.000000000000
         C           -6.134765042913    -0.680558404644    -0.559245069523    12.000000000000
         H            5.835288495816     3.369271405792    -0.555683694772     1.007825032230
         H            7.073859172747     1.228212759737    -0.560028270851     1.007825032230
         H            4.600663264174     5.512376313291    -0.559796050623     1.007825032230
         H            5.835283387305    -3.369310545891    -0.563886335854     1.007825032230
         H           -0.000012151306     6.738526184974    -0.563545570142     1.007825032230
         H            7.073861171831    -1.228231431906    -0.559733331823     1.007825032230
         H            2.473313731799     6.740679802232    -0.559479192656     1.007825032230
         H            4.600668491381    -5.512380618338    -0.559260748009     1.007825032230
         H           -2.473318680537     6.740677230444    -0.559177846031     1.007825032230
         H           -0.000010268228    -6.738532665614    -0.555062144270     1.007825032230
         H           -5.835301914343     3.369266461134    -0.555547672624     1.007825032230
         H            2.473307923831    -6.740689863591    -0.559371021208     1.007825032230
         H           -4.600674841208     5.512373537441    -0.559630722299     1.007825032230
         H           -5.835279506835    -3.369293452942    -0.564165641735     1.007825032230
         H           -2.473300347440    -6.740683567302    -0.559820337753     1.007825032230
         H           -7.073857766768     1.228215983678    -0.560112262332     1.007825032230
         H           -4.600673786085    -5.512367158949    -0.559433056032     1.007825032230
         H           -7.073856934409    -1.228225121139    -0.559828188289     1.007825032230

  Running in c1 symmetry.

  Rotational constants: A =      0.00181  B =      0.00178  C =      0.00109 [cm^-1]
  Rotational constants: A =     54.24520  B =     53.26383  C =     32.56832 [MHz]
  Nuclear repulsion = 8256.893676136958675

  Charge       = 1
  Multiplicity = 1
  Electrons    = 394
  Nalpha       = 197
  Nbeta        = 197

  ==> Algorithm <==

  SCF Algorithm Type is DF.
  DIIS enabled.
  MOM disabled.
  Fractional occupation disabled.
  Guess Type is SAD.
  Energy threshold   = 1.00e-08
  Density threshold  = 1.00e-08
  Integral threshold = 1.00e-12

  ==> Primary Basis <==

  Basis Set: JUN-CC-PVDZ
    Blend: JUN-CC-PVDZ
    Number of shells: 569
    Number of basis functions: 1233
    Number of Cartesian functions: 1294
    Spherical Harmonics?: true
    Max angular momentum: 2

   => Loading Basis Set <=

    Name: (JUN-CC-PVDZ AUX)
    Role: JKFIT
    Keyword: DF_BASIS_SCF
    atoms 1-2, 4-5, 10, 17-70 entry C          line   146 file /home/gridsan/tfroembgen/.conda/envs/psi4test/share/psi4/basis/jun-cc-pvdz-jkfit.gbs 
    atoms 3, 6                entry N          line   202 file /home/gridsan/tfroembgen/.conda/envs/psi4test/share/psi4/basis/jun-cc-pvdz-jkfit.gbs 
    atoms 7-9, 11-16, 71-88   entry H          line    70 file /home/gridsan/tfroembgen/.conda/envs/psi4test/share/psi4/basis/jun-cc-pvdz-jkfit.gbs 

  ==> Integral Setup <==

  ==> DiskDFJK: Density-Fitted J/K Matrices <==

    J tasked:                  Yes
    K tasked:                  Yes
    wK tasked:                  No
    OpenMP threads:             12
    Integrals threads:          12
    Memory [MiB]:            22888
    Algorithm:                Disk
    Integral Cache:           SAVE
    Schwarz Cutoff:          1E-12
    Fitting Condition:       1E-10

   => Auxiliary Basis Set <=

  Basis Set: (JUN-CC-PVDZ AUX)
    Blend: JUN-CC-PVDZ-JKFIT
    Number of shells: 1890
    Number of basis functions: 5440
    Number of Cartesian functions: 6226
    Spherical Harmonics?: true
    Max angular momentum: 3

  Minimum eigenvalue in the overlap matrix is 7.7563179538E-10.
  Reciprocal condition number of the overlap matrix is 3.2921970323E-11.
    Using canonical orthogonalization.
  Overall, 14 of 1233 possible MOs eliminated.


  ==> Pre-Iterations <==

  SCF Guess: Superposition of Atomic Densities via on-the-fly atomic UHF (no occupation information).

   -------------------------
    Irrep   Nso     Nmo    
   -------------------------
     A       1233    1219 
   -------------------------
    Total    1233    1219
   -------------------------

  ==> Iterations <==

                           Total Energy        Delta E     RMS |[F,P]|

   @DF-RHF iter SAD: -2365.47572903000400   -2.36548e+03   0.00000e+00 
   @DF-RHF iter   1: -2358.21120832202269    7.26452e+00   9.45284e-04 ADIIS/DIIS
   @DF-RHF iter   2: -2359.10424339974588   -8.93035e-01   3.22998e-04 ADIIS/DIIS
   @DF-RHF iter   3: -2359.19530252078630   -9.10591e-02   1.19923e-04 ADIIS/DIIS
   @DF-RHF iter   4: -2359.20867472895134   -1.33722e-02   4.43608e-05 DIIS
   @DF-RHF iter   5: -2359.21058878650274   -1.91406e-03   1.07103e-05 DIIS
   @DF-RHF iter   6: -2359.21077353798864   -1.84751e-04   5.25041e-06 DIIS
   @DF-RHF iter   7: -2359.21084503169777   -7.14937e-05   2.31992e-06 DIIS
   @DF-RHF iter   8: -2359.21086616898810   -2.11373e-05   1.13350e-06 DIIS
   @DF-RHF iter   9: -2359.21087146775653   -5.29877e-06   2.77445e-07 DIIS
   @DF-RHF iter  10: -2359.21087173208616   -2.64330e-07   9.77093e-08 DIIS
   @DF-RHF iter  11: -2359.21087175171533   -1.96292e-08   4.21259e-08 DIIS
   @DF-RHF iter  12: -2359.21087175570619   -3.99086e-09   2.36720e-08 DIIS
   @DF-RHF iter  13: -2359.21087175678440   -1.07821e-09   6.72625e-09 DIIS
  Energy and wave function converged.


  ==> Post-Iterations <==

    Orbital Energies [Eh]
    ---------------------

    Doubly Occupied:                                                      

       1A    -15.808271     2A    -15.807703     3A    -11.503358  
       4A    -11.433884     5A    -11.432332     6A    -11.424470  
       7A    -11.423760     8A    -11.339903     9A    -11.339386  
      10A    -11.339115    11A    -11.338300    12A    -11.338235  
      13A    -11.337492    14A    -11.336564    15A    -11.336300  
      16A    -11.336237    17A    -11.335764    18A    -11.335674  
      19A    -11.334616    20A    -11.334110    21A    -11.333905  
      22A    -11.333865    23A    -11.333719    24A    -11.333058  
      25A    -11.333008    26A    -11.332928    27A    -11.332884  
      28A    -11.332686    29A    -11.332615    30A    -11.332286  
      31A    -11.332115    32A    -11.332094    33A    -11.331987  
      34A    -11.331828    35A    -11.331787    36A    -11.331774  
      37A    -11.331697    38A    -11.331661    39A    -11.331623  
      40A    -11.331095    41A    -11.331075    42A    -11.330461  
      43A    -11.330406    44A    -11.324913    45A    -11.324767  
      46A    -11.324459    47A    -11.324079    48A    -11.324070  
      49A    -11.323285    50A    -11.323120    51A    -11.323053  
      52A    -11.322994    53A    -11.322949    54A    -11.321785  
      55A    -11.321769    56A    -11.321680    57A    -11.321614  
      58A    -11.321557    59A    -11.321512    60A    -11.320335  
      61A    -11.320321    62A     -1.551470    63A     -1.407238  
      64A     -1.321584    65A     -1.295864    66A     -1.295304  
      67A     -1.264236    68A     -1.264157    69A     -1.256884  
      70A     -1.231030    71A     -1.223323    72A     -1.212275  
      73A     -1.211132    74A     -1.210681    75A     -1.186466  
      76A     -1.186443    77A     -1.163197    78A     -1.157356  
      79A     -1.157332    80A     -1.153495    81A     -1.138887  
      82A     -1.138885    83A     -1.113105    84A     -1.100056  
      85A     -1.097629    86A     -1.097322    87A     -1.093105  
      88A     -1.090825    89A     -1.085293    90A     -1.061606  
      91A     -1.061483    92A     -1.035104    93A     -1.035058  
      94A     -0.996231    95A     -0.970761    96A     -0.967941  
      97A     -0.967844    98A     -0.963506    99A     -0.961515  
     100A     -0.961284   101A     -0.956033   102A     -0.955967  
     103A     -0.935041   104A     -0.909062   105A     -0.891711  
     106A     -0.891554   107A     -0.891143   108A     -0.886562  
     109A     -0.886359   110A     -0.867214   111A     -0.867179  
     112A     -0.824060   113A     -0.821601   114A     -0.819404  
     115A     -0.807958   116A     -0.807707   117A     -0.804829  
     118A     -0.804752   119A     -0.790465   120A     -0.790289  
     121A     -0.786979   122A     -0.772282   123A     -0.771998  
     124A     -0.767407   125A     -0.767123   126A     -0.764149  
     127A     -0.760345   128A     -0.755950   129A     -0.733644  
     130A     -0.726974   131A     -0.725759   132A     -0.722517  
     133A     -0.722469   134A     -0.712327   135A     -0.712158  
     136A     -0.704391   137A     -0.703510   138A     -0.701401  
     139A     -0.701348   140A     -0.700598   141A     -0.691502  
     142A     -0.685051   143A     -0.675948   144A     -0.675834  
     145A     -0.672582   146A     -0.672239   147A     -0.667767  
     148A     -0.666241   149A     -0.665982   150A     -0.656409  
     151A     -0.653396   152A     -0.652538   153A     -0.640274  
     154A     -0.640040   155A     -0.639240   156A     -0.639142  
     157A     -0.632712   158A     -0.626983   159A     -0.626779  
     160A     -0.613331   161A     -0.613219   162A     -0.610850  
     163A     -0.610832   164A     -0.604868   165A     -0.602884  
     166A     -0.596054   167A     -0.595776   168A     -0.572514  
     169A     -0.570337   170A     -0.568527   171A     -0.565683  
     172A     -0.562279   173A     -0.559097   174A     -0.555095  
     175A     -0.555002   176A     -0.546745   177A     -0.546207  
     178A     -0.526035   179A     -0.525791   180A     -0.512118  
     181A     -0.512098   182A     -0.497246   183A     -0.480380  
     184A     -0.480236   185A     -0.478837   186A     -0.447950  
     187A     -0.447819   188A     -0.423292   189A     -0.415203  
     190A     -0.414232   191A     -0.413634   192A     -0.384536  
     193A     -0.369594   194A     -0.360214   195A     -0.360155  
     196A     -0.298800   197A     -0.298660  

    Virtual:                                                              

     198A     -0.059943   199A     -0.059766   200A     -0.051820  
     201A     -0.036723   202A     -0.032912   203A     -0.030011  
     204A     -0.017646   205A     -0.014345   206A     -0.010678  
     207A     -0.010575   208A     -0.009485   209A     -0.007788  
     210A     -0.005598   211A     -0.000135   212A      0.000430  
     213A      0.001324   214A      0.002112   215A      0.003843  
     216A      0.005496   217A      0.012476   218A      0.013093  
     219A      0.013778   220A      0.016610   221A      0.017156  
     222A      0.017532   223A      0.018777   224A      0.018997  
     225A      0.020460   226A      0.022156   227A      0.023501  
     228A      0.025535   229A      0.029162   230A      0.030504  
     231A      0.034867   232A      0.034970   233A      0.040461  
     234A      0.044751   235A      0.045720   236A      0.047853  
     237A      0.048504   238A      0.049944   239A      0.052085  
     240A      0.052501   241A      0.052581   242A      0.053531  
     243A      0.055772   244A      0.057600   245A      0.059620  
     246A      0.060549   247A      0.062142   248A      0.069480  
     249A      0.070448   250A      0.073074   251A      0.075904  
     252A      0.077211   253A      0.077491   254A      0.079905  
     255A      0.080457   256A      0.082683   257A      0.085439  
     258A      0.086897   259A      0.089926   260A      0.090864  
     261A      0.092764   262A      0.093828   263A      0.096288  
     264A      0.101073   265A      0.102774   266A      0.103047  
     267A      0.106125   268A      0.108278   269A      0.109909  
     270A      0.111712   271A      0.112192   272A      0.113518  
     273A      0.115018   274A      0.116749   275A      0.119145  
     276A      0.121716   277A      0.121812   278A      0.123331  
     279A      0.125031   280A      0.127262   281A      0.128580  
     282A      0.129164   283A      0.132724   284A      0.134843  
     285A      0.136843   286A      0.140515   287A      0.143259  
     288A      0.144958   289A      0.146427   290A      0.149038  
     291A      0.149113   292A      0.149577   293A      0.151018  
     294A      0.151215   295A      0.152056   296A      0.152161  
     297A      0.152640   298A      0.153186   299A      0.156116  
     300A      0.159703   301A      0.161424   302A      0.162489  
     303A      0.163812   304A      0.165349   305A      0.165556  
     306A      0.169005   307A      0.169520   308A      0.171213  
     309A      0.171802   310A      0.172637   311A      0.173963  
     312A      0.175972   313A      0.177403   314A      0.179401  
     315A      0.182232   316A      0.185939   317A      0.186869  
     318A      0.189595   319A      0.190646   320A      0.190797  
     321A      0.192320   322A      0.192664   323A      0.193985  
     324A      0.196164   325A      0.198549   326A      0.199934  
     327A      0.200325   328A      0.201392   329A      0.202891  
     330A      0.206698   331A      0.207699   332A      0.207846  
     333A      0.208398   334A      0.209440   335A      0.210521  
     336A      0.212456   337A      0.215930   338A      0.216297  
     339A      0.221126   340A      0.223798   341A      0.226590  
     342A      0.228275   343A      0.228702   344A      0.230852  
     345A      0.232368   346A      0.234404   347A      0.235591  
     348A      0.235813   349A      0.239411   350A      0.241108  
     351A      0.241971   352A      0.242531   353A      0.243139  
     354A      0.243855   355A      0.246527   356A      0.248013  
     357A      0.248269   358A      0.248887   359A      0.249051  
     360A      0.251020   361A      0.252482   362A      0.252773  
     363A      0.255855   364A      0.256020   365A      0.257265  
     366A      0.259797   367A      0.260966   368A      0.264278  
     369A      0.264907   370A      0.266712   371A      0.269398  
     372A      0.271027   373A      0.273189   374A      0.274640  
     375A      0.275211   376A      0.276059   377A      0.278419  
     378A      0.280726   379A      0.282945   380A      0.283082  
     381A      0.285584   382A      0.287105   383A      0.288084  
     384A      0.289109   385A      0.289879   386A      0.290872  
     387A      0.291884   388A      0.295668   389A      0.297491  
     390A      0.300030   391A      0.300876   392A      0.301704  
     393A      0.303027   394A      0.305124   395A      0.306602  
     396A      0.307675   397A      0.311412   398A      0.312102  
     399A      0.315073   400A      0.317040   401A      0.318153  
     402A      0.319388   403A      0.319640   404A      0.320923  
     405A      0.321830   406A      0.324035   407A      0.325653  
     408A      0.327704   409A      0.329759   410A      0.331675  
     411A      0.332751   412A      0.334058   413A      0.334635  
     414A      0.335173   415A      0.336541   416A      0.338031  
     417A      0.338367   418A      0.339782   419A      0.341145  
     420A      0.341541   421A      0.342483   422A      0.343845  
     423A      0.345544   424A      0.346690   425A      0.347403  
     426A      0.347603   427A      0.349357   428A      0.352111  
     429A      0.353537   430A      0.354366   431A      0.354913  
     432A      0.361503   433A      0.364569   434A      0.365231  
     435A      0.367486   436A      0.370695   437A      0.371606  
     438A      0.371939   439A      0.373032   440A      0.375627  
     441A      0.376525   442A      0.378493   443A      0.379397  
     444A      0.383082   445A      0.384029   446A      0.385808  
     447A      0.387580   448A      0.387805   449A      0.388803  
     450A      0.389231   451A      0.389935   452A      0.393762  
     453A      0.396121   454A      0.397059   455A      0.398775  
     456A      0.398927   457A      0.403128   458A      0.407493  
     459A      0.410039   460A      0.410755   461A      0.411279  
     462A      0.411811   463A      0.414765   464A      0.415947  
     465A      0.419818   466A      0.419835   467A      0.423136  
     468A      0.424799   469A      0.425005   470A      0.427114  
     471A      0.427508   472A      0.428168   473A      0.430571  
     474A      0.432112   475A      0.433285   476A      0.436396  
     477A      0.441237   478A      0.442714   479A      0.446438  
     480A      0.448563   481A      0.449967   482A      0.450827  
     483A      0.452517   484A      0.454157   485A      0.455388  
     486A      0.457988   487A      0.460734   488A      0.464524  
     489A      0.465636   490A      0.469951   491A      0.473378  
     492A      0.477723   493A      0.478256   494A      0.479737  
     495A      0.480820   496A      0.482378   497A      0.482841  
     498A      0.484361   499A      0.486064   500A      0.486438  
     501A      0.487557   502A      0.488605   503A      0.492017  
     504A      0.492191   505A      0.494816   506A      0.500371  
     507A      0.503051   508A      0.517522   509A      0.519974  
     510A      0.524050   511A      0.525064   512A      0.525708  
     513A      0.527218   514A      0.529707   515A      0.541826  
     516A      0.545571   517A      0.548605   518A      0.550258  
     519A      0.552773   520A      0.554835   521A      0.555369  
     522A      0.569411   523A      0.569938   524A      0.579330  
     525A      0.582532   526A      0.584739   527A      0.595374  
     528A      0.597639   529A      0.599652   530A      0.605128  
     531A      0.605238   532A      0.613861   533A      0.643786  
     534A      0.643833   535A      0.666398   536A      0.668426  
     537A      0.671364   538A      0.672169   539A      0.673132  
     540A      0.673786   541A      0.679244   542A      0.684547  
     543A      0.685335   544A      0.699252   545A      0.700345  
     546A      0.711191   547A      0.713371   548A      0.717615  
     549A      0.719076   550A      0.727080   551A      0.729558  
     552A      0.732619   553A      0.735056   554A      0.735508  
     555A      0.741813   556A      0.746191   557A      0.748572  
     558A      0.752487   559A      0.754302   560A      0.757271  
     561A      0.757974   562A      0.763067   563A      0.766914  
     564A      0.768108   565A      0.772224   566A      0.775375  
     567A      0.780308   568A      0.784131   569A      0.786444  
     570A      0.791112   571A      0.792774   572A      0.793211  
     573A      0.794663   574A      0.797223   575A      0.802103  
     576A      0.804544   577A      0.807265   578A      0.808131  
     579A      0.813727   580A      0.815591   581A      0.817752  
     582A      0.819406   583A      0.822433   584A      0.823509  
     585A      0.826481   586A      0.828700   587A      0.828894  
     588A      0.832648   589A      0.836124   590A      0.839201  
     591A      0.841033   592A      0.841925   593A      0.844725  
     594A      0.846156   595A      0.846890   596A      0.848206  
     597A      0.851886   598A      0.854360   599A      0.855921  
     600A      0.857354   601A      0.858766   602A      0.860037  
     603A      0.862665   604A      0.867350   605A      0.868296  
     606A      0.869685   607A      0.871711   608A      0.874996  
     609A      0.876067   610A      0.879202   611A      0.881282  
     612A      0.886029   613A      0.888356   614A      0.896729  
     615A      0.897331   616A      0.898903   617A      0.899756  
     618A      0.900936   619A      0.901886   620A      0.905030  
     621A      0.906937   622A      0.908058   623A      0.909374  
     624A      0.909844   625A      0.913494   626A      0.915729  
     627A      0.919119   628A      0.924690   629A      0.925878  
     630A      0.929220   631A      0.932475   632A      0.934027  
     633A      0.935543   634A      0.937849   635A      0.943515  
     636A      0.948039   637A      0.949875   638A      0.950175  
     639A      0.950503   640A      0.954742   641A      0.957899  
     642A      0.960506   643A      0.961125   644A      0.963009  
     645A      0.965021   646A      0.967658   647A      0.970537  
     648A      0.970884   649A      0.972141   650A      0.973195  
     651A      0.974204   652A      0.977444   653A      0.977600  
     654A      0.978706   655A      0.980892   656A      0.983724  
     657A      0.984816   658A      0.987180   659A      0.989013  
     660A      0.990548   661A      0.993714   662A      0.995261  
     663A      0.997122   664A      0.998769   665A      1.001424  
     666A      1.002914   667A      1.006057   668A      1.007547  
     669A      1.009810   670A      1.014181   671A      1.015342  
     672A      1.017026   673A      1.017833   674A      1.020687  
     675A      1.021707   676A      1.024229   677A      1.027311  
     678A      1.030464   679A      1.030751   680A      1.033533  
     681A      1.034552   682A      1.039280   683A      1.039543  
     684A      1.043414   685A      1.045314   686A      1.045919  
     687A      1.048687   688A      1.048884   689A      1.051019  
     690A      1.052796   691A      1.056023   692A      1.058170  
     693A      1.060828   694A      1.064167   695A      1.066170  
     696A      1.067508   697A      1.069232   698A      1.071336  
     699A      1.071684   700A      1.074074   701A      1.083572  
     702A      1.089339   703A      1.090422   704A      1.094828  
     705A      1.096564   706A      1.100048   707A      1.100849  
     708A      1.101940   709A      1.107261   710A      1.110713  
     711A      1.112928   712A      1.120490   713A      1.120613  
     714A      1.125564   715A      1.126673   716A      1.127911  
     717A      1.129103   718A      1.132934   719A      1.140442  
     720A      1.145686   721A      1.147183   722A      1.148241  
     723A      1.151419   724A      1.152916   725A      1.157754  
     726A      1.163188   727A      1.166746   728A      1.171201  
     729A      1.173711   730A      1.175884   731A      1.180192  
     732A      1.185914   733A      1.190153   734A      1.190944  
     735A      1.192048   736A      1.193358   737A      1.194493  
     738A      1.195233   739A      1.198106   740A      1.199930  
     741A      1.200986   742A      1.206455   743A      1.208967  
     744A      1.214585   745A      1.221475   746A      1.224035  
     747A      1.225917   748A      1.226605   749A      1.233050  
     750A      1.236112   751A      1.237318   752A      1.241524  
     753A      1.242953   754A      1.244090   755A      1.251485  
     756A      1.255334   757A      1.255729   758A      1.257384  
     759A      1.257611   760A      1.258981   761A      1.261176  
     762A      1.264142   763A      1.268515   764A      1.276571  
     765A      1.278550   766A      1.279658   767A      1.279954  
     768A      1.284926   769A      1.286752   770A      1.291894  
     771A      1.294514   772A      1.295955   773A      1.298227  
     774A      1.300010   775A      1.309212   776A      1.311240  
     777A      1.313171   778A      1.319248   779A      1.329815  
     780A      1.335872   781A      1.337190   782A      1.338296  
     783A      1.343002   784A      1.345206   785A      1.345557  
     786A      1.348737   787A      1.352636   788A      1.353923  
     789A      1.355616   790A      1.358095   791A      1.364882  
     792A      1.366114   793A      1.366518   794A      1.368242  
     795A      1.368963   796A      1.371574   797A      1.375377  
     798A      1.379198   799A      1.380457   800A      1.381281  
     801A      1.387074   802A      1.388158   803A      1.406653  
     804A      1.407594   805A      1.411363   806A      1.425578  
     807A      1.429688   808A      1.446299   809A      1.447852  
     810A      1.448056   811A      1.449259   812A      1.464802  
     813A      1.477411   814A      1.485147   815A      1.486403  
     816A      1.505455   817A      1.516806   818A      1.520671  
     819A      1.528519   820A      1.528965   821A      1.531803  
     822A      1.535354   823A      1.536964   824A      1.539075  
     825A      1.540015   826A      1.541430   827A      1.543313  
     828A      1.549957   829A      1.552268   830A      1.559862  
     831A      1.565019   832A      1.565655   833A      1.566827  
     834A      1.568965   835A      1.570003   836A      1.573563  
     837A      1.574837   838A      1.579600   839A      1.585909  
     840A      1.587766   841A      1.588626   842A      1.592332  
     843A      1.593623   844A      1.598100   845A      1.602025  
     846A      1.602078   847A      1.603030   848A      1.605735  
     849A      1.608536   850A      1.611259   851A      1.613711  
     852A      1.614093   853A      1.615403   854A      1.625411  
     855A      1.626659   856A      1.626833   857A      1.628054  
     858A      1.629074   859A      1.629565   860A      1.631585  
     861A      1.644902   862A      1.646153   863A      1.658434  
     864A      1.667751   865A      1.677198   866A      1.685685  
     867A      1.689274   868A      1.690527   869A      1.690883  
     870A      1.691990   871A      1.704300   872A      1.704591  
     873A      1.712830   874A      1.719674   875A      1.720205  
     876A      1.733315   877A      1.741087   878A      1.746164  
     879A      1.746653   880A      1.747762   881A      1.749676  
     882A      1.749874   883A      1.761991   884A      1.764411  
     885A      1.765390   886A      1.767998   887A      1.769402  
     888A      1.770979   889A      1.783239   890A      1.788561  
     891A      1.790998   892A      1.791886   893A      1.793319  
     894A      1.795397   895A      1.798825   896A      1.800344  
     897A      1.801438   898A      1.803621   899A      1.805325  
     900A      1.805722   901A      1.820930   902A      1.823474  
     903A      1.824689   904A      1.829820   905A      1.829891  
     906A      1.832497   907A      1.835062   908A      1.836919  
     909A      1.837518   910A      1.842014   911A      1.844207  
     912A      1.845004   913A      1.846026   914A      1.848617  
     915A      1.848818   916A      1.850524   917A      1.852322  
     918A      1.865530   919A      1.870781   920A      1.873204  
     921A      1.874514   922A      1.875281   923A      1.878865  
     924A      1.880842   925A      1.881550   926A      1.883297  
     927A      1.884667   928A      1.884820   929A      1.886501  
     930A      1.890119   931A      1.890598   932A      1.905908  
     933A      1.911884   934A      1.913447   935A      1.914482  
     936A      1.922995   937A      1.923471   938A      1.924263  
     939A      1.928215   940A      1.930808   941A      1.934126  
     942A      1.938985   943A      1.940256   944A      1.944510  
     945A      1.945475   946A      1.948769   947A      1.950574  
     948A      1.955530   949A      1.958611   950A      1.959672  
     951A      1.961196   952A      1.962964   953A      1.963334  
     954A      1.971572   955A      1.977474   956A      1.981578  
     957A      1.981991   958A      1.987483   959A      1.989330  
     960A      1.990493   961A      1.992345   962A      1.994382  
     963A      1.999315   964A      2.001875   965A      2.002413  
     966A      2.003636   967A      2.007492   968A      2.009309  
     969A      2.016234   970A      2.019753   971A      2.021051  
     972A      2.023365   973A      2.023432   974A      2.028209  
     975A      2.028803   976A      2.029897   977A      2.031772  
     978A      2.035410   979A      2.037442   980A      2.038514  
     981A      2.039428   982A      2.043518   983A      2.045033  
     984A      2.047414   985A      2.048238   986A      2.048370  
     987A      2.048864   988A      2.049549   989A      2.049959  
     990A      2.057337   991A      2.058163   992A      2.061019  
     993A      2.063415   994A      2.064939   995A      2.065318  
     996A      2.070433   997A      2.071994   998A      2.072512  
     999A      2.084790  1000A      2.088590  1001A      2.088783  
    1002A      2.089705  1003A      2.091288  1004A      2.096969  
    1005A      2.098930  1006A      2.109666  1007A      2.112176  
    1008A      2.117934  1009A      2.119563  1010A      2.120067  
    1011A      2.120838  1012A      2.122509  1013A      2.124607  
    1014A      2.136079  1015A      2.139592  1016A      2.145607  
    1017A      2.145916  1018A      2.146601  1019A      2.152155  
    1020A      2.156432  1021A      2.159858  1022A      2.162266  
    1023A      2.168384  1024A      2.174332  1025A      2.174588  
    1026A      2.175256  1027A      2.176242  1028A      2.177465  
    1029A      2.188635  1030A      2.190783  1031A      2.192380  
    1032A      2.198009  1033A      2.198361  1034A      2.201437  
    1035A      2.202720  1036A      2.209353  1037A      2.211251  
    1038A      2.229912  1039A      2.234357  1040A      2.235266  
    1041A      2.241488  1042A      2.241789  1043A      2.249317  
    1044A      2.254603  1045A      2.255177  1046A      2.255708  
    1047A      2.257762  1048A      2.259615  1049A      2.263929  
    1050A      2.269686  1051A      2.277995  1052A      2.279442  
    1053A      2.280793  1054A      2.282023  1055A      2.292552  
    1056A      2.294747  1057A      2.300437  1058A      2.311139  
    1059A      2.311694  1060A      2.344281  1061A      2.347208  
    1062A      2.350486  1063A      2.351181  1064A      2.351475  
    1065A      2.364258  1066A      2.368070  1067A      2.368631  
    1068A      2.371683  1069A      2.389703  1070A      2.397357  
    1071A      2.404932  1072A      2.405386  1073A      2.414356  
    1074A      2.414857  1075A      2.430736  1076A      2.447895  
    1077A      2.457120  1078A      2.459085  1079A      2.475298  
    1080A      2.475742  1081A      2.476303  1082A      2.479410  
    1083A      2.485019  1084A      2.485435  1085A      2.486946  
    1086A      2.487304  1087A      2.488509  1088A      2.499449  
    1089A      2.499566  1090A      2.505567  1091A      2.505762  
    1092A      2.511602  1093A      2.514347  1094A      2.514677  
    1095A      2.516781  1096A      2.519255  1097A      2.522635  
    1098A      2.538359  1099A      2.549826  1100A      2.553817  
    1101A      2.553987  1102A      2.557502  1103A      2.558806  
    1104A      2.559653  1105A      2.570985  1106A      2.572280  
    1107A      2.581809  1108A      2.582233  1109A      2.586676  
    1110A      2.610674  1111A      2.611990  1112A      2.612229  
    1113A      2.619239  1114A      2.622516  1115A      2.627563  
    1116A      2.627795  1117A      2.638406  1118A      2.638854  
    1119A      2.644432  1120A      2.644757  1121A      2.650662  
    1122A      2.651605  1123A      2.663063  1124A      2.668740  
    1125A      2.683236  1126A      2.685663  1127A      2.695460  
    1128A      2.701099  1129A      2.707455  1130A      2.719638  
    1131A      2.721991  1132A      2.722357  1133A      2.732637  
    1134A      2.742559  1135A      2.755090  1136A      2.755666  
    1137A      2.758492  1138A      2.773208  1139A      2.779664  
    1140A      2.780038  1141A      2.782091  1142A      2.782688  
    1143A      2.787533  1144A      2.789432  1145A      2.794999  
    1146A      2.804198  1147A      2.811672  1148A      2.837304  
    1149A      2.850080  1150A      2.850526  1151A      2.857203  
    1152A      2.864595  1153A      2.865099  1154A      2.881097  
    1155A      2.882166  1156A      2.892933  1157A      2.941642  
    1158A      2.942495  1159A      2.943401  1160A      2.959320  
    1161A      2.984318  1162A      2.989548  1163A      2.989613  
    1164A      2.998702  1165A      2.999508  1166A      3.025828  
    1167A      3.041389  1168A      3.043683  1169A      3.058509  
    1170A      3.058985  1171A      3.060506  1172A      3.066479  
    1173A      3.075197  1174A      3.075758  1175A      3.076225  
    1176A      3.078945  1177A      3.079467  1178A      3.082249  
    1179A      3.089234  1180A      3.091759  1181A      3.094315  
    1182A      3.096603  1183A      3.098049  1184A      3.121526  
    1185A      3.140331  1186A      3.146541  1187A      3.167142  
    1188A      3.200713  1189A      3.204145  1190A      3.204499  
    1191A      3.211581  1192A      3.213011  1193A      3.343395  
    1194A      3.344721  1195A      3.364076  1196A      3.409699  
    1197A      3.411534  1198A      3.475762  1199A      3.483727  
    1200A      3.505703  1201A      3.508287  1202A      3.528017  
    1203A      3.554421  1204A      3.556542  1205A      3.574851  
    1206A      3.590589  1207A      3.598414  1208A      3.698880  
    1209A      3.710587  1210A      3.713914  1211A      3.798801  
    1212A      3.799279  1213A      3.840968  1214A      3.841064  
    1215A      3.902277  1216A      3.935774  1217A      3.973412  
    1218A      3.983676  1219A      4.014291  

    Final Occupation by Irrep:
              A 
    DOCC [   197 ]
    NA   [   197 ]
    NB   [   197 ]

  @DF-RHF Final Energy: -2359.21087175678440

   => Energetics <=

    Nuclear Repulsion Energy =           8256.8936761369586748
    One-Electron Energy =              -19614.5087168529098562
    Two-Electron Energy =                8998.4041689591667819
    Total Energy =                      -2359.2108717567843996

Computation Completed


Properties will be evaluated at   0.000000,   0.000000,   0.000000 [a0]

Properties computed using the SCF density matrix


 Multipole Moments:

 ------------------------------------------------------------------------------------
     Multipole            Electronic (a.u.)      Nuclear  (a.u.)        Total (a.u.)
 ------------------------------------------------------------------------------------

 L = 1.  Multiply by 2.5417464519 to convert [e a0] to [Debye]
 Dipole X            :          0.0040854            0.0006313            0.0047167
 Dipole Y            :         -1.5696524            1.8864948            0.3168424
 Dipole Z            :        -16.9493531           22.8798695            5.9305164
 Magnitude           :                                                    5.9389760

 ------------------------------------------------------------------------------------

*** tstop() called on d-16-12-3 at Mon Jan 22 17:19:50 2024
Module time:
	user time   =    4744.46 seconds =      79.07 minutes
	system time =     359.98 seconds =       6.00 minutes
	total time  =       1814 seconds =      30.23 minutes
Total time:
	user time   =    4744.46 seconds =      79.07 minutes
	system time =     359.98 seconds =       6.00 minutes
	total time  =       1814 seconds =      30.23 minutes

  //>>>>>>>>>>>>>>>>>>>>>>>>>>>>>>>>>>>//
  //            Monomer A HF           //
  //<<<<<<<<<<<<<<<<<<<<<<<<<<<<<<<<<<<//

   => Libint2 <=

    Primary   basis highest AM E, G, H:  7, 7, 4
    Auxiliary basis highest AM E, G, H:  7, 7, 5
    Onebody   basis highest AM E, G, H:  7, 7, 5
    Solid Harmonics ordering:            gaussian

*** tstart() called on d-16-12-3
*** at Mon Jan 22 17:19:50 2024

   => Loading Basis Set <=

    Name: JUN-CC-PVDZ
    Role: ORBITAL
    Keyword: BASIS
    atoms 1-2, 4-5, 10, 17-70 entry C          line   164 file /home/gridsan/tfroembgen/.conda/envs/psi4test/share/psi4/basis/jun-cc-pvdz.gbs 
    atoms 3, 6                entry N          line   198 file /home/gridsan/tfroembgen/.conda/envs/psi4test/share/psi4/basis/jun-cc-pvdz.gbs 
    atoms 7-9, 11-16, 71-88   entry H          line    36 file /home/gridsan/tfroembgen/.conda/envs/psi4test/share/psi4/basis/jun-cc-pvdz.gbs 


         ---------------------------------------------------------
                                   SCF
               by Justin Turney, Rob Parrish, Andy Simmonett
                          and Daniel G. A. Smith
                              RHF Reference
                       12 Threads,  30517 MiB Core
         ---------------------------------------------------------

  ==> Geometry <==

    Molecular point group: c1
    Full point group: C1

    Geometry (in Angstrom), charge = 1, multiplicity = 1:

       Center              X                  Y                   Z               Mass       
    ------------   -----------------  -----------------  -----------------  -----------------
         C            0.680066520158    -1.215933861162     3.848391177522    12.000000000000
         C           -0.680504479842    -1.215549861162     3.846363177522    12.000000000000
         N           -1.085635479842     0.102774138838     3.845365177522    14.003074004430
         C            0.000107520158     0.884175138838     3.842089177522    12.000000000000
         C           -2.477365479842     0.570753138838     3.795959177522    12.000000000000
         N            1.085221520158     0.102774138838     3.845365177522    14.003074004430
         H            1.385145520158    -2.033372861162     3.856219177522     1.007825032230
         H           -1.385302479842    -2.033218861162     3.846553177522     1.007825032230
         H           -0.000009479842     1.965264138838     3.840342177522     1.007825032230
         C            2.478116520158     0.567872138838     3.862257177522    12.000000000000
         H            2.490591520158     1.658125138838     3.834912177522     1.007825032230
         H            2.967027520158     0.220696138838     4.775703177522     1.007825032230
         H            3.001427520158     0.176400138838     2.986774177522     1.007825032230
         H           -2.857359479842     0.490794138838     2.773888177522     1.007825032230
         H           -3.082679479842    -0.042310861162     4.466043177522     1.007825032230
         H           -2.518128479842     1.610701138838     4.122943177522     1.007825032230
      Gh(C)           1.225311895423     0.707533799757    -0.553513195194    12.000000000000
      Gh(C)           1.225323856051    -0.707543383733    -0.565844004764    12.000000000000
      Gh(C)          -0.000006153932     1.414961424928    -0.566377628285    12.000000000000
      Gh(C)           2.456448753949     1.418323398016    -0.550626337794    12.000000000000
      Gh(C)           0.000010827279    -1.414980987797    -0.556178070961    12.000000000000
      Gh(C)          -1.225300948908     0.707540884822    -0.551261674872    12.000000000000
      Gh(C)           2.456437755320    -1.418327793043    -0.568089161621    12.000000000000
      Gh(C)          -0.000001332978     2.836796542119    -0.568781178419    12.000000000000
      Gh(C)           3.681826697470     0.709313466839    -0.567740371823    12.000000000000
      Gh(C)           2.455120048865     2.834219172327    -0.567842928784    12.000000000000
      Gh(C)           3.681821105219    -0.709338328591    -0.551667887805    12.000000000000
      Gh(C)          -1.225313598688    -0.707532004706    -0.564771243337    12.000000000000
      Gh(C)           1.226699581202     3.543464994832    -0.551483855874    12.000000000000
      Gh(C)           0.000004784858    -2.836786628398    -0.551329903339    12.000000000000
      Gh(C)          -2.456436032848     1.418312429123    -0.551226279026    12.000000000000
      Gh(C)           2.455123417779    -2.834234517751    -0.551819796173    12.000000000000
      Gh(C)          -1.226714364589     3.543464574588    -0.551380522655    12.000000000000
      Gh(C)           4.914517295202     1.427168383327    -0.561259688794    12.000000000000
      Gh(C)           3.693150191476     3.542790803383    -0.561209889158    12.000000000000
      Gh(C)          -2.456437600068    -1.418317770001    -0.568114199746    12.000000000000
      Gh(C)           1.226704841943    -3.543478731069    -0.567453986624    12.000000000000
      Gh(C)          -2.455125398508     2.834212173472    -0.567836552438    12.000000000000
      Gh(C)           4.914524380782    -1.427191399106    -0.558286946059    12.000000000000
      Gh(C)           1.221424613699     4.970129576098    -0.558148511800    12.000000000000
      Gh(C)           4.893008229321     2.825183510864    -0.560043020435    12.000000000000
      Gh(C)          -1.226697008489    -3.543475486239    -0.567186782214    12.000000000000
      Gh(C)          -3.681818976526     0.709320477570    -0.567727691343    12.000000000000
      Gh(C)           3.693147101150    -3.542805830553    -0.558169055498    12.000000000000
      Gh(C)          -1.221432251994     4.970123808701    -0.557965016427    12.000000000000
      Gh(C)           6.134770972926     0.680543457943    -0.560489914244    12.000000000000
      Gh(C)           3.656788880610     4.972948754405    -0.560301251375    12.000000000000
      Gh(C)          -2.455126907733    -2.834219582223    -0.552064153971    12.000000000000
      Gh(C)          -3.681819179061    -0.709330192631    -0.551550266226    12.000000000000
      Gh(C)           4.893012617914    -2.825204594794    -0.559431868540    12.000000000000
      Gh(C)          -0.000001073113     5.650442876870    -0.559196325134    12.000000000000
      Gh(C)           6.134775112332    -0.680559343237    -0.559224593728    12.000000000000
      Gh(C)           2.478131482856     5.653572262169    -0.559012471725    12.000000000000
      Gh(C)           1.221422404738    -4.970131544095    -0.560948008822    12.000000000000
      Gh(C)          -3.693162383965     3.542792465030    -0.561044381698    12.000000000000
      Gh(C)          -1.221428520945    -4.970122792758    -0.561060770655    12.000000000000
      Gh(C)          -4.914521807942     1.427170957833    -0.561182743786    12.000000000000
      Gh(C)           3.656787019679    -4.972959715401    -0.558850750841    12.000000000000
      Gh(C)          -2.478138530106     5.653569933366    -0.558727946717    12.000000000000
      Gh(C)          -3.693141738564    -3.542794708141    -0.558285181654    12.000000000000
      Gh(C)          -4.914512483053    -1.427185489190    -0.558252248886    12.000000000000
      Gh(C)          -0.000006008926    -5.650442776176    -0.559591829255    12.000000000000
      Gh(C)          -4.893020484101     2.825184109757    -0.560053102295    12.000000000000
      Gh(C)           2.478125993298    -5.653578033051    -0.559941351633    12.000000000000
      Gh(C)          -3.656798710258     4.972951692879    -0.560124571000    12.000000000000
      Gh(C)          -4.892999478856    -2.825196256222    -0.559585904237    12.000000000000
      Gh(C)          -2.478128498083    -5.653570659169    -0.560216539281    12.000000000000
      Gh(C)          -6.134770503331     0.680544277094    -0.560515465946    12.000000000000
      Gh(C)          -3.656788833189    -4.972948512133    -0.559065038658    12.000000000000
      Gh(C)          -6.134765042913    -0.680558404644    -0.559245069523    12.000000000000
      Gh(H)           5.835288495816     3.369271405792    -0.555683694772     1.007825032230
      Gh(H)           7.073859172747     1.228212759737    -0.560028270851     1.007825032230
      Gh(H)           4.600663264174     5.512376313291    -0.559796050623     1.007825032230
      Gh(H)           5.835283387305    -3.369310545891    -0.563886335854     1.007825032230
      Gh(H)          -0.000012151306     6.738526184974    -0.563545570142     1.007825032230
      Gh(H)           7.073861171831    -1.228231431906    -0.559733331823     1.007825032230
      Gh(H)           2.473313731799     6.740679802232    -0.559479192656     1.007825032230
      Gh(H)           4.600668491381    -5.512380618338    -0.559260748009     1.007825032230
      Gh(H)          -2.473318680537     6.740677230444    -0.559177846031     1.007825032230
      Gh(H)          -0.000010268228    -6.738532665614    -0.555062144270     1.007825032230
      Gh(H)          -5.835301914343     3.369266461134    -0.555547672624     1.007825032230
      Gh(H)           2.473307923831    -6.740689863591    -0.559371021208     1.007825032230
      Gh(H)          -4.600674841208     5.512373537441    -0.559630722299     1.007825032230
      Gh(H)          -5.835279506835    -3.369293452942    -0.564165641735     1.007825032230
      Gh(H)          -2.473300347440    -6.740683567302    -0.559820337753     1.007825032230
      Gh(H)          -7.073857766768     1.228215983678    -0.560112262332     1.007825032230
      Gh(H)          -4.600673786085    -5.512367158949    -0.559433056032     1.007825032230
      Gh(H)          -7.073856934409    -1.228225121139    -0.559828188289     1.007825032230

  Running in c1 symmetry.

  Rotational constants: A =      0.00181  B =      0.00178  C =      0.00109 [cm^-1]
  Rotational constants: A =     54.24520  B =     53.26383  C =     32.56832 [MHz]
  Nuclear repulsion =  306.774908447733026

  Charge       = 1
  Multiplicity = 1
  Electrons    = 52
  Nalpha       = 26
  Nbeta        = 26

  ==> Algorithm <==

  SCF Algorithm Type is DF.
  DIIS enabled.
  MOM disabled.
  Fractional occupation disabled.
  Guess Type is SAD.
  Energy threshold   = 1.00e-08
  Density threshold  = 1.00e-08
  Integral threshold = 1.00e-12

  ==> Primary Basis <==

  Basis Set: JUN-CC-PVDZ
    Blend: JUN-CC-PVDZ
    Number of shells: 569
    Number of basis functions: 1233
    Number of Cartesian functions: 1294
    Spherical Harmonics?: true
    Max angular momentum: 2

   => Loading Basis Set <=

    Name: (JUN-CC-PVDZ AUX)
    Role: JKFIT
    Keyword: DF_BASIS_SCF
    atoms 1-2, 4-5, 10, 17-70 entry C          line   146 file /home/gridsan/tfroembgen/.conda/envs/psi4test/share/psi4/basis/jun-cc-pvdz-jkfit.gbs 
    atoms 3, 6                entry N          line   202 file /home/gridsan/tfroembgen/.conda/envs/psi4test/share/psi4/basis/jun-cc-pvdz-jkfit.gbs 
    atoms 7-9, 11-16, 71-88   entry H          line    70 file /home/gridsan/tfroembgen/.conda/envs/psi4test/share/psi4/basis/jun-cc-pvdz-jkfit.gbs 

  ==> Integral Setup <==

  ==> DiskDFJK: Density-Fitted J/K Matrices <==

    J tasked:                  Yes
    K tasked:                  Yes
    wK tasked:                  No
    OpenMP threads:             12
    Integrals threads:          12
    Memory [MiB]:            22888
    Algorithm:                Disk
    Integral Cache:           LOAD
    Schwarz Cutoff:          1E-12
    Fitting Condition:       1E-10

   => Auxiliary Basis Set <=

  Basis Set: (JUN-CC-PVDZ AUX)
    Blend: JUN-CC-PVDZ-JKFIT
    Number of shells: 1890
    Number of basis functions: 5440
    Number of Cartesian functions: 6226
    Spherical Harmonics?: true
    Max angular momentum: 3

  Minimum eigenvalue in the overlap matrix is 7.7563179538E-10.
  Reciprocal condition number of the overlap matrix is 3.2921970323E-11.
    Using canonical orthogonalization.
  Overall, 14 of 1233 possible MOs eliminated.


  ==> Pre-Iterations <==

  SCF Guess: Superposition of Atomic Densities via on-the-fly atomic UHF (no occupation information).

   -------------------------
    Irrep   Nso     Nmo    
   -------------------------
     A       1233    1219 
   -------------------------
    Total    1233    1219
   -------------------------

  ==> Iterations <==

                           Total Energy        Delta E     RMS |[F,P]|

   @DF-RHF iter SAD:  -303.36535748169342   -3.03365e+02   0.00000e+00 
   @DF-RHF iter   1:  -303.17028014936875    1.95077e-01   3.44612e-04 ADIIS/DIIS
   @DF-RHF iter   2:  -303.28465756821817   -1.14377e-01   1.15991e-04 ADIIS/DIIS
   @DF-RHF iter   3:  -303.29614121283805   -1.14836e-02   4.54237e-05 DIIS
   @DF-RHF iter   4:  -303.29805544821028   -1.91424e-03   9.93837e-06 DIIS
   @DF-RHF iter   5:  -303.29816256271448   -1.07115e-04   2.43318e-06 DIIS
   @DF-RHF iter   6:  -303.29817204080365   -9.47809e-06   6.59657e-07 DIIS
   @DF-RHF iter   7:  -303.29817313755598   -1.09675e-06   3.36603e-07 DIIS
   @DF-RHF iter   8:  -303.29817339822250   -2.60667e-07   1.35396e-07 DIIS
   @DF-RHF iter   9:  -303.29817344825545   -5.00330e-08   3.41386e-08 DIIS
   @DF-RHF iter  10:  -303.29817345115049   -2.89504e-09   1.27859e-08 DIIS
   @DF-RHF iter  11:  -303.29817345139986   -2.49372e-10   3.02176e-09 DIIS
  Energy and wave function converged.


  ==> Post-Iterations <==

    Orbital Energies [Eh]
    ---------------------

    Doubly Occupied:                                                      

       1A    -15.834501     2A    -15.833960     3A    -11.529338  
       4A    -11.459743     5A    -11.458188     6A    -11.449571  
       7A    -11.449441     8A     -1.577797     9A     -1.433428  
      10A     -1.238274    11A     -1.189011    12A     -1.118634  
      13A     -1.022150    14A     -0.996585    15A     -0.916732  
      16A     -0.850312    17A     -0.815930    18A     -0.812813  
      19A     -0.789796    20A     -0.786069    21A     -0.781459  
      22A     -0.729483    23A     -0.725587    24A     -0.716989  
      25A     -0.595977    26A     -0.523638  

    Virtual:                                                              

      27A     -0.078498    28A     -0.069808    29A     -0.062389  
      30A     -0.060824    31A     -0.042520    32A     -0.041133  
      33A     -0.039497    34A     -0.038692    35A     -0.034644  
      36A     -0.031990    37A     -0.022156    38A     -0.018118  
      39A     -0.018016    40A     -0.014906    41A     -0.012619  
      42A     -0.012172    43A     -0.010643    44A     -0.009941  
      45A     -0.001669    46A      0.001311    47A      0.002480  
      48A      0.006019    49A      0.006318    50A      0.008138  
      51A      0.009442    52A      0.011850    53A      0.017114  
      54A      0.018741    55A      0.021825    56A      0.023726  
      57A      0.028650    58A      0.030261    59A      0.030373  
      60A      0.032974    61A      0.037618    62A      0.039817  
      63A      0.040125    64A      0.040991    65A      0.041212  
      66A      0.042867    67A      0.048454    68A      0.049392  
      69A      0.050889    70A      0.052940    71A      0.054175  
      72A      0.054853    73A      0.054894    74A      0.060709  
      75A      0.061644    76A      0.062839    77A      0.064994  
      78A      0.068028    79A      0.069961    80A      0.071398  
      81A      0.071764    82A      0.074089    83A      0.078886  
      84A      0.079562    85A      0.080390    86A      0.080462  
      87A      0.081308    88A      0.081863    89A      0.083697  
      90A      0.085861    91A      0.086122    92A      0.088507  
      93A      0.088941    94A      0.090668    95A      0.091524  
      96A      0.096732    97A      0.097297    98A      0.102964  
      99A      0.103417   100A      0.103928   101A      0.104508  
     102A      0.107115   103A      0.109751   104A      0.111053  
     105A      0.112523   106A      0.112837   107A      0.113339  
     108A      0.115133   109A      0.116610   110A      0.117234  
     111A      0.117482   112A      0.121228   113A      0.121824  
     114A      0.122381   115A      0.122710   116A      0.125242  
     117A      0.128471   118A      0.129404   119A      0.131155  
     120A      0.132739   121A      0.136809   122A      0.137805  
     123A      0.138642   124A      0.140983   125A      0.142322  
     126A      0.142740   127A      0.143346   128A      0.147777  
     129A      0.149840   130A      0.150691   131A      0.155009  
     132A      0.155174   133A      0.156745   134A      0.157317  
     135A      0.157767   136A      0.158707   137A      0.161922  
     138A      0.162896   139A      0.165239   140A      0.167214  
     141A      0.169273   142A      0.170759   143A      0.171201  
     144A      0.171708   145A      0.172607   146A      0.175815  
     147A      0.175910   148A      0.177854   149A      0.180010  
     150A      0.180276   151A      0.180895   152A      0.182560  
     153A      0.183489   154A      0.185305   155A      0.187153  
     156A      0.187470   157A      0.192074   158A      0.194139  
     159A      0.196518   160A      0.198873   161A      0.201968  
     162A      0.204288   163A      0.204541   164A      0.206995  
     165A      0.208362   166A      0.210433   167A      0.210826  
     168A      0.212850   169A      0.213755   170A      0.214135  
     171A      0.215465   172A      0.217916   173A      0.218542  
     174A      0.219606   175A      0.220839   176A      0.223871  
     177A      0.224103   178A      0.225082   179A      0.226173  
     180A      0.227517   181A      0.230032   182A      0.232271  
     183A      0.235323   184A      0.236868   185A      0.237838  
     186A      0.238237   187A      0.238989   188A      0.239842  
     189A      0.242321   190A      0.244379   191A      0.250490  
     192A      0.254095   193A      0.256119   194A      0.257423  
     195A      0.260675   196A      0.262663   197A      0.264354  
     198A      0.264730   199A      0.265622   200A      0.267944  
     201A      0.269467   202A      0.270551   203A      0.273002  
     204A      0.279624   205A      0.280082   206A      0.280582  
     207A      0.280978   208A      0.281799   209A      0.283296  
     210A      0.284418   211A      0.284699   212A      0.286670  
     213A      0.289206   214A      0.290180   215A      0.291862  
     216A      0.293656   217A      0.295721   218A      0.296143  
     219A      0.300160   220A      0.301105   221A      0.303379  
     222A      0.303649   223A      0.306989   224A      0.308644  
     225A      0.313341   226A      0.314232   227A      0.314604  
     228A      0.322717   229A      0.324048   230A      0.324974  
     231A      0.327286   232A      0.328292   233A      0.329449  
     234A      0.335046   235A      0.338737   236A      0.343015  
     237A      0.344309   238A      0.346125   239A      0.348942  
     240A      0.351682   241A      0.355928   242A      0.356249  
     243A      0.357535   244A      0.359912   245A      0.361471  
     246A      0.362814   247A      0.365407   248A      0.366866  
     249A      0.369575   250A      0.371569   251A      0.371815  
     252A      0.374524   253A      0.375986   254A      0.376449  
     255A      0.380020   256A      0.382646   257A      0.384349  
     258A      0.385271   259A      0.385575   260A      0.386711  
     261A      0.387995   262A      0.389847   263A      0.391972  
     264A      0.392700   265A      0.395417   266A      0.397559  
     267A      0.397751   268A      0.400733   269A      0.402521  
     270A      0.404479   271A      0.404973   272A      0.406255  
     273A      0.409530   274A      0.409721   275A      0.410676  
     276A      0.412052   277A      0.417324   278A      0.418457  
     279A      0.421416   280A      0.424084   281A      0.426373  
     282A      0.428515   283A      0.428853   284A      0.431070  
     285A      0.431492   286A      0.435850   287A      0.438428  
     288A      0.438957   289A      0.442921   290A      0.444744  
     291A      0.447176   292A      0.451416   293A      0.452519  
     294A      0.455972   295A      0.457193   296A      0.458311  
     297A      0.458520   298A      0.460693   299A      0.461684  
     300A      0.464208   301A      0.465016   302A      0.466813  
     303A      0.469571   304A      0.474081   305A      0.474711  
     306A      0.479032   307A      0.480168   308A      0.481517  
     309A      0.484882   310A      0.489103   311A      0.495724  
     312A      0.497236   313A      0.498031   314A      0.500153  
     315A      0.501881   316A      0.503105   317A      0.505348  
     318A      0.508136   319A      0.509806   320A      0.510382  
     321A      0.512666   322A      0.515365   323A      0.516740  
     324A      0.519514   325A      0.520754   326A      0.524784  
     327A      0.526287   328A      0.527326   329A      0.528326  
     330A      0.529741   331A      0.536308   332A      0.539560  
     333A      0.540570   334A      0.542171   335A      0.545145  
     336A      0.546742   337A      0.549750   338A      0.553524  
     339A      0.557217   340A      0.560797   341A      0.562951  
     342A      0.566161   343A      0.568686   344A      0.570471  
     345A      0.571775   346A      0.572367   347A      0.574455  
     348A      0.575181   349A      0.576692   350A      0.577896  
     351A      0.580092   352A      0.581096   353A      0.593202  
     354A      0.598600   355A      0.599922   356A      0.602555  
     357A      0.604133   358A      0.604655   359A      0.605114  
     360A      0.606779   361A      0.611652   362A      0.613307  
     363A      0.614445   364A      0.618904   365A      0.621520  
     366A      0.622969   367A      0.623814   368A      0.626218  
     369A      0.627506   370A      0.628922   371A      0.630339  
     372A      0.632870   373A      0.635546   374A      0.639809  
     375A      0.641685   376A      0.647107   377A      0.648746  
     378A      0.662332   379A      0.664875   380A      0.667267  
     381A      0.676476   382A      0.678084   383A      0.682738  
     384A      0.685723   385A      0.687059   386A      0.687595  
     387A      0.690232   388A      0.690877   389A      0.691478  
     390A      0.692549   391A      0.692865   392A      0.694302  
     393A      0.694939   394A      0.696374   395A      0.698760  
     396A      0.699751   397A      0.707807   398A      0.709536  
     399A      0.712057   400A      0.715517   401A      0.717075  
     402A      0.718984   403A      0.719555   404A      0.722028  
     405A      0.723902   406A      0.727413   407A      0.731757  
     408A      0.732702   409A      0.734132   410A      0.737757  
     411A      0.746483   412A      0.746642   413A      0.761613  
     414A      0.768528   415A      0.772783   416A      0.774071  
     417A      0.774432   418A      0.777516   419A      0.783600  
     420A      0.784478   421A      0.787091   422A      0.791343  
     423A      0.800246   424A      0.802113   425A      0.803612  
     426A      0.804706   427A      0.809489   428A      0.811905  
     429A      0.814116   430A      0.817256   431A      0.817863  
     432A      0.820355   433A      0.821591   434A      0.825160  
     435A      0.830650   436A      0.834339   437A      0.845060  
     438A      0.845359   439A      0.849826   440A      0.851349  
     441A      0.861253   442A      0.871273   443A      0.873031  
     444A      0.876459   445A      0.885106   446A      0.885453  
     447A      0.889842   448A      0.893692   449A      0.894607  
     450A      0.902098   451A      0.906582   452A      0.909106  
     453A      0.916880   454A      0.920369   455A      0.927922  
     456A      0.928138   457A      0.928610   458A      0.933204  
     459A      0.941084   460A      0.948194   461A      0.948729  
     462A      0.958311   463A      0.960770   464A      0.962342  
     465A      0.984325   466A      0.989695   467A      0.990120  
     468A      0.991123   469A      0.991330   470A      1.021824  
     471A      1.026718   472A      1.028323   473A      1.029294  
     474A      1.030257   475A      1.033491   476A      1.047124  
     477A      1.065256   478A      1.076547   479A      1.077765  
     480A      1.083851   481A      1.085445   482A      1.087037  
     483A      1.094357   484A      1.104877   485A      1.105334  
     486A      1.107845   487A      1.108168   488A      1.117624  
     489A      1.119328   490A      1.120692   491A      1.132810  
     492A      1.140215   493A      1.142943   494A      1.143444  
     495A      1.149729   496A      1.152722   497A      1.159208  
     498A      1.164350   499A      1.180768   500A      1.196527  
     501A      1.210384   502A      1.218405   503A      1.219077  
     504A      1.227101   505A      1.228619   506A      1.229080  
     507A      1.245774   508A      1.246765   509A      1.249614  
     510A      1.250691   511A      1.276009   512A      1.288346  
     513A      1.291761   514A      1.292316   515A      1.344179  
     516A      1.347562   517A      1.363746   518A      1.365271  
     519A      1.372321   520A      1.381719   521A      1.383496  
     522A      1.387620   523A      1.388037   524A      1.390921  
     525A      1.397240   526A      1.402977   527A      1.406339  
     528A      1.416292   529A      1.419993   530A      1.454622  
     531A      1.463127   532A      1.475447   533A      1.477674  
     534A      1.478513   535A      1.484020   536A      1.491962  
     537A      1.494607   538A      1.514076   539A      1.522263  
     540A      1.534752   541A      1.548847   542A      1.560951  
     543A      1.563105   544A      1.571279   545A      1.575505  
     546A      1.579453   547A      1.581224   548A      1.588240  
     549A      1.597050   550A      1.606164   551A      1.611951  
     552A      1.616521   553A      1.621837   554A      1.631925  
     555A      1.640833   556A      1.668539   557A      1.670069  
     558A      1.670587   559A      1.672473   560A      1.674436  
     561A      1.674681   562A      1.677569   563A      1.681487  
     564A      1.687499   565A      1.689294   566A      1.691762  
     567A      1.698683   568A      1.706692   569A      1.708089  
     570A      1.713255   571A      1.715348   572A      1.716762  
     573A      1.718913   574A      1.725685   575A      1.730304  
     576A      1.732102   577A      1.740409   578A      1.743719  
     579A      1.748911   580A      1.750930   581A      1.751447  
     582A      1.752928   583A      1.754263   584A      1.755441  
     585A      1.755564   586A      1.759693   587A      1.762600  
     588A      1.771818   589A      1.773208   590A      1.774913  
     591A      1.776811   592A      1.782769   593A      1.783539  
     594A      1.783729   595A      1.787184   596A      1.790350  
     597A      1.798766   598A      1.803186   599A      1.806705  
     600A      1.808727   601A      1.809415   602A      1.812562  
     603A      1.815120   604A      1.816454   605A      1.820733  
     606A      1.827895   607A      1.828687   608A      1.829110  
     609A      1.830285   610A      1.831902   611A      1.834134  
     612A      1.837226   613A      1.842221   614A      1.843821  
[...]
     805A      1.696883   806A      1.698888   807A      1.699841  
     808A      1.702176   809A      1.703531   810A      1.705181  
     811A      1.705749   812A      1.707882   813A      1.717583  
     814A      1.718655   815A      1.723213   816A      1.742035  
     817A      1.752050   818A      1.761185   819A      1.761289  
     820A      1.762260   821A      1.763146   822A      1.777769  
     823A      1.778072   824A      1.787770   825A      1.789175  
     826A      1.793316   827A      1.798788   828A      1.817865  
     829A      1.818936   830A      1.819041   831A      1.824874  
     832A      1.825407   833A      1.828635   834A      1.833851  
     835A      1.835914   836A      1.839236   837A      1.841830  
     838A      1.842749   839A      1.853299   840A      1.855625  
     841A      1.862702   842A      1.864876   843A      1.865759  
     844A      1.868728   845A      1.871281   846A      1.873444  
     847A      1.880558   848A      1.880787   849A      1.885817  
     850A      1.894964   851A      1.896311   852A      1.897311  
     853A      1.900172   854A      1.904024   855A      1.904405  
     856A      1.908915   857A      1.911393   858A      1.913977  
     859A      1.918372   860A      1.918507   861A      1.918961  
     862A      1.919578   863A      1.922708   864A      1.922970  
     865A      1.923338   866A      1.928538   867A      1.937593  
     868A      1.944567   869A      1.945559   870A      1.947894  
     871A      1.950531   872A      1.952720   873A      1.954229  
     874A      1.956013   875A      1.957857   876A      1.958237  
     877A      1.959483   878A      1.970458   879A      1.971419  
     880A      1.976444   881A      1.980109   882A      1.986922  
     883A      1.991356   884A      1.997783   885A      1.998567  
     886A      2.000208   887A      2.001257   888A      2.004105  
     889A      2.007281   890A      2.011826   891A      2.013045  
     892A      2.019096   893A      2.022963   894A      2.028729  
     895A      2.031588   896A      2.032364   897A      2.033215  
     898A      2.034039   899A      2.034506   900A      2.041202  
     901A      2.049881   902A      2.051157   903A      2.053755  
     904A      2.054381   905A      2.059595   906A      2.060726  
     907A      2.063782   908A      2.066258   909A      2.069011  
     910A      2.071302   911A      2.075265   912A      2.077676  
     913A      2.078591   914A      2.080171   915A      2.082369  
     916A      2.083887   917A      2.090106   918A      2.092103  
     919A      2.094168   920A      2.095497   921A      2.096060  
     922A      2.097731   923A      2.099798   924A      2.102115  
     925A      2.102727   926A      2.107837   927A      2.109056  
     928A      2.110407   929A      2.111888   930A      2.113214  
     931A      2.115569   932A      2.118402   933A      2.119562  
     934A      2.121305   935A      2.121668   936A      2.122040  
     937A      2.125006   938A      2.127586   939A      2.129086  
     940A      2.131328   941A      2.135086   942A      2.136880  
     943A      2.137534   944A      2.141019   945A      2.143587  
     946A      2.143979   947A      2.144916   948A      2.156544  
     949A      2.159304   950A      2.160516   951A      2.163511  
     952A      2.163814   953A      2.171808   954A      2.175024  
     955A      2.175927   956A      2.180476   957A      2.184426  
     958A      2.189218   959A      2.189556   960A      2.192067  
     961A      2.193121   962A      2.194417   963A      2.196809  
     964A      2.197561   965A      2.198783   966A      2.202652  
     967A      2.211757   968A      2.220320   969A      2.221128  
     970A      2.222283   971A      2.225170   972A      2.229852  
     973A      2.231449   974A      2.236262   975A      2.237321  
     976A      2.245125   977A      2.245735   978A      2.246120  
     979A      2.247504   980A      2.248285   981A      2.253360  
     982A      2.259740   983A      2.262377   984A      2.265520  
     985A      2.271122   986A      2.271384   987A      2.273688  
     988A      2.274135   989A      2.281359   990A      2.297786  
     991A      2.304218   992A      2.305811   993A      2.307124  
     994A      2.308424   995A      2.313135   996A      2.316709  
     997A      2.323587   998A      2.327187   999A      2.331552  
    1000A      2.331872  1001A      2.333773  1002A      2.336362  
    1003A      2.340399  1004A      2.351405  1005A      2.352983  
    1006A      2.354490  1007A      2.354781  1008A      2.358008  
    1009A      2.366118  1010A      2.368478  1011A      2.370710  
    1012A      2.381804  1013A      2.382539  1014A      2.389226  
    1015A      2.410222  1016A      2.416786  1017A      2.417893  
    1018A      2.424684  1019A      2.424970  1020A      2.425311  
    1021A      2.436707  1022A      2.441418  1023A      2.444509  
    1024A      2.449560  1025A      2.471496  1026A      2.476669  
    1027A      2.477962  1028A      2.486306  1029A      2.486862  
    1030A      2.493330  1031A      2.504845  1032A      2.516851  
    1033A      2.520643  1034A      2.529822  1035A      2.530649  
    1036A      2.533002  1037A      2.536385  1038A      2.542828  
    1039A      2.548000  1040A      2.551910  1041A      2.554380  
    1042A      2.555107  1043A      2.556426  1044A      2.557488  
    1045A      2.560763  1046A      2.560865  1047A      2.571003  
    1048A      2.573459  1049A      2.574278  1050A      2.576590  
    1051A      2.578215  1052A      2.587110  1053A      2.588093  
    1054A      2.588735  1055A      2.591263  1056A      2.593393  
    1057A      2.606840  1058A      2.611946  1059A      2.625685  
    1060A      2.625992  1061A      2.630356  1062A      2.633371  
    1063A      2.634229  1064A      2.642487  1065A      2.643011  
    1066A      2.653101  1067A      2.653877  1068A      2.659253  
    1069A      2.665886  1070A      2.679114  1071A      2.681836  
    1072A      2.685188  1073A      2.686714  1074A      2.690528  
    1075A      2.693665  1076A      2.704011  1077A      2.705404  
    1078A      2.713220  1079A      2.713663  1080A      2.719122  
    1081A      2.719383  1082A      2.723371  1083A      2.724872  
    1084A      2.735918  1085A      2.741796  1086A      2.742503  
    1087A      2.754865  1088A      2.757353  1089A      2.776373  
    1090A      2.779341  1091A      2.796938  1092A      2.797218  
    1093A      2.801979  1094A      2.817360  1095A      2.819598  
    1096A      2.830311  1097A      2.830718  1098A      2.852983  
    1099A      2.856438  1100A      2.858732  1101A      2.860579  
    1102A      2.862620  1103A      2.863131  1104A      2.871592  
    1105A      2.874139  1106A      2.882337  1107A      2.909882  
    1108A      2.920715  1109A      2.921204  1110A      2.925051  
    1111A      2.933433  1112A      2.938259  1113A      2.944199  
    1114A      2.949033  1115A      2.952939  1116A      2.955297  
    1117A      2.965526  1118A      2.971136  1119A      2.991397  
    1120A      3.013218  1121A      3.018062  1122A      3.019486  
    1123A      3.031141  1124A      3.046485  1125A      3.062062  
    1126A      3.065052  1127A      3.065526  1128A      3.074370  
    1129A      3.080293  1130A      3.092909  1131A      3.116340  
    1132A      3.120514  1133A      3.128588  1134A      3.133642  
    1135A      3.134297  1136A      3.139079  1137A      3.140862  
    1138A      3.148506  1139A      3.148987  1140A      3.150217  
    1141A      3.151493  1142A      3.152555  1143A      3.162760  
    1144A      3.163222  1145A      3.170288  1146A      3.172508  
    1147A      3.193060  1148A      3.211736  1149A      3.215044  
    1150A      3.221505  1151A      3.240451  1152A      3.276515  
    1153A      3.277931  1154A      3.278690  1155A      3.285277  
    1156A      3.288107  1157A      3.307107  1158A      3.345099  
    1159A      3.357744  1160A      3.419168  1161A      3.420635  
    1162A      3.443661  1163A      3.462923  1164A      3.486902  
    1165A      3.488948  1166A      3.539471  1167A      3.554287  
    1168A      3.581056  1169A      3.585765  1170A      3.597685  
    1171A      3.608869  1172A      3.629068  1173A      3.630720  
    1174A      3.654697  1175A      3.664828  1176A      3.672550  
    1177A      3.764931  1178A      3.774517  1179A      3.786031  
    1180A      3.790507  1181A      3.826942  1182A      3.871647  
    1183A      3.871961  1184A      3.879011  1185A      3.914513  
    1186A      3.914879  1187A      3.977694  1188A      3.979663  
    1189A      4.011494  1190A      4.052119  1191A      4.061427  
    1192A      4.093968  1193A      4.235761  1194A      4.240319  
    1195A      4.447566  1196A      4.466307  1197A      4.522894  
    1198A      4.764102  1199A      4.802058  1200A      4.856644  
    1201A      4.884538  1202A      4.961262  1203A      5.070702  
    1204A      5.079928  1205A      5.086221  1206A      5.132657  
    1207A      5.152462  1208A      5.400783  1209A      5.434223  
    1210A      5.760444  1211A      5.766095  1212A      6.077324  
    1213A     18.214960  1214A     18.466873  1215A     18.484443  
    1216A     18.575569  1217A     18.866292  1218A     25.360356  
    1219A     25.394155  

    Final Occupation by Irrep:
              A 
    DOCC [   171 ]
    NA   [   171 ]
    NB   [   171 ]

  @DF-RHF Final Energy: -2055.89473288732870

   => Energetics <=

    Nuclear Repulsion Energy =           6452.5568002797772351
    One-Electron Energy =              -15636.5085693504152005
    Two-Electron Energy =                7128.0570361833088100
    Total Energy =                      -2055.8947328873291553

Computation Completed


Properties will be evaluated at   0.000000,   0.000000,   0.000000 [a0]

Properties computed using the SCF density matrix


 Multipole Moments:

 ------------------------------------------------------------------------------------
     Multipole            Electronic (a.u.)      Nuclear  (a.u.)        Total (a.u.)
 ------------------------------------------------------------------------------------

 L = 1.  Multiply by 2.5417464519 to convert [e a0] to [Debye]
 Dipole X            :          0.0001135           -0.0000085            0.0001050
 Dipole Y            :          0.0035145           -0.0028843            0.0006302
 Dipole Z            :        361.6882920         -361.6961219           -0.0078299
 Magnitude           :                                                    0.0078559

 ------------------------------------------------------------------------------------

*** tstop() called on d-16-12-3 at Mon Jan 22 17:36:54 2024
Module time:
	user time   =    2846.18 seconds =      47.44 minutes
	system time =     177.71 seconds =       2.96 minutes
	total time  =        631 seconds =      10.52 minutes
Total time:
	user time   =    9433.75 seconds =     157.23 minutes
	system time =     755.63 seconds =      12.59 minutes
	total time  =       2838 seconds =      47.30 minutes
  Constructing Basis Sets for SAPT...

   => Loading Basis Set <=

    Name: (JUN-CC-PVDZ AUX)
    Role: RIFIT
    Keyword: DF_BASIS_SAPT
    atoms 1-2, 4-5, 10, 17-70 entry C          line   100 file /home/gridsan/tfroembgen/.conda/envs/psi4test/share/psi4/basis/jun-cc-pvdz-ri.gbs 
    atoms 3, 6                entry N          line   144 file /home/gridsan/tfroembgen/.conda/envs/psi4test/share/psi4/basis/jun-cc-pvdz-ri.gbs 
    atoms 7-9, 11-16, 71-88   entry H          line    30 file /home/gridsan/tfroembgen/.conda/envs/psi4test/share/psi4/basis/jun-cc-pvdz-ri.gbs 

   => Loading Basis Set <=

    Name: (JUN-CC-PVDZ AUX)
    Role: JKFIT
    Keyword: DF_BASIS_ELST
    atoms 1-2, 4-5, 10, 17-70 entry C          line   146 file /home/gridsan/tfroembgen/.conda/envs/psi4test/share/psi4/basis/jun-cc-pvdz-jkfit.gbs 
    atoms 3, 6                entry N          line   202 file /home/gridsan/tfroembgen/.conda/envs/psi4test/share/psi4/basis/jun-cc-pvdz-jkfit.gbs 
    atoms 7-9, 11-16, 71-88   entry H          line    70 file /home/gridsan/tfroembgen/.conda/envs/psi4test/share/psi4/basis/jun-cc-pvdz-jkfit.gbs 


  //>>>>>>>>>>>>>>>>>>>>>>>>>>>>>>>>>>>//
  //               SSAPT0              //
  //<<<<<<<<<<<<<<<<<<<<<<<<<<<<<<<<<<<//


*** tstart() called on d-16-12-3
*** at Mon Jan 22 17:36:55 2024

        SAPT0  
    Ed Hohenstein
     6 June 2009

      Orbital Information
  --------------------------
    NSO        =      1233
    NMO        =      1219
    NRI        =      4343
    NRI (Elst) =      5440
    NOCC A     =        26
    NOCC B     =       171
    FOCC A     =         7
    FOCC B     =        54
    NVIR A     =      1193
    NVIR B     =      1048

    Elst10,r            =    -0.012289688573 [Eh]
    Exch10              =     0.001004815332 [Eh]
    Exch10 (S^2)        =     0.001004733743 [Eh]

    Iter     Energy [mEh]          dE [mEh]         Residual      Time [s]
       1      -0.09488119       0.094881187       1.789512739           282
       2      -0.09958303       0.004701847       0.474976607           557
       3      -0.10501138       0.005428341       0.064746431           809
       4      -0.10480248      -0.000208894       0.029972622          1072
       5      -0.10473001      -0.000072469       0.005239461          1357
       6      -0.10474059       0.000010573       0.002587725          1629
       7      -0.10474349       0.000002907       0.001066940          1899
       8      -0.10474207      -0.000001424       0.000432596          2229
       9      -0.10474178      -0.000000286       0.000132174          2589
      10      -0.10474189       0.000000104       0.000030301          2837
      11      -0.10474191       0.000000022       0.000009023          3045
      12      -0.10474191      -0.000000004       0.000003207          3115
      13      -0.10474190      -0.000000003       0.000001089          3187
      14      -0.10474190       0.000000000       0.000000405          3222

    CHF Iterations converged


    Iter     Energy [mEh]          dE [mEh]         Residual      Time [s]
       1      -9.13682800       9.136828000      49.642735628           218
       2      -6.26678094      -2.870047064       6.474742619           423
       3      -6.28234856       0.015567627       2.343266028           461
       4      -6.43947559       0.157127029       0.528082340           486
       5      -6.44729952       0.007823924       0.147102258           515
       6      -6.44456335      -0.002736164       0.073190183           541
       7      -6.44337883      -0.001184519       0.030527527           562
       8      -6.44379069       0.000411854       0.020172161           584
       9      -6.44402890       0.000238211       0.010635491           612
      10      -6.44395594      -0.000072958       0.008479626           652
      11      -6.44388269      -0.000073252       0.003879670           680
      12      -6.44390008       0.000017395       0.001727096           699
      13      -6.44391289       0.000012812       0.000843876           720
      14      -6.44391329       0.000000400       0.000439875           741
      15      -6.44390960      -0.000003694       0.000255769           761
      16      -6.44390853      -0.000001071       0.000104300           784
      17      -6.44390981       0.000001282       0.000035465           811
      18      -6.44390981      -0.000000007       0.000015615           842
      19      -6.44390966      -0.000000143       0.000009389           863
      20      -6.44390964      -0.000000027       0.000004237           887
      21      -6.44390968       0.000000044       0.000002239           914
      22      -6.44390968       0.000000004       0.000001111           934
      23      -6.44390967      -0.000000010       0.000000629           961

    CHF Iterations converged

    Ind20,r (A<-B)      =    -0.000104741903 [Eh]
    Ind20,r (B<-A)      =    -0.006443909674 [Eh]
    Ind20,r             =    -0.006548651576 [Eh]
    Exch-Ind20,r (A<-B) =     0.000066001500 [Eh]
    Exch-Ind20,r (B<-A) =     0.000153107465 [Eh]
    Exch-Ind20,r        =     0.000219108965 [Eh]
    Disp20              =    -0.011289462173 [Eh]
    Disp20 (SS)         =    -0.005644731087 [Eh]
    Disp20 (OS)         =    -0.005644731087 [Eh]
    Exch-Disp20         =     0.000161854276 [Eh]
    Exch-Disp20 (SS)    =     0.000104789289 [Eh]
    Exch-Disp20 (OS)    =     0.000057064988 [Eh]

    SAPT Results 
  --------------------------------------------------------------------------------------------------------
    Electrostatics                -12.28968857 [mEh]      -7.71189601 [kcal/mol]     -32.26657290 [kJ/mol]
      Elst10,r                    -12.28968857 [mEh]      -7.71189601 [kcal/mol]     -32.26657290 [kJ/mol]

    Exchange                        1.00481533 [mEh]       0.63053114 [kcal/mol]       2.63814229 [kJ/mol]
      Exch10                        1.00481533 [mEh]       0.63053114 [kcal/mol]       2.63814229 [kJ/mol]
      Exch10(S^2)                   1.00473374 [mEh]       0.63047994 [kcal/mol]       2.63792808 [kJ/mol]

    Induction                      -6.68054482 [mEh]      -4.19210516 [kcal/mol]     -17.53976800 [kJ/mol]
      Ind20,r                      -6.54865158 [mEh]      -4.10934090 [kcal/mol]     -17.19348235 [kJ/mol]
      Exch-Ind20,r                  0.21910896 [mEh]       0.13749295 [kcal/mol]       0.57527051 [kJ/mol]
      delta HF,r (2)               -0.35100220 [mEh]      -0.22025721 [kcal/mol]      -0.92155616 [kJ/mol]

    Dispersion                    -11.12760790 [mEh]      -6.98267938 [kcal/mol]     -29.21553051 [kJ/mol]
      Disp20                      -11.28946217 [mEh]      -7.08424447 [kcal/mol]     -29.64047885 [kJ/mol]
      Exch-Disp20                   0.16185428 [mEh]       0.10156509 [kcal/mol]       0.42494834 [kJ/mol]
      Disp20 (SS)                  -5.64473109 [mEh]      -3.54212223 [kcal/mol]     -14.82023943 [kJ/mol]
      Disp20 (OS)                  -5.64473109 [mEh]      -3.54212223 [kcal/mol]     -14.82023943 [kJ/mol]
      Exch-Disp20 (SS)              0.10478929 [mEh]       0.06575627 [kcal/mol]       0.27512424 [kJ/mol]
      Exch-Disp20 (OS)              0.05706499 [mEh]       0.03580882 [kcal/mol]       0.14982410 [kJ/mol]

  Total HF                        -17.96541806 [mEh]     -11.27347003 [kcal/mol]     -47.16819861 [kJ/mol]
  Total SAPT0                     -29.09302595 [mEh]     -18.25614941 [kcal/mol]     -76.38372912 [kJ/mol]

  Special recipe for scaled SAPT0 (see Manual):
    Electrostatics sSAPT0         -12.28968857 [mEh]      -7.71189601 [kcal/mol]     -32.26657290 [kJ/mol]
    Exchange sSAPT0                 1.00481533 [mEh]       0.63053114 [kcal/mol]       2.63814229 [kJ/mol]
    Induction sSAPT0               -6.68049143 [mEh]      -4.19207166 [kcal/mol]     -17.53962784 [kJ/mol]
    Dispersion sSAPT0             -11.12756846 [mEh]      -6.98265463 [kcal/mol]     -29.21542698 [kJ/mol]
  Total sSAPT0                    -29.09293314 [mEh]     -18.25609116 [kcal/mol]     -76.38348543 [kJ/mol]
  --------------------------------------------------------------------------------------------------------

*** tstop() called on d-16-12-3 at Mon Jan 22 19:40:22 2024
Module time:
	user time   =    9099.85 seconds =     151.66 minutes
	system time =     997.53 seconds =      16.63 minutes
	total time  =       7407 seconds =     123.45 minutes
Total time:
	user time   =   18534.75 seconds =     308.91 minutes
	system time =    1753.19 seconds =      29.22 minutes
	total time  =      10246 seconds =     170.77 minutes

    Psi4 stopped on: Monday, 22 January 2024 07:40PM
    Psi4 wall time for execution: 2:50:47.05

*** Psi4 exiting successfully. Buy a developer a beer!
