LAMMPS data file via write_data, version 2 Aug 2023, timestep = 5010000, units = real

8250 atoms
15 atom types
8000 bonds
14 bond types
8250 angles
11 angle types
9250 dihedrals
16 dihedral types

0 40 xlo xhi
0 40 ylo yhi
0 120 zlo zhi

Masses

1 10.411
2 18.598
3 13.607
4 11.611
5 11.611
6 11.611
7 1.008
8 1.008
9 1.008
10 0.4
11 0.4
12 0.4
13 0.4
14 0.4
15 0.4

Bond Coeffs # harmonic

1 386.592 1.394
2 477.055 1.315
3 427.103 1.378
4 520.076 1.341
5 336.998 1.466
6 339.986 1.08
7 339.986 1.08
8 339.986 1.09
9 500 0
10 500 0
11 500 0
12 500 0
13 500 0
14 500 0

Angle Coeffs # harmonic

1 80.0072 109.5
2 70.0048 126.4
3 70.0048 108
4 70.0048 125.6
5 70.0048 109.8
6 35.0024 125.1
7 70.0048 107.1
8 35.0024 122
9 35.0024 130.9
10 37.5 110.7
11 32.9947 107.8

Dihedral Coeffs # opls

1 0 4.65105 0 0
2 0 4.65105 0 0
3 0 4.65105 0 0
4 0 4.65105 0 0
5 0 3 0 0
6 0 3 0 0
7 0 3 0 0
8 0 3 0 0
9 0 10.7505 0 0
10 0 10.7505 0 0
11 0 10.7505 0 0
12 0 0 0 0
13 0 0 0.124044 0
14 0 2 0 0
15 0 2.2 0 0
16 0 2.2 0 0

Atoms # full

5607 72 11 -1.371919 5.935729877600338 9.09195122142292 42.3134049610272 0 0 0
7757 430 14 -2.086039 2.423956881771869 6.897003553776863 41.949230735270156 0 1 0
6512 252 14 -2.086039 7.816879144846216 2.8879364685181357 40.1609977493625 1 1 0
6508 252 12 -1.907313 6.89849986977028 3.7619006805448407 40.69406482985388 1 1 0
1267 252 3 2.057313 6.931473494087185 3.7865922428400065 40.71398566016004 1 1 0
1271 252 5 1.956039 7.823394862596372 2.8676298924971397 40.18046201911303 1 1 0
1269 252 3 2.057313 5.758526135963052 2.1443811391086656 39.795394932968456 1 1 0
5606 72 10 -1.319327 6.2370335419000655 7.74374522623636 42.327076015083904 0 0 0
356 72 1 2.279327 6.241574746872568 7.758246088612774 42.31888805134792 0 0 0
359 72 2 0.881919 7.641061902350818 7.607668306135706 42.6024930660825 0 0 0
5608 72 11 -1.371919 6.010680574584337 7.286028821401669 41.04554540409115 0 0 0
6510 252 12 -1.907313 5.779851534302044 2.1281675150273203 39.7782463789797 1 1 0
5609 72 11 -1.371919 7.632884093652388 7.593624052457075 42.60535951798894 0 0 0
5610 72 11 -1.371919 5.367342541070915 7.178660311737004 43.192524583263506 0 0 0
1268 252 4 1.976039 5.718379235165442 3.260161380702158 40.52383875602229 1 1 0
6509 252 13 -2.086039 5.706119219014503 3.2364708500163677 40.49342918385052 1 1 0
360 72 2 0.881919 5.372715809133751 7.18163376218982 43.193747314627245 0 0 0
358 72 2 0.881919 6.012828044586571 7.297844685664065 41.02819937659131 0 0 0
1273 252 7 0.21 4.845432474630228 3.661611934896619 41.016993526862066 1 1 0
6511 252 14 -2.086039 7.085847284857855 1.8496155746696863 39.66182384927615 1 1 0
6514 252 15 -2.444943 4.680092744537813 1.2575045562007015 39.49365906126408 1 1 0
357 72 2 0.881919 5.942418656090122 9.108867501022957 42.3061197515586 0 0 0
1274 252 6 2.274943 4.665539908147433 1.251822739731848 39.51600833659134 1 1 0
1270 252 5 1.956039 7.078023679176881 1.8622356143457757 39.671470609730854 1 1 0
5291 9 10 -1.319327 9.450915199644466 1.9170921931675804 43.14293096644533 0 0 0
41 9 1 2.279327 9.456650293261095 1.9225669946703183 43.144589832227595 0 0 0
1272 252 6 2.274943 7.303128456500569 4.970752217450452 41.548714876693516 1 1 0
6513 252 15 -2.444943 7.298803032213598 4.9223702051542215 41.519989920250744 1 1 0
1279 252 9 0.13 6.45339704641957 5.444913113509563 42.03986396824066 1 1 0
1277 252 9 0.13 7.7774813529756415 4.48410876924291 42.40092824652073 1 1 0
7410 380 15 -2.444943 10.997548634672789 7.729447489360402 43.760351957916015 0 1 0
1278 252 9 0.13 7.891141334346798 5.81338750339485 41.18497488897664 1 1 0
42 9 2 0.881919 10.539919020510371 1.9192307650045721 42.4209202093697 0 0 0
5292 9 11 -1.371919 10.5281859669684 1.9162453949600289 42.428663455267575 0 0 0
4322 442 9 0.13 6.388839680887474 9.884292155653553 44.929430669169065 0 0 0
3323 380 8 0.21 13.672278285306724 6.97163518898718 44.453486249946124 0 1 0
1281 252 9 0.13 5.02055821728461 0.22388185449560127 39.58949869394506 1 1 0
1282 252 9 0.13 3.9324278676934616 1.332768006340748 40.318563376781626 1 1 0
5901 131 10 -1.319327 3.230355155449416 2.034326592595415 43.10837941905003 1 0 0
651 131 1 2.279327 3.2330567231028584 2.0326197503326275 43.10884665244018 1 0 0
1280 252 9 0.13 4.25371492779275 1.594398915543263 38.56672342249504 1 1 0
5295 9 11 -1.371919 9.249829568566737 3.2208111976871847 43.60407280202619 0 0 0
4117 430 3 2.057313 1.714919968762755 8.121704991492889 41.87032767113585 0 1 0
4123 430 8 0.21 3.4803457826970887 6.819383341163344 41.68285660095514 0 1 0
7760 430 15 -2.444943 2.2593804852522115 9.232076458975932 41.322240304482634 0 1 0
1506 266 9 0.13 12.279910970383456 0.9115947231010942 44.42385897690106 0 0 0
7758 430 14 -2.086039 1.5491474853122567 5.989882240585991 42.411524607115254 0 1 0
652 131 2 0.881919 3.9809272701442664 2.794672638389139 44.08083891791518 1 0 0
3322 380 6 2.274943 10.987952492964256 7.724445739479893 43.782293100870724 0 1 0
4124 430 8 0.21 1.5964708060602668 4.912916429295961 42.431176654908555 0 1 0
3330 380 9 0.13 11.777482759293035 8.197687345029383 43.1985256612377 0 1 0
4128 430 9 0.13 1.7375654566974323 10.200194980949147 41.525176276491266 0 1 0
4122 430 6 2.274943 2.2742064113681173 9.274948567879512 41.31533012852772 0 1 0
7754 430 12 -1.907313 0.48081197321952307 6.716069386621977 42.90905057559813 0 1 0
5905 131 11 -1.371919 2.0645041741251005 1.5102266036500613 43.49089461216437 1 0 0
2012 298 8 0.21 3.3843082524977537 5.750062986734822 44.76053265701501 0 0 0
7756 430 12 -1.907313 1.7087984242877556 8.102440423732622 41.88462977293469 0 1 0
1276 252 8 0.21 8.89404463966331 2.931295358754508 40.30717319369072 1 1 0
43 9 2 0.881919 8.374823641191243 1.4972833237167138 42.38241797305701 0 0 0
5293 9 11 -1.371919 8.373994495046585 1.4912081806876127 42.37712952988212 0 0 0
653 131 2 0.881919 3.0990152255650316 2.8805322620002163 42.01272075883762 1 0 0
3947 419 8 0.21 6.357801613186864 0.12028577502024498 42.495484092974436 1 0 0
1599 272 9 0.13 2.173833280686352 13.01682088997238 44.29915260291271 1 0 0
7407 380 14 -2.086039 12.911847336359497 6.230889538910088 44.741871364466654 0 1 0
4129 430 9 0.13 3.298487173079241 9.478880695878333 41.62735986763801 0 1 0
4118 430 5 1.956039 2.437248703466505 6.902542486222213 41.95012648637062 0 1 0
3318 380 5 1.956039 12.930748075844269 6.248310590680395 44.75899183404364 0 1 0
4116 430 4 1.976039 0.5152603844283731 7.9533661406661675 42.41148559677346 0 1 0
4115 430 3 2.057313 0.473453230415719 6.712753182473732 42.91478104098191 0 1 0
4119 430 5 1.956039 1.5624392008419499 5.99199689582367 42.402443468311496 0 1 0
4441 450 7 0.21 0.11409167888594586 0.8325021456133196 41.89432886174986 0 1 0
1275 252 8 0.21 7.475474662936584 0.961068042346871 39.22837950462068 1 1 0
4130 430 9 0.13 2.2336154494989144 9.20400712680907 40.22839845965434 0 1 0
4315 442 8 0.21 7.175176200646789 6.786604246068684 44.907858434658635 0 0 0
654 131 2 0.881919 4.196187255752632 1.1437415831639823 42.62857808121058 1 0 0
6028 156 11 -1.371919 0.3442971208153987 12.88310371493006 41.2348524318085 0 0 0
778 156 2 0.881919 0.33865012241296866 12.874452055747877 41.23004685748994 0 0 0
5904 131 11 -1.371919 4.197401862071023 1.1489551440964538 42.6246992105387 1 0 0
7406 380 12 -1.907313 11.569997480009768 6.55338368160453 44.51444839718232 0 1 0
5903 131 11 -1.371919 3.1103444792866433 2.8865758983754444 42.009228469511264 1 0 0
45 9 2 0.881919 9.255729038472754 3.2248837430506185 43.608495189958624 0 0 0
2015 298 9 0.13 3.1996163460269056 8.692294590849652 44.03503116583256 0 0 0
3317 380 3 2.057313 11.57100388380562 6.5467100365617386 44.53067783355249 0 1 0
5902 131 11 -1.371919 3.9835565694432677 2.7892164537782254 44.083104064176936 1 0 0
3328 380 9 0.13 10.169366233394426 7.376827024547014 43.15207226319885 0 1 0
5294 9 11 -1.371919 9.614525082646455 1.1770103385729758 44.29796575263432 0 0 0
44 9 2 0.881919 9.612966643220913 1.1800721963684309 44.29964837141706 0 0 0
3329 380 9 0.13 10.68482366940353 8.492483191301872 44.49386310569596 0 1 0
7755 430 13 -2.086039 0.513672142620566 7.941166336579577 42.39776356182319 0 1 0
655 131 2 0.881919 2.060139963596434 1.509001116340862 43.49065995128821 1 0 0
4321 442 9 0.13 8.195281122666806 9.876419143945691 44.57693100275286 0 0 0
780 156 2 0.881919 2.324201638995695 13.315119990397914 42.03475289716346 0 0 0
2000 297 9 0.13 12.527135624304716 13.077112488105026 44.768726737610635 0 1 0
6389 228 11 -1.371919 16.11342393091647 7.459545012888831 44.75963811775403 0 0 0
1139 228 2 0.881919 16.12140314185318 7.46493545231622 44.742449677616 0 0 0
158 32 2 0.881919 0.06531819527706031 11.321592051406467 44.26666485079691 0 1 0
5408 32 11 -1.371919 0.060276496882964686 11.308216998950094 44.284864205259886 0 1 0
5010 485 9 0.13 6.150969270875793 2.889527069857289 44.9298268868486 1 0 0
6030 156 11 -1.371919 2.3319263717785117 13.322507486623275 42.04477868690058 0 0 0
4126 430 9 0.13 0.12988076401057924 6.247172717070296 44.830415925614375 0 1 0
2001 297 9 0.13 12.61903715282518 11.311226182973678 44.700199655364145 0 1 0
6534 255 15 -2.444943 9.040469112007083 13.007422867578928 52.221415542704015 0 0 0
411 83 1 2.279327 8.623487380141185 3.601000830023059 48.73239445974719 0 0 0
5661 83 10 -1.319327 8.627132596675608 3.6001380788714425 48.733167822980924 0 0 0
686 138 1 2.279327 6.28386603209356 8.002771382748923 53.252275475036924 1 1 0
5936 138 10 -1.319327 6.289306257411637 7.996534073141472 53.256542467490476 1 1 0
5939 138 11 -1.371919 6.202787865059484 7.803996971863187 51.87498699344533 1 1 0
689 138 2 0.881919 6.196281570477895 7.8056476355857685 51.87592863189051 1 1 0
690 138 2 0.881919 5.485520985707334 7.021982410805042 53.75816289284254 1 1 0
5940 138 11 -1.371919 5.493354391557806 7.0225551838300335 53.76491442616659 1 1 0
688 138 2 0.881919 5.782802464707461 9.244515053615858 53.54284522319677 1 1 0
5938 138 11 -1.371919 5.791452322875934 9.238818585900352 53.536246662682146 1 1 0
2004 298 4 1.976039 2.316762266663956 7.760777863209685 47.040540843524674 0 0 0
1008 202 2 0.881919 3.4738558455180573 2.770837007013157 51.354804856898674 1 1 0
1006 202 1 2.279327 3.0401138202513374 2.850311152910586 50.06260600998285 1 1 0
6256 202 10 -1.319327 3.0349614957464577 2.8421994039758003 50.06428319798634 1 1 0
6258 202 11 -1.371919 3.4783072586072024 2.756761623227118 51.35611165013916 1 1 0
6411 233 10 -1.319327 5.083489922107831 10.467148576535314 58.044101590666166 1 0 0
1161 233 1 2.279327 5.084188682745311 10.463066486629412 58.03925514917739 1 0 0
4317 442 9 0.13 6.799339962586804 6.794870359882093 49.914794589841996 0 0 0
5665 83 11 -1.371919 9.00163376925709 2.3016040852244752 48.15320672800604 0 0 0
415 83 2 0.881919 9.002726872682928 2.300772038072072 48.15965330290832 0 0 0
1968 295 9 0.13 19.888620929837558 2.5104586189066946 49.99332389621262 0 1 0
6259 202 11 -1.371919 3.373169260271727 4.054464190216033 49.58504191862533 1 1 0
6257 202 11 -1.371919 3.540832149839184 1.804578624690284 49.42170511022074 1 1 0
4312 442 6 2.274943 6.07567138867168 7.265969597145114 49.24961086284136 0 0 0
1009 202 2 0.881919 3.3809554221617466 4.06742670627745 49.58539778171445 1 1 0
7843 442 15 -2.444943 6.094070572286542 7.260588399395894 49.20144541266392 0 0 0
7838 442 12 -1.907313 6.769848296612237 7.547544278101813 47.95507405723909 0 0 0
4307 442 3 2.057313 6.752681906130749 7.521370197208858 47.977771540803 0 0 0
1007 202 2 0.881919 3.5455361020892195 1.8034898375408714 49.41892746101125 1 1 0
2005 298 3 2.057313 1.8155817502912843 6.608751094356505 47.45202356034439 0 0 0
3587 397 3 2.057313 7.150863123126343 1.7385050916750502 51.99206952463572 0 0 0
7523 397 12 -1.907313 7.164630556828049 1.761292547381799 52.010529705304464 0 0 0
6613 267 12 -1.907313 4.226849407524363 2.237137542202037 55.67592114609702 0 0 0
4318 442 9 0.13 5.683802674722776 8.202909839960656 49.645441778405065 0 0 0
3592 397 6 2.274943 6.35093195824423 0.8998262843631678 51.09586715619534 0 0 0
7528 397 15 -2.444943 6.3802177623242065 0.9188375989985753 51.12881435871832 0 0 0
7527 397 14 -2.086039 8.024404293683515 1.3547040727918418 52.99203838690503 0 0 0
3591 397 5 1.956039 8.020678909733391 1.3746928021870333 53.0027573267184 0 0 0
7526 397 14 -2.086039 8.31614138607178 2.3928198632805926 53.731942714250636 0 0 0
3590 397 5 1.956039 8.320948382627055 2.4264121568874484 53.71876789326972 0 0 0
5409 32 11 -1.371919 0.9867268868960744 10.32861720713808 46.09974935516609 0 1 0
1507 267 3 2.057313 4.22872674728168 2.2505218228559336 55.68420751548429 0 0 0
4313 442 7 0.21 7.121173213678272 9.595582500132796 48.02563171174571 0 0 0
6831 298 13 -2.086039 2.2942236158862994 7.721671672802642 47.05093915353163 0 0 0
4308 442 4 1.976039 7.124881474149844 8.662168809923989 47.48237733672477 0 0 0
7839 442 13 -2.086039 7.128479766989505 8.672793109571103 47.45968759415928 0 0 0
413 83 2 0.881919 7.270592382437767 3.7005009205575754 48.89766596895999 0 0 0
2016 298 9 0.13 0.856021864952092 6.769020801696454 49.36508827558196 0 0 0
6832 298 12 -1.907313 1.834260946407742 6.569301251646594 47.42690421079841 0 0 0
5937 138 11 -1.371919 7.702594420321319 8.01219918295025 53.61073298079558 1 1 0
2010 298 6 2.274943 0.645757005748757 6.580836222747882 48.31224723811724 0 0 0
5663 83 11 -1.371919 7.281773509984584 3.7012391206255986 48.8917255699854 0 0 0
6617 267 14 -2.086039 4.825453291671246 1.0851932455043858 56.092181689407106 0 0 0
687 138 2 0.881919 7.696352336229896 8.02177930920329 53.60175901999121 1 1 0
6836 298 15 -2.444943 0.6804281792461833 6.59198045743181 48.28559714002547 0 0 0
6834 298 14 -2.086039 2.9533834801910928 6.268078732096157 45.591815677226656 0 0 0
2007 298 5 1.956039 2.95079954926185 6.2459863541426355 45.616412652848645 0 0 0
7487 391 15 -2.444943 7.507745778069719 7.6189537223457435 56.603868421088265 1 0 0
3498 391 6 2.274943 7.472861792639819 7.628339128779869 56.58884707204519 1 0 0
1511 267 5 1.956039 4.823749461107498 1.0715875445248297 56.100547112929284 0 0 0
6833 298 14 -2.086039 2.3249304077533774 5.602638469925149 46.60838598652453 0 0 0
3493 391 3 2.057313 8.958566863707441 7.785591641037231 56.84552584530372 1 0 0
2009 298 7 0.21 2.212968663305879 8.67588424562827 47.60463997289724 0 0 0
7626 411 15 -2.444943 1.196308534962333 1.0435829281132052 47.10827959067464 1 0 0
2006 298 5 1.956039 2.3077087980967925 5.610595358273559 46.647362296230654 0 0 0
3499 391 8 0.21 8.88639720843743 8.037100906178978 58.89266679919262 1 0 0
3601 397 9 0.13 6.747279580412269 5.093885039816468 53.71605600608573 0 0 0
1516 267 8 0.21 5.324787311009009 1.020775057875941 57.0559429876757 0 0 0
7483 391 12 -1.907313 8.986732074715325 7.796153216314962 56.84897907133793 1 0 0
7484 391 14 -2.086039 9.524563332606723 8.011827871254928 58.02211036384744 1 0 0
3494 391 5 1.956039 9.530155366257087 8.014939030934066 58.025784269135926 1 0 0
7482 391 13 -2.086039 9.927648099304706 7.828213396083821 55.93638958237102 1 0 0
5398 30 11 -1.371919 10.8135975260989 9.114825371343724 48.48054556623331 0 1 0
2003 298 3 2.057313 3.0079336923627555 7.647258727517808 45.8848034950955 0 0 0
3492 391 4 1.976039 9.9193390985499 7.819428441725706 55.930992374677274 1 0 0
2011 298 8 0.21 2.132530580285705 4.5760194441595905 46.90302942590063 0 0 0
3495 391 5 1.956039 10.851430280199365 8.258507471707942 57.819946367573216 1 0 0
7485 391 14 -2.086039 10.854062996991164 8.242817816648731 57.8239370731146 1 0 0
412 83 2 0.881919 9.275334966081306 3.7897352027554283 49.86809543181238 0 0 0
2018 298 9 0.13 0.12463410828814396 5.628228995818345 48.40748870936039 0 0 0
1322 255 6 2.274943 4.26664996154779 12.11541665382269 51.93923978404485 0 0 0
1517 267 9 0.13 4.060799444949707 3.3378836493115314 57.548257216141145 0 0 0
6618 267 15 -2.444943 4.246109805188849 3.449769787835533 56.45567891814344 0 0 0
3588 397 4 1.976039 7.236656877715894 3.0339133968704592 51.953458649460174 0 0 0
1519 267 9 0.13 3.3628664659074836 4.058030134865785 56.24121842302058 0 0 0
3821 411 9 0.13 2.1864263397579284 0.6903865416237185 46.851077271830995 1 0 0
1512 267 6 2.274943 4.250363204484977 3.4734199121688363 56.483458637309425 0 0 0
3598 397 9 0.13 6.661973096946527 0.7419644450939952 50.06318433653555 0 0 0
8140 485 13 -2.086039 7.061337818963623 0.42815695166554835 46.36343515567003 1 0 0
1518 267 9 0.13 5.22885101462005 3.9271739609348844 56.32607905344938 0 0 0
1497 266 7 0.21 14.239188103555074 1.6108110232406003 45.78949971044774 0 0 0
4897 478 9 0.13 1.2473637764283416 13.141279941108971 48.267894620035044 1 -1 0
4997 485 3 2.057313 6.065933809021453 1.246764240143686 46.132440457384305 1 0 0
4412 448 8 0.21 19.952376617440777 4.187527895750287 55.369481830931804 0 0 0
3600 397 9 0.13 8.093160076003064 5.5346350790487095 52.64172532236749 0 0 0
4311 442 5 1.956039 6.9810910483472135 6.567646879743034 47.07321073182034 0 0 0
3589 397 3 2.057313 7.932831136048828 3.5046190184719466 52.94543130415649 0 0 0
7529 397 15 -2.444943 7.771661029201908 4.820483383777263 53.41406207931095 0 0 0
7525 397 12 -1.907313 7.953348368162422 3.471385225668104 52.96265167277698 0 0 0
3594 397 6 2.274943 7.772172970844585 4.855573226801404 53.43162543899839 0 0 0
7524 397 13 -2.086039 7.242614186056001 3.0459515175966483 51.982844968828886 0 0 0
3593 397 7 0.21 6.538808430783072 3.5875903913162435 51.342844577277496 0 0 0
5662 83 11 -1.371919 9.27358398789307 3.789770803476206 49.86473438312339 0 0 0
3602 397 9 0.13 8.329962009991085 5.071101371478761 54.34295363703758 0 0 0
1508 267 4 1.976039 3.611974929769649 1.9466467891993464 54.521041824855374 0 0 0
6614 267 13 -2.086039 3.620040237124684 1.930186807563987 54.52817678438279 0 0 0
6415 233 11 -1.371919 4.692359499501985 11.46195274747848 57.18104989433615 1 0 0
1165 233 2 0.881919 4.700378464490804 11.466755762035037 57.17629952469995 1 0 0
6414 233 11 -1.371919 4.3585794796499515 9.302137533916957 57.76597755247639 1 0 0
1513 267 7 0.21 3.0322170037237197 2.7134992828597913 54.02888562522393 0 0 0
1509 267 3 2.057313 3.784913534668298 0.6604300448528335 54.137805710842436 0 0 0
6615 267 12 -1.907313 3.799565760525686 0.6566063579723913 54.147007574730694 0 0 0
1164 233 2 0.881919 4.356546198312432 9.289007992504423 57.77093097944932 1 0 0
6406 232 10 -1.319327 4.251796715011417 11.09577463219611 48.070209395450576 1 1 0
4319 442 9 0.13 5.145882953523005 6.710178931237487 49.12840580077577 0 0 0
1156 232 1 2.279327 4.249902989329254 11.089888616609917 48.064334468670225 1 1 0
3504 391 9 0.13 7.322293618785671 6.681663702729565 56.069969030395114 1 0 0
3506 391 9 0.13 7.049311345161602 8.458197429284139 56.02312643049507 1 0 0
3384 384 6 2.274943 2.872201480262025 7.488569276359741 55.1025597720469 1 1 0
3505 391 9 0.13 6.8604796951649165 7.602699273210351 57.49019692388282 1 0 0
7437 384 15 -2.444943 2.850688255637286 7.509609131357664 55.10764920802116 1 1 0
6530 255 13 -2.086039 6.713239816886703 12.23012429229787 52.19247705812292 0 0 0
1316 255 4 1.976039 6.726901597623271 12.233036199449714 52.19767423882376 0 0 0
1502 266 9 0.13 17.368135027238605 1.4515391105928608 46.039889062169706 0 0 0
6409 232 11 -1.371919 3.5444996353765466 11.235758584599171 46.95550197448117 1 1 0
1159 232 2 0.881919 3.531554617371867 11.235808059565032 46.94765075833913 1 1 0
7433 384 13 -2.086039 1.3235058080721094 8.930677808389126 53.80306580342745 1 1 0
6407 232 11 -1.371919 5.66160761950629 11.342146003910106 47.95877835254066 1 1 0
1157 232 2 0.881919 5.653683354420948 11.346101156556216 47.95674509086762 1 1 0
3597 397 9 0.13 5.457776245090024 1.5104188410665866 50.963390999738614 0 0 0
4720 467 9 0.13 7.36778028235499 12.714430493520174 48.414297963931126 1 0 0
659 132 2 0.881919 6.017404178256294 3.7899604727779264 58.615970195341795 0 1 0
1520 267 9 0.13 2.618728303859732 0.8122279295514144 52.441942603128055 0 0 0
3381 384 3 2.057313 0.814710934165585 10.184261102557729 54.0363941143129 1 1 0
5909 132 11 -1.371919 6.023018677492238 3.790698016505148 58.61463109807794 0 1 0
6535 255 15 -2.444943 4.297701104474037 12.138159791473267 51.95776769684433 0 0 0
1321 255 7 0.21 6.920313510211521 11.175020720798436 52.099713481594925 0 0 0
1655 276 5 1.956039 9.201228008417912 11.74647863179488 56.59649452557161 -1 0 0
6680 276 14 -2.086039 9.207244377646292 11.739144644583083 56.60097338374489 -1 0 0
3595 397 8 0.21 8.809527448298374 2.667789582552437 54.65119907127591 0 0 0
6616 267 14 -2.086039 4.467378076113434 0.138641641607626 55.1893229721058 0 0 0
1330 255 9 0.13 4.351376075471249 11.10067851778365 51.55035993210051 0 0 0
5910 132 11 -1.371919 7.820206375770021 2.5443331211197027 58.481212238272896 0 1 0
660 132 2 0.881919 7.808443034332129 2.546854581194533 58.47465218740574 0 1 0
657 132 2 0.881919 7.502163518098609 4.085067851351933 56.95144141547585 0 1 0
6410 232 11 -1.371919 3.984882442330643 9.734030361348141 48.4383988108547 1 1 0
4309 442 3 2.057313 7.308207586339295 8.579424037798837 46.205206774800864 0 0 0
1510 267 5 1.956039 4.468395586382834 0.1362371913547785 55.194804809541104 0 0 0
5708 92 11 -1.371919 1.184285099086575 4.535420685621851 54.996336960617384 -1 0 0
5906 132 10 -1.319327 7.324440524022083 3.8067650586818838 58.247184337346056 0 1 0
1160 232 2 0.881919 3.989020467695867 9.732499238590702 48.44513908747922 1 1 0
7435 384 14 -2.086039 1.5677236752312573 10.815911687362943 54.98047253967351 1 1 0
1329 255 9 0.13 3.63622707534229 12.610634712926835 51.20070991210857 0 0 0
656 132 1 2.279327 7.3257366317583 3.8130530490576087 58.24633018654588 0 1 0
3385 384 7 0.21 0.9014233354987954 8.179647925950535 53.158704117097706 1 1 0
5907 132 11 -1.371919 7.49559223532327 4.080137841229631 56.95807588040161 0 1 0
3388 384 8 0.21 3.2180648483518812 10.056521302238377 56.19850563012715 1 1 0
8096 478 15 -2.444943 0.8710729678611366 12.235999095034469 48.75886864198721 1 -1 0
7434 384 12 -1.907313 0.833448085284557 10.158587127307333 54.037886088378855 1 1 0
3382 384 5 1.956039 1.5626618518832438 10.80851521374778 55.006918419454735 1 1 0
3379 384 3 2.057313 2.240744449146544 8.762425963866823 54.744680692251 1 1 0
3390 384 9 0.13 2.770424317363896 6.79053107189895 54.271606450477194 1 1 0
1393 259 9 0.13 10.654062842616751 0.4739743658678261 51.347532736348874 0 1 0
7436 384 14 -2.086039 2.38903323085977 9.904848424074114 55.50934838250472 1 1 0
7432 384 12 -1.907313 2.236599004949309 8.783943354137108 54.74848172977334 1 1 0
8141 485 12 -1.907313 6.058798017260264 1.2189243097322722 46.13102773888615 1 0 0
3389 384 9 0.13 2.423855607831641 6.977876319014558 55.95477975513744 1 1 0
1654 276 5 1.956039 8.054050701900886 12.378241815401005 56.35613724226459 -1 0 0
3391 384 9 0.13 3.9415071426582977 7.537206647461457 55.30827970616369 1 1 0
3383 384 5 1.956039 2.4018164574994016 9.899124063714613 55.509039017768075 1 1 0
3380 384 4 1.976039 1.3087424782927497 8.944915448833877 53.80279758656137 1 1 0
6679 276 14 -2.086039 8.061409695311571 12.38753499822969 56.34851025022046 -1 0 0
3387 384 8 0.21 1.3896259235163013 11.856028302880265 55.20484432817112 1 1 0
56 12 1 2.279327 19.623700757510605 7.769440819697551 52.13214063250099 1 0 0
6260 202 11 -1.371919 1.6633321710233937 2.711627059880107 50.119338105870064 1 1 0
5002 485 6 2.274943 6.100822947069932 2.729283330502387 46.00681649005604 1 0 0
3497 391 7 0.21 9.644223198089213 7.784624244999156 54.88720172554749 1 0 0
658 132 2 0.881919 8.126203433250971 4.7522153437421535 59.10300629390824 0 1 0
5003 485 8 0.21 4.074416203364201 0.9103477036816704 45.61510084800679 1 0 0
458 92 2 0.881919 1.186551917678202 4.5437339151690495 54.99164720053738 -1 0 0
1957 295 3 2.057313 18.486715743402648 0.9111913844898952 50.581116333274274 0 1 0
1659 276 8 0.21 7.127335686565732 11.953647694822255 55.999318927865886 -1 0 0
5908 132 11 -1.371919 8.124418734206323 4.745354335510828 59.109683439982355 0 1 0
6531 255 12 -1.907313 5.581297885148489 12.85218920296806 52.21479838437158 0 0 0
5274 5 11 -1.371919 12.53428776991241 3.65335213862529 54.404018038247365 0 0 0
1996 297 8 0.21 16.751502846220383 11.119129923815633 46.529082370550746 0 1 0
8145 485 15 -2.444943 6.101397271678169 2.705432503527613 46.013999402450615 1 0 0
1328 255 9 0.13 3.7421641664501055 11.80071802432555 52.84144821681101 0 0 0
4896 478 9 0.13 0.8196294693129911 11.381963858963053 48.034083142162785 1 -1 0
4996 485 4 1.976039 7.075706646512008 0.44295215258451703 46.36417729540227 1 0 0
1317 255 3 2.057313 5.561707893408393 12.820886283877751 52.20770672114396 0 0 0
8142 485 14 -2.086039 5.035232275462478 0.4751184546420757 45.8405998442151 1 0 0
6830 298 12 -1.907313 2.9983013265514726 7.644767790238565 45.90502048001637 0 0 0
3755 407 8 0.21 15.614571270636485 12.055347040732014 52.22745548624235 -1 0 0
4262 439 5 1.956039 2.2204378575799737 1.0526548055503235 58.253119247571384 0 -1 0
1503 266 9 0.13 16.587887854179666 1.6221394294373825 47.41852475303811 0 0 0
3596 397 8 0.21 8.10350466994056 0.33851219348463313 53.295794552127035 0 0 0
1745 281 9 0.13 19.967243961821836 8.33884776370702 46.76127665203583 1 0 0
4998 485 5 1.956039 5.043853838368871 0.48622137795078096 45.831220056909785 1 0 0
7841 442 14 -2.086039 7.19120102814762 7.199686778753262 45.89864420349293 0 0 0
1811 286 3 2.057313 16.181470652292308 6.3715232327731135 51.09389737275122 -1 -1 0
7840 442 12 -1.907313 7.295748683170868 8.557292206243595 46.189260455601215 0 0 0
6835 298 15 -2.444943 3.597713565209913 8.68438756590448 45.045648362354044 0 0 0
159 32 2 0.881919 0.9977274449400708 10.334284166554403 46.0978556071601 0 1 0
3816 411 6 2.274943 1.2000097860760315 1.070312531968034 47.1170450617363 1 0 0
1660 276 8 0.21 9.402573511180263 10.691904392920557 56.4793018567523 -1 0 0
5354 21 11 -1.371919 2.412311275279516 3.5950577374186716 59.44072467396167 1 0 0
2008 298 6 2.274943 3.6041119456594584 8.710829903063827 45.047029055074034 0 0 0
6676 276 12 -1.907313 10.172219648535675 12.620880416083232 56.861258456399696 -1 0 0
1651 276 3 2.057313 10.200373271660915 12.62245993695021 56.86503055440464 -1 0 0
7820 439 14 -2.086039 2.2331131665672457 1.0180010588950268 58.260769740779864 0 -1 0
6606 266 12 -1.907313 15.662849203984559 0.005577139346043104 46.3136174524571 0 0 0
1994 297 6 2.274943 12.668112526382876 12.174699954484307 45.36360341836 0 1 0
6611 266 15 -2.444943 16.794648661431648 0.7872385959757712 46.728060957359304 0 0 0
5352 21 11 -1.371919 2.5352996131654577 5.769009820074605 59.381247732480865 1 0 0
4713 467 7 0.21 10.172522624006511 11.583787278287401 48.30047599513916 1 0 0
2014 298 9 0.13 4.693532723975931 8.744522660768896 45.035755109572904 0 0 0
4890 478 6 2.274943 0.9126065877373173 12.213750125864012 48.73235737401101 1 -1 0
4316 442 8 0.21 6.945127519958671 5.502957026493059 47.2508138384741 0 0 0
4413 448 9 0.13 19.23334613717243 2.86641149425696 58.25982214080294 0 0 0
8073 475 14 -2.086039 16.573223553745855 5.363472197178003 56.544629980813575 0 0 0
1970 295 9 0.13 18.63611665790398 2.9601669625043194 51.19315907048792 0 1 0
104 21 2 0.881919 2.4084443345422986 3.609416580238066 59.441886323862484 1 0 0
1320 255 6 2.274943 9.083598644440292 13.01575161788639 52.24573427158881 0 0 0
102 21 2 0.881919 2.5258554201949237 5.779066951024738 59.366823839472296 1 0 0
4310 442 5 1.956039 7.195640025296883 7.21608414504688 45.89857931387841 0 0 0
4320 442 9 0.13 7.760729882031453 10.695137540109195 45.84879696480103 0 0 0
7842 442 14 -2.086039 6.954425413623026 6.574451138113705 47.082619777668526 0 0 0
1817 286 7 0.21 16.88434903362454 8.35202561869406 51.47333645139049 -1 -1 0
1162 233 2 0.881919 5.059381761452943 10.894688284498105 59.33042754124225 1 0 0
1496 266 6 2.274943 16.844710519823003 0.8050798762415888 46.744317010632884 0 0 0
3750 407 5 1.956039 16.54133531938876 11.991631067995417 52.77831723507413 -1 0 0
7596 407 14 -2.086039 16.532410911671406 11.981963101054484 52.76378918211664 -1 0 0
4719 467 9 0.13 13.418936000529563 12.959766922240632 48.729802122061706 1 0 0
414 83 2 0.881919 8.892849254364027 4.550664465568335 47.72639464092096 0 0 0
5664 83 11 -1.371919 8.888612990143454 4.536691344191909 47.71890264857285 0 0 0
5397 30 11 -1.371919 12.159994436071479 9.000568867246647 46.76466013046554 0 1 0
6752 286 15 -2.444943 15.742352043858109 8.369472446985776 54.01846160785227 -1 -1 0
5283 7 11 -1.371919 17.7525813314853 4.8144963989567495 59.93609550928239 2 1 0
460 92 2 0.881919 0.2508655411862236 2.55305814653358 54.42676908198376 -1 0 0
147 30 2 0.881919 12.166811260557123 8.985469062446175 46.76051519515166 0 1 0
3919 417 9 0.13 9.83789348697784 5.6837897031760924 51.231668519095514 -1 0 0
1948 294 8 0.21 2.63018941318516 12.303312717973743 57.571277559022576 1 0 0
7404 380 12 -1.907313 11.807302066418401 4.7430388953322 45.782783303056185 0 1 0
2013 298 9 0.13 3.2459475492047454 9.699279185752474 45.33475607928694 0 0 0
1010 202 2 0.881919 1.674802321252239 2.71414183489461 50.12365473450869 1 1 0
4263 439 5 1.956039 1.2413325019885808 1.4909193194002532 57.44069818785231 0 -1 0
2234 312 6 2.274943 9.056128168914205 0.7115044196615965 56.78410704114968 0 1 0
8013 467 12 -1.907313 11.46135821030947 13.205305840490258 48.65633586850639 1 0 0
4708 467 4 1.976039 10.305701550404446 12.643686049225304 48.45946524343958 1 0 0
3752 407 6 2.274943 18.957052595506163 12.109546468230523 55.55708291061744 -1 0 0
25 5 2 0.881919 12.737588188782826 5.870711229594523 54.902075848606216 0 0 0
4267 439 8 0.21 2.8235139759790555 1.6369419033083707 58.93231532624459 0 -1 0
3757 407 9 0.13 18.80676877821261 12.984623967212032 56.189344376545776 -1 0 0
258 52 2 0.881919 19.305675076346915 1.372892359462201 46.71724557476638 0 0 0
3761 407 9 0.13 17.10731223881402 11.079745604914079 50.092737807267355 -1 0 0
2240 312 9 0.13 9.515301436735152 1.1678734323744449 57.66102652682777 0 1 0
1956 295 4 1.976039 17.386304500348892 0.5101182582762761 51.1981547873145 0 1 0