
    -----------------------------------------------------------------------
          Psi4: An Open-Source Ab Initio Electronic Structure Package
                               Psi4 1.9 release

                         Git: Rev {} zzzzzzz 


    D. G. A. Smith, L. A. Burns, A. C. Simmonett, R. M. Parrish,
    M. C. Schieber, R. Galvelis, P. Kraus, H. Kruse, R. Di Remigio,
    A. Alenaizan, A. M. James, S. Lehtola, J. P. Misiewicz, M. Scheurer,
    R. A. Shaw, J. B. Schriber, Y. Xie, Z. L. Glick, D. A. Sirianni,
    J. S. O'Brien, J. M. Waldrop, A. Kumar, E. G. Hohenstein,
    B. P. Pritchard, B. R. Brooks, H. F. Schaefer III, A. Yu. Sokolov,
    K. Patkowski, A. E. DePrince III, U. Bozkaya, R. A. King,
    F. A. Evangelista, J. M. Turney, T. D. Crawford, C. D. Sherrill,
    J. Chem. Phys. 152(18) 184108 (2020). https://doi.org/10.1063/5.0006002

                            Additional Code Authors
    E. T. Seidl, C. L. Janssen, E. F. Valeev, M. L. Leininger,
    J. F. Gonthier, R. M. Richard, H. R. McAlexander, M. Saitow, X. Wang,
    P. Verma, M. H. Lechner, A. Jiang, S. Behnle, A. G. Heide,
    M. F. Herbst, and D. L. Poole

             Previous Authors, Complete List of Code Contributors,
                       and Citations for Specific Modules
    https://github.com/psi4/psi4/blob/master/codemeta.json
    https://github.com/psi4/psi4/graphs/contributors
    http://psicode.org/psi4manual/master/introduction.html#citing-psifour

    -----------------------------------------------------------------------


    Psi4 started on: Monday, 22 January 2024 08:06PM

    Process ID: 1882272
    Host:       d-16-7-4
    PSIDATADIR: /home/gridsan/tfroembgen/.conda/envs/psi4test/share/psi4
    Memory:     500.0 MiB
    Threads:    12
    
  ==> Input File <==

--------------------------------------------------------------------------
memory 32 GB # how much memory is available ! Depends on the nodes/cores !

molecule dimer {
# monomer A
+1 1    # Charge and multiplicity
C  0.680067 -0.008042 -10.815929
C -0.680504 -0.006014 -10.815545
N -1.085635 -0.005016  -9.497221
C  0.000108 -0.001740  -8.715820
C -2.477365  0.044390  -9.029242
N  1.085222 -0.005016  -9.497221
H  1.385146 -0.015870 -11.633368
H -1.385302 -0.006204 -11.633214
H -0.000009  0.000007  -7.634731
C  2.478117 -0.021908  -9.032123
H  2.490592  0.005437  -7.941870
H  2.967028 -0.935354  -9.379299
H  3.001428  0.853575  -9.423595
H -2.857359  1.066461  -9.109201
H -3.082679 -0.625694  -9.642306
H -2.518128 -0.282594  -7.989294
--
# monomer B
0 1     # Charge and multiplicity
C   1.22531237526482      0.70753866091955      0.00613762728373
C   1.22532433589282     -0.70753852257020     -0.00619318228664
C   -0.00000567409046      1.41496628609039     -0.00672680580738
C   2.45644923379077      1.41832825917820      0.00902448468363
C   0.00001130712078     -1.41497612663474      0.00347275151708
C   -1.22530046906674      0.70754574598412      0.00838914760619
C   2.45643823516184     -1.41832293188077     -0.00843833914343
C   -0.00000085313587      2.83680140328112     -0.00913035594137
C   3.68182717731192      0.70931832800114     -0.00808954934571
C   2.45512052870677      2.83422403348893     -0.00819210630633
C   3.68182158506039     -0.70933346742900      0.00798293467272
C   -1.22531311884624     -0.70752714354401     -0.00512042085974
C   1.22670006104402      3.54346985599427      0.00816696660346
C   0.00000526469929     -2.83678176723568      0.00832091913869
C   -2.45643555300670      1.41831729028492      0.00842454345199
C   2.45512389762097     -2.83422965658853      0.00783102630520
C   -1.22671388474763      3.54346943575023      0.00827029982280
C   4.91451777504333      1.42717324448953     -0.00160886631602
C   3.69315067131765      3.54279566454522     -0.00155906667985
C   -2.45643712022637     -1.41831290883911     -0.00846337726810
C   1.22670532178455     -3.54347386990643     -0.00780316414624
C   -2.45512491866593      2.83421703463423     -0.00818572995999
C   4.91452486062398     -1.42718653794377      0.00136387641845
C   1.22142509354026      4.97013443726031      0.00150231067809
C   4.89300870916237      2.82518837202648     -0.00039219795739
C   -1.22669652864725     -3.54347062507680     -0.00753595973677
C   -3.68181849668397      0.70932533873199     -0.00807686886569
C   3.69314758099218     -3.54280096939050      0.00148176697923
C   -1.22143177215231      4.97012866986289      0.00168580605083
C   6.13477145276790      0.68054831910577     -0.00083909176631
C   3.65678936045204      4.97295361556775     -0.00065042889723
C   -2.45512642789169     -2.83421472106065      0.00758666850712
C   -3.68181869921921     -0.70932533146830      0.00810055625144
C   4.89301309775526     -2.82519973363176      0.00021895393805
C   -0.00000059327114      5.65044773803267      0.00045449734393
C   6.13477559217374     -0.68055448207492      0.00042622874941
C   2.47813196269732      5.65357712333155      0.00063835075260
C   1.22142288457925     -4.97012668293268     -0.00129718634452
C   -3.69316190412301      3.54279732619245     -0.00139355922051
C   -1.22142804110313     -4.97011793159564     -0.00140994817719
C   -4.91452132810043      1.42717581899491     -0.00153192130862
C   3.65678749952045     -4.97295485423912      0.00080007163680
C   -2.47813805026426      5.65357479452875      0.00092287576113
C   -3.69314125872231     -3.54278984697859      0.00136564082345
C   -4.91451200321153     -1.42718062802730      0.00139857359209
C   -0.00000552908399     -5.65043791501335      0.00005899322272
C   -4.89302000425900      2.82518897091939     -0.00040227981744
C   2.47812647313991     -5.65357317188818     -0.00029052915548
C   -3.65679823041642      4.97295655404175     -0.00047374852278
C   -4.89299899901461     -2.82519139505969      0.00006491824035
C   -2.47812801824129     -5.65356579800621     -0.00056571680280
C   -6.13477002348955      0.68054913825639     -0.00086464346868
C   -3.65678835334731     -4.97294365097028      0.00058578382008
C   -6.13476456307132     -0.68055354348201      0.00040575295444
H   5.83528897565761      3.36927626695423      0.00396712770529
H   7.07385965258860      1.22821762089947     -0.00037744837300
H   4.60066374401555      5.51238117445323     -0.00014522814529
H   5.83528386714679     -3.36930568472863     -0.00423551337640
H   -0.00001167146422      6.73853104613662     -0.00389474766392
H   7.07386165167227     -1.22822657074368     -0.00008250934481
H   2.47331421164041      6.74068466339473      0.00017162982210
H   4.60066897122302     -5.51237575717576      0.00039007446835
H   -2.47331820069565      6.74068209160650      0.00047297644710
H   -0.00000978838621     -6.73852780445195      0.00458867820736
H   -5.83530143450167      3.36927132229595      0.00410314985360
H   2.47330840367253     -6.74068500242887      0.00027980126949
H   -4.60067436136587      5.51237839860371      0.00002010017831
H   -5.83527902699321     -3.36928859177951     -0.00451481925734
H   -2.47329986759855     -6.74067870613986     -0.00016951527498
H   -7.07385728692578      1.22822084484047     -0.00046143985387
H   -4.60067330624313     -5.51236229778631      0.00021776644566
H   -7.07385645456741     -1.22822025997701     -0.00017736581114

    units angstrom      # Angstroms are the default
    no_reorient         # Geometry fixed, default
    symmetry c1         # C1 symmetry, default
}

set {
    scf_type DF         # Density fitting, faster than exact integrals
    freeze_core True    # Freeze core electrons
    basis jun-cc-pVDZ   # Jun-cc-pVDZ basis set, recommended for sSAPT0 in https://doi.org/10.1063/1.4867135
}

energy('ssapt0')        # Compute sSAPT0 energy, includes also SAPT0
--------------------------------------------------------------------------

  Memory set to  29.802 GiB by Python driver.

Scratch directory: /state/partition1/slurm_tmp/24798290.4294967291.0/
   => Loading Basis Set <=

    Name: JUN-CC-PVDZ
    Role: ORBITAL
    Keyword: BASIS
    atoms 1-2, 4-5, 10, 17-70 entry C          line   164 file /home/gridsan/tfroembgen/.conda/envs/psi4test/share/psi4/basis/jun-cc-pvdz.gbs 
    atoms 3, 6                entry N          line   198 file /home/gridsan/tfroembgen/.conda/envs/psi4test/share/psi4/basis/jun-cc-pvdz.gbs 
    atoms 7-9, 11-16, 71-88   entry H          line    36 file /home/gridsan/tfroembgen/.conda/envs/psi4test/share/psi4/basis/jun-cc-pvdz.gbs 

   => Loading Basis Set <=

    Name: JUN-CC-PVDZ
    Role: ORBITAL
    Keyword: BASIS
    atoms 1-2, 4-5, 10, 17-70 entry C          line   164 file /home/gridsan/tfroembgen/.conda/envs/psi4test/share/psi4/basis/jun-cc-pvdz.gbs 
    atoms 3, 6                entry N          line   198 file /home/gridsan/tfroembgen/.conda/envs/psi4test/share/psi4/basis/jun-cc-pvdz.gbs 
    atoms 7-9, 11-16, 71-88   entry H          line    36 file /home/gridsan/tfroembgen/.conda/envs/psi4test/share/psi4/basis/jun-cc-pvdz.gbs 


  //>>>>>>>>>>>>>>>>>>>>>>>>>>>>>>>>>>>//
  //              Dimer HF             //
  //<<<<<<<<<<<<<<<<<<<<<<<<<<<<<<<<<<<//

   => Libint2 <=

    Primary   basis highest AM E, G, H:  7, 7, 4
    Auxiliary basis highest AM E, G, H:  7, 7, 5
    Onebody   basis highest AM E, G, H:  7, 7, 5
    Solid Harmonics ordering:            gaussian

*** tstart() called on d-16-7-4
*** at Mon Jan 22 20:06:29 2024

   => Loading Basis Set <=

    Name: JUN-CC-PVDZ
    Role: ORBITAL
    Keyword: BASIS
    atoms 1-2, 4-5, 10, 17-70 entry C          line   164 file /home/gridsan/tfroembgen/.conda/envs/psi4test/share/psi4/basis/jun-cc-pvdz.gbs 
    atoms 3, 6                entry N          line   198 file /home/gridsan/tfroembgen/.conda/envs/psi4test/share/psi4/basis/jun-cc-pvdz.gbs 
    atoms 7-9, 11-16, 71-88   entry H          line    36 file /home/gridsan/tfroembgen/.conda/envs/psi4test/share/psi4/basis/jun-cc-pvdz.gbs 


         ---------------------------------------------------------
                                   SCF
               by Justin Turney, Rob Parrish, Andy Simmonett
                          and Daniel G. A. Smith
                              RHF Reference
                       12 Threads,  30517 MiB Core
         ---------------------------------------------------------

  ==> Geometry <==

    Molecular point group: c1
    Full point group: C1

    Geometry (in Angstrom), charge = 1, multiplicity = 1:

       Center              X                  Y                   Z               Mass       
    ------------   -----------------  -----------------  -----------------  -----------------
         C            0.680066520158    -0.008042372515    -9.594870173804    12.000000000000
         C           -0.680504479842    -0.006014372515    -9.594486173804    12.000000000000
         N           -1.085635479842    -0.005016372515    -8.276162173804    14.003074004430
         C            0.000107520158    -0.001740372515    -7.494761173804    12.000000000000
         C           -2.477365479842     0.044389627485    -7.808183173804    12.000000000000
         N            1.085221520158    -0.005016372515    -8.276162173804    14.003074004430
         H            1.385145520158    -0.015870372515   -10.412309173804     1.007825032230
         H           -1.385302479842    -0.006204372515   -10.412155173804     1.007825032230
         H           -0.000009479842     0.000006627485    -6.413672173804     1.007825032230
         C            2.478116520158    -0.021908372515    -7.811064173804    12.000000000000
         H            2.490591520158     0.005436627485    -6.720811173804     1.007825032230
         H            2.967027520158    -0.935354372515    -8.158240173804     1.007825032230
         H            3.001427520158     0.853574627485    -8.202536173804     1.007825032230
         H           -2.857359479842     1.066460627485    -7.888142173804     1.007825032230
         H           -3.082679479842    -0.625694372515    -8.421247173804     1.007825032230
         H           -2.518128479842    -0.282594372515    -6.768235173804     1.007825032230
         C            1.225311895423     0.707538288405     1.227196453480    12.000000000000
         C            1.225323856051    -0.707538895085     1.214865643910    12.000000000000
         C           -0.000006153932     1.414965913575     1.214332020389    12.000000000000
         C            2.456448753949     1.418327886663     1.230083310880    12.000000000000
         C            0.000010827279    -1.414976499150     1.224531577713    12.000000000000
         C           -1.225300948908     0.707545373469     1.229447973802    12.000000000000
         C            2.456437755320    -1.418323304396     1.212620487053    12.000000000000
         C           -0.000001332978     2.836801030766     1.211928470255    12.000000000000
         C            3.681826697470     0.709317955486     1.212969276850    12.000000000000
         C            2.455120048865     2.834223660974     1.212866719890    12.000000000000
         C            3.681821105219    -0.709333839944     1.229041760869    12.000000000000
         C           -1.225313598688    -0.707527516059     1.215938405336    12.000000000000
         C            1.226699581202     3.543469483479     1.229225792800    12.000000000000
         C            0.000004784858    -2.836782139751     1.229379745335    12.000000000000
         C           -2.456436032848     1.418316917770     1.229483369648    12.000000000000
         C            2.455123417779    -2.834230029103     1.228889852501    12.000000000000
         C           -1.226714364589     3.543469063235     1.229329126019    12.000000000000
         C            4.914517295202     1.427172871975     1.219449959880    12.000000000000
         C            3.693150191476     3.542795292030     1.219499759516    12.000000000000
         C           -2.456437600068    -1.418313281354     1.212595448928    12.000000000000
         C            1.226704841943    -3.543474242421     1.213255662050    12.000000000000
         C           -2.455125398508     2.834216662119     1.212873096236    12.000000000000
         C            4.914524380782    -1.427186910459     1.222422702615    12.000000000000
         C            1.221424613699     4.970134064745     1.222561136874    12.000000000000
         C            4.893008229321     2.825187999512     1.220666628239    12.000000000000
         C           -1.226697008489    -3.543470997592     1.213522866459    12.000000000000
         C           -3.681818976526     0.709324966217     1.212981957330    12.000000000000
         C            3.693147101150    -3.542801341905     1.222540593175    12.000000000000
         C           -1.221432251994     4.970128297348     1.222744632247    12.000000000000
         C            6.134770972926     0.680547946591     1.220219734430    12.000000000000
         C            3.656788880610     4.972953243053     1.220408397299    12.000000000000
         C           -2.455126907733    -2.834215093576     1.228645494703    12.000000000000
         C           -3.681819179061    -0.709325703983     1.229159382448    12.000000000000
         C            4.893012617914    -2.825200106147     1.221277780134    12.000000000000
         C           -0.000001073113     5.650447365518     1.221513323540    12.000000000000
         C            6.134775112332    -0.680554854590     1.221485054946    12.000000000000
         C            2.478131482856     5.653576750817     1.221697176949    12.000000000000
         C            1.221422404738    -4.970127055448     1.219761639852    12.000000000000
         C           -3.693162383965     3.542796953677     1.219665266976    12.000000000000
         C           -1.221428520945    -4.970118304111     1.219648878019    12.000000000000
         C           -4.914521807942     1.427175446480     1.219526904888    12.000000000000
         C            3.656787019679    -4.972955226754     1.221858897833    12.000000000000
         C           -2.478138530106     5.653574422014     1.221981701957    12.000000000000
         C           -3.693141738564    -3.542790219494     1.222424467020    12.000000000000
         C           -4.914512483053    -1.427181000542     1.222457399788    12.000000000000
         C           -0.000006008926    -5.650438287528     1.221117819419    12.000000000000
         C           -4.893020484101     2.825188598404     1.220656546379    12.000000000000
         C            2.478125993298    -5.653573544403     1.220768297041    12.000000000000
         C           -3.656798710258     4.972956181527     1.220585077673    12.000000000000
         C           -4.892999478856    -2.825191767575     1.221123744437    12.000000000000
         C           -2.478128498083    -5.653566170521     1.220493109393    12.000000000000
         C           -6.134770503331     0.680548765741     1.220194182727    12.000000000000
         C           -3.656788833189    -4.972944023485     1.221644610016    12.000000000000
         C           -6.134765042913    -0.680553915997     1.221464579151    12.000000000000
         H            5.835288495816     3.369275894439     1.225025953901     1.007825032230
         H            7.073859172747     1.228217248385     1.220681377823     1.007825032230
         H            4.600663264174     5.512380801938     1.220913598051     1.007825032230
         H            5.835283387305    -3.369306057244     1.216823312820     1.007825032230
         H           -0.000012151306     6.738530673622     1.217164078532     1.007825032230
         H            7.073861171831    -1.228226943259     1.220976316851     1.007825032230
         H            2.473313731799     6.740684290880     1.221230456018     1.007825032230
         H            4.600668491381    -5.512376129691     1.221448900665     1.007825032230
         H           -2.473318680537     6.740681719092     1.221531802643     1.007825032230
         H           -0.000010268228    -6.738528176967     1.225647504404     1.007825032230
         H           -5.835301914343     3.369270949781     1.225161976050     1.007825032230
         H            2.473307923831    -6.740685374944     1.221338627466     1.007825032230
         H           -4.600674841208     5.512378026089     1.221078926374     1.007825032230
         H           -5.835279506835    -3.369288964294     1.216544006939     1.007825032230
         H           -2.473300347440    -6.740679078655     1.220889310921     1.007825032230
         H           -7.073857766768     1.228220472326     1.220597386342     1.007825032230
         H           -4.600673786085    -5.512362670301     1.221276592642     1.007825032230
         H           -7.073856934409    -1.228220632492     1.220881460385     1.007825032230

  Running in c1 symmetry.

  Rotational constants: A =      0.00109  B =      0.00109  C =      0.00107 [cm^-1]
  Rotational constants: A =     32.71081  B =     32.63721  C =     32.14050 [MHz]
  Nuclear repulsion = 7653.119646958074554

  Charge       = 1
  Multiplicity = 1
  Electrons    = 394
  Nalpha       = 197
  Nbeta        = 197

  ==> Algorithm <==

  SCF Algorithm Type is DF.
  DIIS enabled.
  MOM disabled.
  Fractional occupation disabled.
  Guess Type is SAD.
  Energy threshold   = 1.00e-08
  Density threshold  = 1.00e-08
  Integral threshold = 1.00e-12

  ==> Primary Basis <==

  Basis Set: JUN-CC-PVDZ
    Blend: JUN-CC-PVDZ
    Number of shells: 569
    Number of basis functions: 1233
    Number of Cartesian functions: 1294
    Spherical Harmonics?: true
    Max angular momentum: 2

   => Loading Basis Set <=

    Name: (JUN-CC-PVDZ AUX)
    Role: JKFIT
    Keyword: DF_BASIS_SCF
    atoms 1-2, 4-5, 10, 17-70 entry C          line   146 file /home/gridsan/tfroembgen/.conda/envs/psi4test/share/psi4/basis/jun-cc-pvdz-jkfit.gbs 
    atoms 3, 6                entry N          line   202 file /home/gridsan/tfroembgen/.conda/envs/psi4test/share/psi4/basis/jun-cc-pvdz-jkfit.gbs 
    atoms 7-9, 11-16, 71-88   entry H          line    70 file /home/gridsan/tfroembgen/.conda/envs/psi4test/share/psi4/basis/jun-cc-pvdz-jkfit.gbs 

  ==> Integral Setup <==

  ==> DiskDFJK: Density-Fitted J/K Matrices <==

    J tasked:                  Yes
    K tasked:                  Yes
    wK tasked:                  No
    OpenMP threads:             12
    Integrals threads:          12
    Memory [MiB]:            22888
    Algorithm:                Core
    Integral Cache:           SAVE
    Schwarz Cutoff:          1E-12
    Fitting Condition:       1E-10

   => Auxiliary Basis Set <=

  Basis Set: (JUN-CC-PVDZ AUX)
    Blend: JUN-CC-PVDZ-JKFIT
    Number of shells: 1890
    Number of basis functions: 5440
    Number of Cartesian functions: 6226
    Spherical Harmonics?: true
    Max angular momentum: 3

  Minimum eigenvalue in the overlap matrix is 8.3998038214E-10.
  Reciprocal condition number of the overlap matrix is 3.7579584309E-11.
    Using canonical orthogonalization.
  Overall, 14 of 1233 possible MOs eliminated.


  ==> Pre-Iterations <==

  SCF Guess: Superposition of Atomic Densities via on-the-fly atomic UHF (no occupation information).

   -------------------------
    Irrep   Nso     Nmo    
   -------------------------
     A       1233    1219 
   -------------------------
    Total    1233    1219
   -------------------------

  ==> Iterations <==

                           Total Energy        Delta E     RMS |[F,P]|

   @DF-RHF iter SAD: -2365.39382125496695   -2.36539e+03   0.00000e+00 
   @DF-RHF iter   1: -2358.18234807466524    7.21147e+00   9.49589e-04 ADIIS/DIIS
   @DF-RHF iter   2: -2359.08489924561763   -9.02551e-01   3.26011e-04 ADIIS/DIIS
   @DF-RHF iter   3: -2359.17836609873802   -9.34669e-02   1.20198e-04 ADIIS/DIIS
   @DF-RHF iter   4: -2359.19188191483408   -1.35158e-02   4.60964e-05 DIIS
   @DF-RHF iter   5: -2359.19395112590018   -2.06921e-03   1.07507e-05 DIIS
   @DF-RHF iter   6: -2359.19413752964010   -1.86404e-04   5.30737e-06 DIIS
   @DF-RHF iter   7: -2359.19421049410857   -7.29645e-05   2.27010e-06 DIIS
   @DF-RHF iter   8: -2359.19423148658643   -2.09925e-05   1.12569e-06 DIIS
   @DF-RHF iter   9: -2359.19423670800188   -5.22142e-06   2.58399e-07 DIIS
   @DF-RHF iter  10: -2359.19423694998295   -2.41981e-07   8.49433e-08 DIIS
   @DF-RHF iter  11: -2359.19423696736931   -1.73864e-08   3.13232e-08 DIIS
   @DF-RHF iter  12: -2359.19423697090679   -3.53748e-09   1.06752e-08 DIIS
   @DF-RHF iter  13: -2359.19423697138745   -4.80668e-10   4.20717e-09 DIIS
  Energy and wave function converged.


  ==> Post-Iterations <==

    Orbital Energies [Eh]
    ---------------------

    Doubly Occupied:                                                      

       1A    -15.828583     2A    -15.828056     3A    -11.523356  
       4A    -11.454364     5A    -11.452810     6A    -11.443472  
       7A    -11.443363     8A    -11.310426     9A    -11.309960  
      10A    -11.309947    11A    -11.309047    12A    -11.309024  
      13A    -11.308714    14A    -11.308226    15A    -11.308199  
      16A    -11.308146    17A    -11.307976    18A    -11.307933  
      19A    -11.307714    20A    -11.307096    21A    -11.307076  
      22A    -11.306997    23A    -11.306962    24A    -11.306934  
      25A    -11.306916    26A    -11.306873    27A    -11.306870  
      28A    -11.306763    29A    -11.306758    30A    -11.306750  
      31A    -11.306742    32A    -11.306085    33A    -11.306081  
      34A    -11.305996    35A    -11.305972    36A    -11.305948  
      37A    -11.305923    38A    -11.305325    39A    -11.305300  
      40A    -11.305233    41A    -11.305194    42A    -11.305142  
      43A    -11.305124    44A    -11.299750    45A    -11.299747  
      46A    -11.299584    47A    -11.299581    48A    -11.299562  
      49A    -11.299558    50A    -11.299508    51A    -11.299505  
      52A    -11.299491    53A    -11.299487    54A    -11.299405  
      55A    -11.299384    56A    -11.298303    57A    -11.298300  
      58A    -11.298073    59A    -11.298071    60A    -11.298070  
      61A    -11.298067    62A     -1.572276    63A     -1.427818  
      64A     -1.293611    65A     -1.268890    66A     -1.268803  
      67A     -1.238244    68A     -1.238238    69A     -1.232832  
      70A     -1.230061    71A     -1.205897    72A     -1.197603  
      73A     -1.184466    74A     -1.184386    75A     -1.183234  
      76A     -1.161483    77A     -1.161464    78A     -1.131212  
      79A     -1.131208    80A     -1.127385    81A     -1.114164  
      82A     -1.114153    83A     -1.112782    84A     -1.087799  
      85A     -1.073331    86A     -1.070791    87A     -1.070776  
      88A     -1.065973    89A     -1.060848    90A     -1.035672  
      91A     -1.035663    92A     -1.016713    93A     -1.010148  
      94A     -1.010130    95A     -0.990912    96A     -0.942612  
      97A     -0.942562    98A     -0.936932    99A     -0.935191  
     100A     -0.935088   101A     -0.930114   102A     -0.930043  
     103A     -0.911010   104A     -0.910133   105A     -0.885173  
     106A     -0.866548   107A     -0.865416   108A     -0.860769  
     109A     -0.860711   110A     -0.844527   111A     -0.842715  
     112A     -0.842708   113A     -0.810480   114A     -0.806942  
     115A     -0.795439   116A     -0.793535   117A     -0.784275  
     118A     -0.782081   119A     -0.782004   120A     -0.780258  
     121A     -0.780197   122A     -0.780188   123A     -0.776141  
     124A     -0.764924   125A     -0.747238   126A     -0.747173  
     127A     -0.742014   128A     -0.741949   129A     -0.723459  
     130A     -0.719581   131A     -0.711088   132A     -0.709208  
     133A     -0.701541   134A     -0.699842   135A     -0.698196  
     136A     -0.698165   137A     -0.687524   138A     -0.687496  
     139A     -0.678177   140A     -0.675968   141A     -0.675954  
     142A     -0.656132   143A     -0.653023   144A     -0.650288  
     145A     -0.647829   146A     -0.647753   147A     -0.642197  
     148A     -0.640056   149A     -0.640001   150A     -0.632848  
     151A     -0.625520   152A     -0.625408   153A     -0.615176  
     154A     -0.615151   155A     -0.614536   156A     -0.614458  
     157A     -0.607234   158A     -0.602761   159A     -0.602668  
     160A     -0.590405   161A     -0.586944   162A     -0.586930  
     163A     -0.586537   164A     -0.586517   165A     -0.577961  
     166A     -0.577325   167A     -0.571137   168A     -0.571060  
     169A     -0.548360   170A     -0.543905   171A     -0.541237  
     172A     -0.536454   173A     -0.533613   174A     -0.530059  
     175A     -0.530030   176A     -0.519383   177A     -0.519286  
     178A     -0.518224   179A     -0.499872   180A     -0.499749  
     181A     -0.487282   182A     -0.487259   183A     -0.453626  
     184A     -0.453619   185A     -0.452262   186A     -0.423485  
     187A     -0.423482   188A     -0.397603   189A     -0.387057  
     190A     -0.385953   191A     -0.385941   192A     -0.359467  
     193A     -0.345867   194A     -0.333297   195A     -0.333295  
     196A     -0.273348   197A     -0.273345  

    Virtual:                                                              

     198A     -0.062584   199A     -0.055540   200A     -0.048846  
     201A     -0.043192   202A     -0.034500   203A     -0.034371  
     204A     -0.026264   205A     -0.023493   206A     -0.021453  
     207A     -0.019788   208A      0.000240   209A      0.004653  
     210A      0.005507   211A      0.005784   212A      0.006876  
     213A      0.007209   214A      0.009260   215A      0.010532  
     216A      0.010712   217A      0.014506   218A      0.015839  
     219A      0.015949   220A      0.017462   221A      0.021941  
     222A      0.024111   223A      0.024521   224A      0.033219  
     225A      0.033245   226A      0.035281   227A      0.036762  
     228A      0.037633   229A      0.037841   230A      0.040265  
     231A      0.041192   232A      0.041986   233A      0.042865  
     234A      0.048592   235A      0.048660   236A      0.049576  
     237A      0.049923   238A      0.051279   239A      0.056948  
     240A      0.057320   241A      0.059274   242A      0.062946  
     243A      0.068334   244A      0.068830   245A      0.069490  
     246A      0.069498   247A      0.073088   248A      0.075987  
     249A      0.077069   250A      0.077134   251A      0.081190  
     252A      0.083378   253A      0.083554   254A      0.087813  
     255A      0.088647   256A      0.089118   257A      0.089642  
     258A      0.090926   259A      0.091659   260A      0.091800  
     261A      0.093533   262A      0.095592   263A      0.098007  
     264A      0.105096   265A      0.108496   266A      0.109022  
     267A      0.110320   268A      0.110810   269A      0.112031  
     270A      0.115133   271A      0.115368   272A      0.119302  
     273A      0.120068   274A      0.125957   275A      0.126112  
     276A      0.127455   277A      0.128653   278A      0.134408  
     279A      0.135134   280A      0.135209   281A      0.136316  
     282A      0.136599   283A      0.139893   284A      0.140177  
     285A      0.140240   286A      0.142452   287A      0.142920  
     288A      0.145507   289A      0.145716   290A      0.145842  
     291A      0.146258   292A      0.148038   293A      0.153393  
     294A      0.158429   295A      0.160262   296A      0.160964  
     297A      0.161669   298A      0.164771   299A      0.166220  
     300A      0.166645   301A      0.166712   302A      0.167720  
     303A      0.167888   304A      0.168083   305A      0.169557  
     306A      0.171781   307A      0.172181   308A      0.173025  
     309A      0.178430   310A      0.180147   311A      0.182387  
     312A      0.183188   313A      0.183399   314A      0.184976  
     315A      0.185568   316A      0.186257   317A      0.186574  
     318A      0.187082   319A      0.187747   320A      0.188729  
     321A      0.189105   322A      0.193784   323A      0.195353  
     324A      0.195539   325A      0.199310   326A      0.201676  
     327A      0.201801   328A      0.203889   329A      0.205863  
     330A      0.205985   331A      0.208513   332A      0.210286  
     333A      0.210384   334A      0.212183   335A      0.212550  
     336A      0.216320   337A      0.217612   338A      0.221451  
     339A      0.221452   340A      0.222307   341A      0.222321  
     342A      0.222465   343A      0.222620   344A      0.222875  
     345A      0.223929   346A      0.228239   347A      0.228418  
     348A      0.230535   349A      0.237027   350A      0.239047  
     351A      0.240900   352A      0.241780   353A      0.242631  
     354A      0.243192   355A      0.251234   356A      0.251844  
     357A      0.252521   358A      0.255245   359A      0.256989  
     360A      0.257024   361A      0.259714   362A      0.262425  
     363A      0.263186   364A      0.263334   365A      0.263485  
     366A      0.265343   367A      0.265457   368A      0.267654  
     369A      0.268498   370A      0.269555   371A      0.270279  
     372A      0.272295   373A      0.273506   374A      0.275439  
     375A      0.275577   376A      0.275845   377A      0.276085  
     378A      0.276858   379A      0.277844   380A      0.279730  
     381A      0.281696   382A      0.282877   383A      0.283123  
     384A      0.288866   385A      0.291480   386A      0.293780  
     387A      0.297728   388A      0.299075   389A      0.299165  
     390A      0.299951   391A      0.300058   392A      0.300954  
     393A      0.304049   394A      0.304138   395A      0.306118  
     396A      0.310193   397A      0.310258   398A      0.314072  
     399A      0.314636   400A      0.320352   401A      0.322602  
     402A      0.324893   403A      0.325934   404A      0.326402  
     405A      0.326529   406A      0.329031   407A      0.330135  
     408A      0.330283   409A      0.337768   410A      0.338292  
     411A      0.338592   412A      0.344066   413A      0.344606  
     414A      0.344774   415A      0.344799   416A      0.345303  
     417A      0.346306   418A      0.348386   419A      0.349169  
     420A      0.350204   421A      0.351927   422A      0.352194  
     423A      0.355078   424A      0.355282   425A      0.357698  
     426A      0.358011   427A      0.358031   428A      0.359141  
     429A      0.361049   430A      0.361077   431A      0.363332  
     432A      0.363465   433A      0.363997   434A      0.373454  
     435A      0.373542   436A      0.373834   437A      0.376148  
     438A      0.376256   439A      0.380522   440A      0.385609  
     441A      0.389120   442A      0.389244   443A      0.391991  
     444A      0.393884   445A      0.396418   446A      0.396493  
     447A      0.397516   448A      0.398058   449A      0.398097  
     450A      0.403267   451A      0.403505   452A      0.404108  
     453A      0.408861   454A      0.411659   455A      0.411901  
     456A      0.412904   457A      0.412911   458A      0.413087  
     459A      0.415424   460A      0.417350   461A      0.417623  
     462A      0.420775   463A      0.424044   464A      0.424059  
     465A      0.430642   466A      0.434671   467A      0.434939  
     468A      0.435471   469A      0.435638   470A      0.436475  
     471A      0.444757   472A      0.445669   473A      0.445703  
     474A      0.446306   475A      0.447478   476A      0.447608  
     477A      0.450625   478A      0.454744   479A      0.454828  
     480A      0.458146   481A      0.459102   482A      0.465251  
     483A      0.465268   484A      0.466540   485A      0.466585  
     486A      0.471410   487A      0.472009   488A      0.476329  
     489A      0.478467   490A      0.478546   491A      0.478625  
     492A      0.490949   493A      0.491822   494A      0.492551  
     495A      0.496658   496A      0.500149   497A      0.500195  
     498A      0.500459   499A      0.505219   500A      0.505818  
     501A      0.505934   502A      0.507002   503A      0.507418  
     504A      0.507610   505A      0.510308   506A      0.513559  
     507A      0.513932   508A      0.514116   509A      0.521706  
     510A      0.521755   511A      0.538587   512A      0.538903  
     513A      0.548468   514A      0.549322   515A      0.549846  
     516A      0.557684   517A      0.566122   518A      0.566366  
     519A      0.566407   520A      0.573823   521A      0.574004  
     522A      0.578749   523A      0.578805   524A      0.596866  
     525A      0.601571   526A      0.601718   527A      0.606660  
     528A      0.607530   529A      0.619528   530A      0.619545  
     531A      0.621865   532A      0.629224   533A      0.629653  
     534A      0.629700   535A      0.630592   536A      0.649689  
     537A      0.654444   538A      0.665051   539A      0.668116  
     540A      0.668204   541A      0.674261   542A      0.684805  
     543A      0.687910   544A      0.692819   545A      0.694110  
     546A      0.694980   547A      0.695166   548A      0.695250  
     549A      0.696642   550A      0.701603   551A      0.709302  
     552A      0.709398   553A      0.714148   554A      0.714420  
     555A      0.717435   556A      0.723136   557A      0.740545  
     558A      0.743310   559A      0.745401   560A      0.748444  
     561A      0.748952   562A      0.752675   563A      0.757026  
     564A      0.757799   565A      0.758423   566A      0.759313  
     567A      0.764686   568A      0.766496   569A      0.775751  
     570A      0.776383   571A      0.779122   572A      0.779738  
     573A      0.780337   574A      0.781684   575A      0.782546  
     576A      0.787138   577A      0.789954   578A      0.791506  
     579A      0.797984   580A      0.806787   581A      0.806862  
     582A      0.811234   583A      0.816971   584A      0.817070  
     585A      0.818653   586A      0.821561   587A      0.824177  
     588A      0.824696   589A      0.825124   590A      0.825787  
     591A      0.829525   592A      0.830032   593A      0.830183  
     594A      0.838980   595A      0.840911   596A      0.841061  
     597A      0.847705   598A      0.849969   599A      0.850095  
     600A      0.852185   601A      0.853667   602A      0.859949  
     603A      0.860290   604A      0.861416   605A      0.862326  
     606A      0.863726   607A      0.865860   608A      0.867476  
     609A      0.870279   610A      0.874094   611A      0.874228  
     612A      0.880363   613A      0.883373   614A      0.883802  
     615A      0.884060   616A      0.887806   617A      0.887889  
     618A      0.888401   619A      0.894186   620A      0.894336  
     621A      0.897546   622A      0.897658   623A      0.906285  
     624A      0.906803   625A      0.909295   626A      0.909418  
     627A      0.922416   628A      0.922490   629A      0.923780  
     630A      0.924133   631A      0.925395   632A      0.925469  
     633A      0.929101   634A      0.930794   635A      0.932761  
     636A      0.940001   637A      0.940059   638A      0.945756  
     639A      0.946030   640A      0.950507   641A      0.950574  
     642A      0.953801   643A      0.957460   644A      0.967325  
     645A      0.967378   646A      0.967534   647A      0.970431  
     648A      0.970736   649A      0.970937   650A      0.977886  
     651A      0.983091   652A      0.983249   653A      0.986701  
     654A      0.986946   655A      0.988915   656A      0.988983  
     657A      0.992024   658A      0.992079   659A      0.993062  
     660A      0.996593   661A      0.996598   662A      0.997649  
     663A      0.998528   664A      0.998886   665A      1.001240  
     666A      1.004972   667A      1.005339   668A      1.009675  
     669A      1.011919   670A      1.012789   671A      1.013284  
     672A      1.014137   673A      1.020025   674A      1.020212  
     675A      1.022399   676A      1.024469   677A      1.024489  
     678A      1.025776   679A      1.027772   680A      1.030886  
     681A      1.031886   682A      1.034887   683A      1.035211  
     684A      1.035496   685A      1.038243   686A      1.038398  
     687A      1.042205   688A      1.052399   689A      1.055991  
     690A      1.056221   691A      1.056496   692A      1.067875  
     693A      1.068107   694A      1.068472   695A      1.068592  
     696A      1.070608   697A      1.072465   698A      1.073923  
     699A      1.077978   700A      1.078152   701A      1.083338  
     702A      1.086878   703A      1.086961   704A      1.092897  
     705A      1.092948   706A      1.093380   707A      1.095604  
     708A      1.095952   709A      1.101476   710A      1.106322  
     711A      1.108697   712A      1.118478   713A      1.119018  
     714A      1.126187   715A      1.129344   716A      1.129530  
     717A      1.131259   718A      1.134808   719A      1.134875  
     720A      1.136051   721A      1.144174   722A      1.146598  
     723A      1.147764   724A      1.151157   725A      1.151255  
     726A      1.155160   727A      1.162372   728A      1.167500  
     729A      1.169990   730A      1.170003   731A      1.172842  
     732A      1.174982   733A      1.175060   734A      1.188033  
     735A      1.191060   736A      1.191131   737A      1.207412  
     738A      1.208875   739A      1.213997   740A      1.214147  
     741A      1.214885   742A      1.215116   743A      1.216853  
     744A      1.216961   745A      1.221055   746A      1.225011  
     747A      1.229138   748A      1.246370   749A      1.246885  
     750A      1.247190   751A      1.248535   752A      1.249237  
     753A      1.250587   754A      1.259207   755A      1.259510  
     756A      1.261470   757A      1.261920   758A      1.266504  
     759A      1.270439   760A      1.271001   761A      1.272820  
     762A      1.272936   763A      1.276071   764A      1.281668  
     765A      1.281772   766A      1.284684   767A      1.290476  
     768A      1.291554   769A      1.292628   770A      1.294622  
     771A      1.296049   772A      1.306131   773A      1.306134  
     774A      1.309402   775A      1.309523   776A      1.310455  
     777A      1.310760   778A      1.316618   779A      1.316626  
     780A      1.322615   781A      1.332740   782A      1.343136  
     783A      1.348816   784A      1.351290   785A      1.355354  
     786A      1.355507   787A      1.359171   788A      1.359278  
     789A      1.364282   790A      1.364398   791A      1.371432  
     792A      1.372584   793A      1.376521   794A      1.376651  
     795A      1.379493   796A      1.380560   797A      1.380676  
     798A      1.388499   799A      1.388554   800A      1.391242  
     801A      1.391614   802A      1.391815   803A      1.399779  
     804A      1.399824   805A      1.402307   806A      1.414353  
     807A      1.414406   808A      1.423431   809A      1.423655  
     810A      1.427436   811A      1.468367   812A      1.468525  
     813A      1.469000   814A      1.472598   815A      1.472635  
     816A      1.481110   817A      1.483454   818A      1.503741  
     819A      1.508831   820A      1.522085   821A      1.524075  
     822A      1.548813   823A      1.550842   824A      1.551405  
     825A      1.559523   826A      1.559567   827A      1.560462  
     828A      1.563258   829A      1.563447   830A      1.566677  
     831A      1.568138   832A      1.572979   833A      1.573197  
     834A      1.580729   835A      1.581094   836A      1.591580  
     837A      1.591634   838A      1.594718   839A      1.594813  
     840A      1.594910   841A      1.594939   842A      1.601452  
     843A      1.609678   844A      1.612623   845A      1.612673  
     846A      1.619112   847A      1.624306   848A      1.627175  
     849A      1.627206   850A      1.628303   851A      1.628689  
     852A      1.628729   853A      1.633581   854A      1.638066  
     855A      1.638119   856A      1.647854   857A      1.648932  
     858A      1.651277   859A      1.651393   860A      1.651934  
     861A      1.655683   862A      1.655775   863A      1.666033  
     864A      1.667743   865A      1.667803   866A      1.674843  
     867A      1.685414   868A      1.692557   869A      1.693337  
     870A      1.702701   871A      1.712629   872A      1.712790  
     873A      1.713650   874A      1.713860   875A      1.728528  
     876A      1.728549   877A      1.735864   878A      1.743276  
     879A      1.743318   880A      1.750664   881A      1.753771  
     882A      1.761311   883A      1.768048   884A      1.768695  
     885A      1.768869   886A      1.770226   887A      1.775913  
     888A      1.775989   889A      1.782258   890A      1.782444  
     891A      1.783638   892A      1.788717   893A      1.793735  
     894A      1.793948   895A      1.809387   896A      1.812376  
     897A      1.812427   898A      1.813008   899A      1.813170  
     900A      1.813843   901A      1.816126   902A      1.820516  
     903A      1.821695   904A      1.823846   905A      1.831524  
     906A      1.831568   907A      1.847662   908A      1.847870  
     909A      1.848683   910A      1.851890   911A      1.855497  
     912A      1.855590   913A      1.859970   914A      1.860106  
     915A      1.861044   916A      1.865795   917A      1.865996  
     918A      1.869257   919A      1.869394   920A      1.870753  
     921A      1.872427   922A      1.873597   923A      1.873685  
     924A      1.891919   925A      1.893337   926A      1.893737  
     927A      1.893881   928A      1.898719   929A      1.899190  
     930A      1.899348   931A      1.901563   932A      1.905214  
     933A      1.905358   934A      1.905657   935A      1.905842  
     936A      1.909649   937A      1.922286   938A      1.933911  
     939A      1.933988   940A      1.941191   941A      1.948471  
     942A      1.948908   943A      1.950584   944A      1.950592  
     945A      1.956054   946A      1.960595   947A      1.964265  
     948A      1.964400   949A      1.970629   950A      1.978082  
     951A      1.979202   952A      1.981664   953A      1.981754  
     954A      1.982183   955A      1.982966   956A      1.983125  
     957A      1.999670   958A      2.003567   959A      2.003916  
     960A      2.008572   961A      2.008938   962A      2.009807  
     963A      2.010303   964A      2.011298   965A      2.019613  
     966A      2.021347   967A      2.022575   968A      2.022935  
     969A      2.026506   970A      2.026622   971A      2.031280  
     972A      2.035332   973A      2.035499   974A      2.044506  
     975A      2.045006   976A      2.045424   977A      2.047951  
     978A      2.048966   979A      2.052249   980A      2.052378  
     981A      2.057313   982A      2.059916   983A      2.060012  
     984A      2.060199   985A      2.060217   986A      2.061178  
     987A      2.066057   988A      2.070552   989A      2.071287  
     990A      2.071322   991A      2.071652   992A      2.071790  
     993A      2.078026   994A      2.078090   995A      2.085147  
     996A      2.086366   997A      2.087850   998A      2.087987  
     999A      2.088971  1000A      2.095239  1001A      2.095261  
    1002A      2.107316  1003A      2.110683  1004A      2.110737  
    1005A      2.114284  1006A      2.114387  1007A      2.122308  
    1008A      2.130104  1009A      2.130173  1010A      2.140204  
    1011A      2.142971  1012A      2.143274  1013A      2.143934  
    1014A      2.144635  1015A      2.146478  1016A      2.146624  
    1017A      2.146778  1018A      2.149283  1019A      2.161233  
    1020A      2.171461  1021A      2.171497  1022A      2.171524  
    1023A      2.178576  1024A      2.179740  1025A      2.179949  
    1026A      2.180455  1027A      2.195964  1028A      2.196355  
    1029A      2.196457  1030A      2.196689  1031A      2.199634  
    1032A      2.204072  1033A      2.212637  1034A      2.212716  
    1035A      2.222103  1036A      2.222131  1037A      2.224306  
    1038A      2.224353  1039A      2.227888  1040A      2.233930  
    1041A      2.251188  1042A      2.252449  1043A      2.258809  
    1044A      2.261682  1045A      2.263528  1046A      2.270812  
    1047A      2.273645  1048A      2.281914  1049A      2.281998  
    1050A      2.282345  1051A      2.285079  1052A      2.298283  
    1053A      2.302035  1054A      2.302681  1055A      2.304217  
    1056A      2.304248  1057A      2.317596  1058A      2.317713  
    1059A      2.324359  1060A      2.325404  1061A      2.331275  
    1062A      2.336797  1063A      2.368060  1064A      2.375662  
    1065A      2.376173  1066A      2.376259  1067A      2.388616  
    1068A      2.392540  1069A      2.392587  1070A      2.421481  
    1071A      2.424528  1072A      2.424810  1073A      2.437220  
    1074A      2.437329  1075A      2.443962  1076A      2.454116  
    1077A      2.461264  1078A      2.471273  1079A      2.481460  
    1080A      2.481516  1081A      2.495604  1082A      2.497404  
    1083A      2.497519  1084A      2.500753  1085A      2.505949  
    1086A      2.506834  1087A      2.506872  1088A      2.511632  
    1089A      2.511672  1090A      2.524640  1091A      2.524676  
    1092A      2.527293  1093A      2.527820  1094A      2.538313  
    1095A      2.538421  1096A      2.538753  1097A      2.541609  
    1098A      2.544195  1099A      2.558062  1100A      2.574249  
    1101A      2.575646  1102A      2.575767  1103A      2.576556  
    1104A      2.582750  1105A      2.583285  1106A      2.593426  
    1107A      2.593494  1108A      2.603189  1109A      2.603519  
    1110A      2.606292  1111A      2.608957  1112A      2.633243  
    1113A      2.634406  1114A      2.636045  1115A      2.636816  
    1116A      2.639395  1117A      2.652900  1118A      2.653209  
    1119A      2.662031  1120A      2.664366  1121A      2.664458  
    1122A      2.670128  1123A      2.670232  1124A      2.673520  
    1125A      2.674227  1126A      2.674552  1127A      2.678705  
    1128A      2.688272  1129A      2.688688  1130A      2.704142  
    1131A      2.704481  1132A      2.706794  1133A      2.728033  
    1134A      2.738412  1135A      2.745707  1136A      2.745916  
    1137A      2.748964  1138A      2.766503  1139A      2.778354  
    1140A      2.779141  1141A      2.788124  1142A      2.802792  
    1143A      2.803014  1144A      2.806916  1145A      2.809236  
    1146A      2.810610  1147A      2.810688  1148A      2.818825  
    1149A      2.868940  1150A      2.869010  1151A      2.875673  
    1152A      2.885721  1153A      2.885776  1154A      2.901541  
    1155A      2.901559  1156A      2.914927  1157A      2.918679  
    1158A      2.957708  1159A      2.957950  1160A      2.964519  
    1161A      2.977249  1162A      2.981655  1163A      3.015295  
    1164A      3.015317  1165A      3.021975  1166A      3.022038  
    1167A      3.046914  1168A      3.061508  1169A      3.062273  
    1170A      3.065819  1171A      3.079476  1172A      3.081432  
    1173A      3.081606  1174A      3.089553  1175A      3.097992  
    1176A      3.098248  1177A      3.098306  1178A      3.101036  
    1179A      3.101061  1180A      3.109616  1181A      3.110049  
    1182A      3.117519  1183A      3.118031  1184A      3.144037  
    1185A      3.163600  1186A      3.169638  1187A      3.189104  
    1188A      3.222765  1189A      3.228558  1190A      3.228667  
    1191A      3.233252  1192A      3.233500  1193A      3.367415  
    1194A      3.367888  1195A      3.392354  1196A      3.432298  
    1197A      3.434882  1198A      3.440632  1199A      3.499827  
    1200A      3.527862  1201A      3.528613  1202A      3.529813  
    1203A      3.544747  1204A      3.578051  1205A      3.580067  
    1206A      3.614338  1207A      3.618478  1208A      3.720644  
    1209A      3.733775  1210A      3.734684  1211A      3.822703  
    1212A      3.822774  1213A      3.864817  1214A      3.864974  
    1215A      3.928149  1216A      3.962045  1217A      3.982959  
    1218A      3.994829  1219A      4.030835  

    Final Occupation by Irrep:
              A 
    DOCC [   197 ]
    NA   [   197 ]
    NB   [   197 ]

  @DF-RHF Final Energy: -2359.19423697138745

   => Energetics <=

    Nuclear Repulsion Energy =           7653.1196469580745543
    One-Electron Energy =              -18414.6491645135101862
    Two-Electron Energy =                8402.3352805840477231
    Total Energy =                      -2359.1942369713869994

Computation Completed


Properties will be evaluated at   0.000000,   0.000000,   0.000000 [a0]

Properties computed using the SCF density matrix


 Multipole Moments:

 ------------------------------------------------------------------------------------
     Multipole            Electronic (a.u.)      Nuclear  (a.u.)        Total (a.u.)
 ------------------------------------------------------------------------------------

 L = 1.  Multiply by 2.5417464519 to convert [e a0] to [Debye]
 Dipole X            :         -0.0009482            0.0006313           -0.0003169
 Dipole Y            :         -0.0477963            0.0560211            0.0082248
 Dipole Z            :         33.3527826          -48.1548576          -14.8020751
 Magnitude           :                                                   14.8020773

 ------------------------------------------------------------------------------------

*** tstop() called on d-16-7-4 at Mon Jan 22 20:13:41 2024
Module time:
	user time   =    3932.76 seconds =      65.55 minutes
	system time =      86.32 seconds =       1.44 minutes
	total time  =        432 seconds =       7.20 minutes
Total time:
	user time   =    3932.76 seconds =      65.55 minutes
	system time =      86.32 seconds =       1.44 minutes
	total time  =        432 seconds =       7.20 minutes

  //>>>>>>>>>>>>>>>>>>>>>>>>>>>>>>>>>>>//
  //            Monomer A HF           //
  //<<<<<<<<<<<<<<<<<<<<<<<<<<<<<<<<<<<//

   => Libint2 <=

    Primary   basis highest AM E, G, H:  7, 7, 4
    Auxiliary basis highest AM E, G, H:  7, 7, 5
    Onebody   basis highest AM E, G, H:  7, 7, 5
    Solid Harmonics ordering:            gaussian

*** tstart() called on d-16-7-4
*** at Mon Jan 22 20:13:41 2024

   => Loading Basis Set <=

    Name: JUN-CC-PVDZ
    Role: ORBITAL
    Keyword: BASIS
    atoms 1-2, 4-5, 10, 17-70 entry C          line   164 file /home/gridsan/tfroembgen/.conda/envs/psi4test/share/psi4/basis/jun-cc-pvdz.gbs 
    atoms 3, 6                entry N          line   198 file /home/gridsan/tfroembgen/.conda/envs/psi4test/share/psi4/basis/jun-cc-pvdz.gbs 
    atoms 7-9, 11-16, 71-88   entry H          line    36 file /home/gridsan/tfroembgen/.conda/envs/psi4test/share/psi4/basis/jun-cc-pvdz.gbs 


         ---------------------------------------------------------
                                   SCF
               by Justin Turney, Rob Parrish, Andy Simmonett
                          and Daniel G. A. Smith
                              RHF Reference
                       12 Threads,  30517 MiB Core
         ---------------------------------------------------------

  ==> Geometry <==

    Molecular point group: c1
    Full point group: C1

    Geometry (in Angstrom), charge = 1, multiplicity = 1:

       Center              X                  Y                   Z               Mass       
    ------------   -----------------  -----------------  -----------------  -----------------
         C            0.680066520158    -0.008042372515    -9.594870173804    12.000000000000
         C           -0.680504479842    -0.006014372515    -9.594486173804    12.000000000000
         N           -1.085635479842    -0.005016372515    -8.276162173804    14.003074004430
         C            0.000107520158    -0.001740372515    -7.494761173804    12.000000000000
         C           -2.477365479842     0.044389627485    -7.808183173804    12.000000000000
         N            1.085221520158    -0.005016372515    -8.276162173804    14.003074004430
         H            1.385145520158    -0.015870372515   -10.412309173804     1.007825032230
         H           -1.385302479842    -0.006204372515   -10.412155173804     1.007825032230
         H           -0.000009479842     0.000006627485    -6.413672173804     1.007825032230
         C            2.478116520158    -0.021908372515    -7.811064173804    12.000000000000
         H            2.490591520158     0.005436627485    -6.720811173804     1.007825032230
         H            2.967027520158    -0.935354372515    -8.158240173804     1.007825032230
         H            3.001427520158     0.853574627485    -8.202536173804     1.007825032230
         H           -2.857359479842     1.066460627485    -7.888142173804     1.007825032230
         H           -3.082679479842    -0.625694372515    -8.421247173804     1.007825032230
         H           -2.518128479842    -0.282594372515    -6.768235173804     1.007825032230
      Gh(C)           1.225311895423     0.707538288405     1.227196453480    12.000000000000
      Gh(C)           1.225323856051    -0.707538895085     1.214865643910    12.000000000000
      Gh(C)          -0.000006153932     1.414965913575     1.214332020389    12.000000000000
      Gh(C)           2.456448753949     1.418327886663     1.230083310880    12.000000000000
      Gh(C)           0.000010827279    -1.414976499150     1.224531577713    12.000000000000
      Gh(C)          -1.225300948908     0.707545373469     1.229447973802    12.000000000000
      Gh(C)           2.456437755320    -1.418323304396     1.212620487053    12.000000000000
      Gh(C)          -0.000001332978     2.836801030766     1.211928470255    12.000000000000
      Gh(C)           3.681826697470     0.709317955486     1.212969276850    12.000000000000
      Gh(C)           2.455120048865     2.834223660974     1.212866719890    12.000000000000
      Gh(C)           3.681821105219    -0.709333839944     1.229041760869    12.000000000000
      Gh(C)          -1.225313598688    -0.707527516059     1.215938405336    12.000000000000
      Gh(C)           1.226699581202     3.543469483479     1.229225792800    12.000000000000
      Gh(C)           0.000004784858    -2.836782139751     1.229379745335    12.000000000000
      Gh(C)          -2.456436032848     1.418316917770     1.229483369648    12.000000000000
      Gh(C)           2.455123417779    -2.834230029103     1.228889852501    12.000000000000
      Gh(C)          -1.226714364589     3.543469063235     1.229329126019    12.000000000000
      Gh(C)           4.914517295202     1.427172871975     1.219449959880    12.000000000000
      Gh(C)           3.693150191476     3.542795292030     1.219499759516    12.000000000000
      Gh(C)          -2.456437600068    -1.418313281354     1.212595448928    12.000000000000
      Gh(C)           1.226704841943    -3.543474242421     1.213255662050    12.000000000000
      Gh(C)          -2.455125398508     2.834216662119     1.212873096236    12.000000000000
      Gh(C)           4.914524380782    -1.427186910459     1.222422702615    12.000000000000
      Gh(C)           1.221424613699     4.970134064745     1.222561136874    12.000000000000
      Gh(C)           4.893008229321     2.825187999512     1.220666628239    12.000000000000
      Gh(C)          -1.226697008489    -3.543470997592     1.213522866459    12.000000000000
      Gh(C)          -3.681818976526     0.709324966217     1.212981957330    12.000000000000
      Gh(C)           3.693147101150    -3.542801341905     1.222540593175    12.000000000000
      Gh(C)          -1.221432251994     4.970128297348     1.222744632247    12.000000000000
      Gh(C)           6.134770972926     0.680547946591     1.220219734430    12.000000000000
      Gh(C)           3.656788880610     4.972953243053     1.220408397299    12.000000000000
      Gh(C)          -2.455126907733    -2.834215093576     1.228645494703    12.000000000000
      Gh(C)          -3.681819179061    -0.709325703983     1.229159382448    12.000000000000
      Gh(C)           4.893012617914    -2.825200106147     1.221277780134    12.000000000000
      Gh(C)          -0.000001073113     5.650447365518     1.221513323540    12.000000000000
      Gh(C)           6.134775112332    -0.680554854590     1.221485054946    12.000000000000
      Gh(C)           2.478131482856     5.653576750817     1.221697176949    12.000000000000
      Gh(C)           1.221422404738    -4.970127055448     1.219761639852    12.000000000000
      Gh(C)          -3.693162383965     3.542796953677     1.219665266976    12.000000000000
      Gh(C)          -1.221428520945    -4.970118304111     1.219648878019    12.000000000000
      Gh(C)          -4.914521807942     1.427175446480     1.219526904888    12.000000000000
      Gh(C)           3.656787019679    -4.972955226754     1.221858897833    12.000000000000
      Gh(C)          -2.478138530106     5.653574422014     1.221981701957    12.000000000000
      Gh(C)          -3.693141738564    -3.542790219494     1.222424467020    12.000000000000
      Gh(C)          -4.914512483053    -1.427181000542     1.222457399788    12.000000000000
      Gh(C)          -0.000006008926    -5.650438287528     1.221117819419    12.000000000000
      Gh(C)          -4.893020484101     2.825188598404     1.220656546379    12.000000000000
      Gh(C)           2.478125993298    -5.653573544403     1.220768297041    12.000000000000
      Gh(C)          -3.656798710258     4.972956181527     1.220585077673    12.000000000000
      Gh(C)          -4.892999478856    -2.825191767575     1.221123744437    12.000000000000
      Gh(C)          -2.478128498083    -5.653566170521     1.220493109393    12.000000000000
      Gh(C)          -6.134770503331     0.680548765741     1.220194182727    12.000000000000
      Gh(C)          -3.656788833189    -4.972944023485     1.221644610016    12.000000000000
      Gh(C)          -6.134765042913    -0.680553915997     1.221464579151    12.000000000000
      Gh(H)           5.835288495816     3.369275894439     1.225025953901     1.007825032230
      Gh(H)           7.073859172747     1.228217248385     1.220681377823     1.007825032230
      Gh(H)           4.600663264174     5.512380801938     1.220913598051     1.007825032230
      Gh(H)           5.835283387305    -3.369306057244     1.216823312820     1.007825032230
      Gh(H)          -0.000012151306     6.738530673622     1.217164078532     1.007825032230
      Gh(H)           7.073861171831    -1.228226943259     1.220976316851     1.007825032230
      Gh(H)           2.473313731799     6.740684290880     1.221230456018     1.007825032230
      Gh(H)           4.600668491381    -5.512376129691     1.221448900665     1.007825032230
      Gh(H)          -2.473318680537     6.740681719092     1.221531802643     1.007825032230
      Gh(H)          -0.000010268228    -6.738528176967     1.225647504404     1.007825032230
      Gh(H)          -5.835301914343     3.369270949781     1.225161976050     1.007825032230
      Gh(H)           2.473307923831    -6.740685374944     1.221338627466     1.007825032230
      Gh(H)          -4.600674841208     5.512378026089     1.221078926374     1.007825032230
      Gh(H)          -5.835279506835    -3.369288964294     1.216544006939     1.007825032230
      Gh(H)          -2.473300347440    -6.740679078655     1.220889310921     1.007825032230
      Gh(H)          -7.073857766768     1.228220472326     1.220597386342     1.007825032230
      Gh(H)          -4.600673786085    -5.512362670301     1.221276592642     1.007825032230
      Gh(H)          -7.073856934409    -1.228220632492     1.220881460385     1.007825032230

  Running in c1 symmetry.

  Rotational constants: A =      0.00109  B =      0.00109  C =      0.00107 [cm^-1]
  Rotational constants: A =     32.71081  B =     32.63721  C =     32.14050 [MHz]
  Nuclear repulsion =  306.774908447733026

  Charge       = 1
  Multiplicity = 1
  Electrons    = 52
  Nalpha       = 26
  Nbeta        = 26

  ==> Algorithm <==

  SCF Algorithm Type is DF.
  DIIS enabled.
  MOM disabled.
  Fractional occupation disabled.
  Guess Type is SAD.
  Energy threshold   = 1.00e-08
  Density threshold  = 1.00e-08
  Integral threshold = 1.00e-12

  ==> Primary Basis <==

  Basis Set: JUN-CC-PVDZ
    Blend: JUN-CC-PVDZ
    Number of shells: 569
    Number of basis functions: 1233
    Number of Cartesian functions: 1294
    Spherical Harmonics?: true
    Max angular momentum: 2

   => Loading Basis Set <=

    Name: (JUN-CC-PVDZ AUX)
    Role: JKFIT
    Keyword: DF_BASIS_SCF
    atoms 1-2, 4-5, 10, 17-70 entry C          line   146 file /home/gridsan/tfroembgen/.conda/envs/psi4test/share/psi4/basis/jun-cc-pvdz-jkfit.gbs 
    atoms 3, 6                entry N          line   202 file /home/gridsan/tfroembgen/.conda/envs/psi4test/share/psi4/basis/jun-cc-pvdz-jkfit.gbs 
    atoms 7-9, 11-16, 71-88   entry H          line    70 file /home/gridsan/tfroembgen/.conda/envs/psi4test/share/psi4/basis/jun-cc-pvdz-jkfit.gbs 

  ==> Integral Setup <==

  ==> DiskDFJK: Density-Fitted J/K Matrices <==

    J tasked:                  Yes
    K tasked:                  Yes
    wK tasked:                  No
    OpenMP threads:             12
    Integrals threads:          12
    Memory [MiB]:            22888
    Algorithm:                Core
    Integral Cache:           LOAD
    Schwarz Cutoff:          1E-12
    Fitting Condition:       1E-10

   => Auxiliary Basis Set <=

  Basis Set: (JUN-CC-PVDZ AUX)
    Blend: JUN-CC-PVDZ-JKFIT
    Number of shells: 1890
    Number of basis functions: 5440
    Number of Cartesian functions: 6226
    Spherical Harmonics?: true
    Max angular momentum: 3

  Minimum eigenvalue in the overlap matrix is 8.3998038214E-10.
  Reciprocal condition number of the overlap matrix is 3.7579584309E-11.
    Using canonical orthogonalization.
  Overall, 14 of 1233 possible MOs eliminated.


  ==> Pre-Iterations <==

  SCF Guess: Superposition of Atomic Densities via on-the-fly atomic UHF (no occupation information).

   -------------------------
    Irrep   Nso     Nmo    
   -------------------------
     A       1233    1219 
   -------------------------
    Total    1233    1219
   -------------------------

  ==> Iterations <==

                           Total Energy        Delta E     RMS |[F,P]|

   @DF-RHF iter SAD:  -303.36533869673866   -3.03365e+02   0.00000e+00 
   @DF-RHF iter   1:  -303.16938813625018    1.95951e-01   3.43994e-04 ADIIS/DIIS
   @DF-RHF iter   2:  -303.28371155317080   -1.14323e-01   1.15845e-04 ADIIS/DIIS
   @DF-RHF iter   3:  -303.29515346000699   -1.14419e-02   4.53074e-05 DIIS
   @DF-RHF iter   4:  -303.29705357658048   -1.90012e-03   9.88559e-06 DIIS
   @DF-RHF iter   5:  -303.29715889888723   -1.05322e-04   2.40961e-06 DIIS
   @DF-RHF iter   6:  -303.29716813720421   -9.23832e-06   6.54121e-07 DIIS
   @DF-RHF iter   7:  -303.29716920900165   -1.07180e-06   3.31909e-07 DIIS
   @DF-RHF iter   8:  -303.29716946096153   -2.51960e-07   1.33507e-07 DIIS
   @DF-RHF iter   9:  -303.29716950928923   -4.83277e-08   3.37095e-08 DIIS
   @DF-RHF iter  10:  -303.29716951211452   -2.82529e-09   1.26809e-08 DIIS
   @DF-RHF iter  11:  -303.29716951236190   -2.47383e-10   2.99374e-09 DIIS
  Energy and wave function converged.


  ==> Post-Iterations <==

    Orbital Energies [Eh]
    ---------------------

    Doubly Occupied:                                                      

       1A    -15.834671     2A    -15.834139     3A    -11.529561  
       4A    -11.459860     5A    -11.458306     6A    -11.449669  
       7A    -11.449555     8A     -1.578243     9A     -1.433832  
      10A     -1.238674    11A     -1.189314    12A     -1.118870  
      13A     -1.022542    14A     -0.996974    15A     -0.917052  
      16A     -0.850526    17A     -0.816264    18A     -0.813213  
      19A     -0.790138    20A     -0.786230    21A     -0.781781  
      22A     -0.729707    23A     -0.725786    24A     -0.717098  
      25A     -0.596308    26A     -0.523865  

    Virtual:                                                              

      27A     -0.069285    28A     -0.065314    29A     -0.055104  
      30A     -0.049916    31A     -0.033159    32A     -0.031109  
      33A     -0.030034    34A     -0.029157    35A     -0.023671  
      36A     -0.023297    37A     -0.020188    38A     -0.009834  
      39A     -0.009807    40A     -0.005817    41A     -0.005000  
      42A     -0.001872    43A      0.001755    44A      0.003559  
      45A      0.005674    46A      0.006587    47A      0.006743  
      48A      0.010127    49A      0.011573    50A      0.014047  
      51A      0.020277    52A      0.024971    53A      0.025032  
      54A      0.025750    55A      0.029481    56A      0.032127  
      57A      0.032897    58A      0.034680    59A      0.036619  
      60A      0.041774    61A      0.042113    62A      0.045203  
      63A      0.045281    64A      0.045654    65A      0.053371  
      66A      0.056056    67A      0.056555    68A      0.060937  
      69A      0.062092    70A      0.064034    71A      0.064061  
      72A      0.067931    73A      0.068819    74A      0.069863  
      75A      0.071013    76A      0.072422    77A      0.073631  
      78A      0.074059    79A      0.076943    80A      0.078077  
      81A      0.080384    82A      0.080959    83A      0.082921  
      84A      0.088155    85A      0.088711    86A      0.089040  
      87A      0.091026    88A      0.092091    89A      0.092498  
      90A      0.094193    91A      0.096237    92A      0.096379  
      93A      0.098497    94A      0.101399    95A      0.101408  
      96A      0.102886    97A      0.105583    98A      0.107713  
      99A      0.107917   100A      0.108045   101A      0.109684  
     102A      0.112801   103A      0.114859   104A      0.116376  
     105A      0.123349   106A      0.123434   107A      0.125920  
     108A      0.126063   109A      0.127583   110A      0.128483  
     111A      0.129245   112A      0.131583   113A      0.131689  
     114A      0.132942   115A      0.133422   116A      0.134033  
     117A      0.134158   118A      0.134272   119A      0.138156  
     120A      0.139509   121A      0.140662   122A      0.142482  
     123A      0.148872   124A      0.149280   125A      0.149407  
     126A      0.150428   127A      0.150757   128A      0.154181  
     129A      0.155188   130A      0.157868   131A      0.158025  
     132A      0.159031   133A      0.159557   134A      0.161012  
     135A      0.161067   136A      0.161883   137A      0.165516  
     138A      0.174279   139A      0.175380   140A      0.175436  
     141A      0.176567   142A      0.176590   143A      0.179120  
     144A      0.179157   145A      0.179342   146A      0.181152  
     147A      0.185448   148A      0.186229   149A      0.187799  
     150A      0.189813   151A      0.190378   152A      0.190644  
     153A      0.192615   154A      0.192744   155A      0.192813  
     156A      0.193106   157A      0.194107   158A      0.194381  
     159A      0.194926   160A      0.200183   161A      0.201438  
     162A      0.202747   163A      0.203995   164A      0.206334  
     165A      0.206541   166A      0.207323   167A      0.221901  
     168A      0.221939   169A      0.222215   170A      0.224751  
     171A      0.228362   172A      0.228409   173A      0.228584  
     174A      0.228742   175A      0.231117   176A      0.231181  
     177A      0.234116   178A      0.234335   179A      0.234920  
     180A      0.235966   181A      0.238480   182A      0.238971  
     183A      0.239224   184A      0.239359   185A      0.240853  
     186A      0.240936   187A      0.249130   188A      0.251020  
     189A      0.251332   190A      0.251412   191A      0.253557  
     192A      0.256892   193A      0.259956   194A      0.263680  
     195A      0.263930   196A      0.267464   197A      0.268705  
     198A      0.268962   199A      0.269394   200A      0.273286  
     201A      0.278514   202A      0.278749   203A      0.280565  
     204A      0.281263   205A      0.281719   206A      0.281897  
     207A      0.284458   208A      0.298221   209A      0.298435  
     210A      0.298554   211A      0.298983   212A      0.299063  
     213A      0.299864   214A      0.302605   215A      0.305327  
     216A      0.305659   217A      0.308554   218A      0.308771  
     219A      0.313208   220A      0.314025   221A      0.316043  
     222A      0.316121   223A      0.318582   224A      0.319810  
     225A      0.320062   226A      0.322190   227A      0.322528  
     228A      0.326193   229A      0.326429   230A      0.326890  
     231A      0.327066   232A      0.331438   233A      0.331551  
     234A      0.338548   235A      0.339287   236A      0.339711  
     237A      0.344448   238A      0.352765   239A      0.353332  
     240A      0.354480   241A      0.355333   242A      0.356262  
     243A      0.356514   244A      0.362540   245A      0.372240  
     246A      0.372313   247A      0.373664   248A      0.373858  
     249A      0.374955   250A      0.375693   251A      0.380453  
     252A      0.380806   253A      0.382977   254A      0.383009  
     255A      0.383608   256A      0.384866   257A      0.385313  
     258A      0.386260   259A      0.387668   260A      0.394316  
     261A      0.397627   262A      0.397743   263A      0.399346  
     264A      0.400020   265A      0.405622   266A      0.405714  
     267A      0.406680   268A      0.406883   269A      0.407861  
     270A      0.409670   271A      0.410900   272A      0.415767  
     273A      0.418519   274A      0.419874   275A      0.419968  
     276A      0.423932   277A      0.425434   278A      0.425552  
     279A      0.428705   280A      0.428783   281A      0.430881  
     282A      0.435568   283A      0.436504   284A      0.437483  
     285A      0.439071   286A      0.439245   287A      0.439301  
     288A      0.439798   289A      0.443910   290A      0.445379  
     291A      0.445865   292A      0.446233   293A      0.451257  
     294A      0.458045   295A      0.458131   296A      0.458633  
     297A      0.461149   298A      0.468739   299A      0.468782  
     300A      0.473574   301A      0.475682   302A      0.477875  
     303A      0.478243   304A      0.478759   305A      0.481966  
     306A      0.482011   307A      0.482634   308A      0.485316  
     309A      0.493470   310A      0.494006   311A      0.494595  
     312A      0.495908   313A      0.497259   314A      0.497308  
     315A      0.499163   316A      0.504754   317A      0.508180  
     318A      0.515777   319A      0.515933   320A      0.518317  
     321A      0.524879   322A      0.524939   323A      0.527397  
     324A      0.527544   325A      0.528454   326A      0.529521  
     327A      0.531406   328A      0.531494   329A      0.536793  
     330A      0.549532   331A      0.549655   332A      0.550856  
     333A      0.550893   334A      0.552117   335A      0.552227  
     336A      0.560095   337A      0.561254   338A      0.561414  
     339A      0.567532   340A      0.567665   341A      0.568448  
     342A      0.571158   343A      0.571311   344A      0.572135  
     345A      0.583555   346A      0.583626   347A      0.584209  
     348A      0.591154   349A      0.591193   350A      0.596719  
     351A      0.596978   352A      0.597223   353A      0.598143  
     354A      0.603569   355A      0.609022   356A      0.612518  
     357A      0.614053   358A      0.623624   359A      0.624116  
     360A      0.626575   361A      0.629542   362A      0.629679  
     363A      0.630521   364A      0.630584   365A      0.634374  
     366A      0.641397   367A      0.641559   368A      0.643024  
     369A      0.643148   370A      0.643985   371A      0.648011  
     372A      0.648989   373A      0.653051   374A      0.654926  
     375A      0.655062   376A      0.655806   377A      0.658349  
     378A      0.658558   379A      0.658844   380A      0.659048  
     381A      0.661708   382A      0.671765   383A      0.673989  
     384A      0.674196   385A      0.675358   386A      0.675490  
     387A      0.682607   388A      0.689992   389A      0.691877  
     390A      0.695995   391A      0.699234   392A      0.699378  
     393A      0.708602   394A      0.711446   395A      0.711692  
     396A      0.713326   397A      0.716423   398A      0.716554  
     399A      0.717340   400A      0.717578   401A      0.717973  
     402A      0.719527   403A      0.719602   404A      0.725017  
     405A      0.725428   406A      0.725648   407A      0.728201  
     408A      0.728671   409A      0.729319   410A      0.735305  
     411A      0.739486   412A      0.739599   413A      0.741713  
     414A      0.741736   415A      0.747139   416A      0.747160  
     417A      0.747828   418A      0.748245   419A      0.755310  
     420A      0.756834   421A      0.757015   422A      0.757594  
     423A      0.766352   424A      0.776056   425A      0.780377  
     426A      0.795159   427A      0.795315   428A      0.800084  
     429A      0.800165   430A      0.811748   431A      0.812200  
     432A      0.813158   433A      0.816204   434A      0.821300  
     435A      0.832083   436A      0.832087   437A      0.837310  
     438A      0.837447   439A      0.839822   440A      0.842587  
     441A      0.846503   442A      0.849638   443A      0.849719  
     444A      0.856591   445A      0.868428   446A      0.876301  
     447A      0.876325   448A      0.882589   449A      0.899135  
     450A      0.900391   451A      0.910835   452A      0.910869  
     453A      0.919518   454A      0.919542   455A      0.928539  
     456A      0.940610   457A      0.940913   458A      0.947973  
     459A      0.949965   460A      0.950044   461A      0.954246  
     462A      0.960611   463A      0.964798   464A      0.972824  
     465A      0.979187   466A      0.979340   467A      0.995043  
     468A      0.995190   469A      1.010034   470A      1.015848  
     471A      1.016299   472A      1.016349   473A      1.019504  
     474A      1.019598   475A      1.029710   476A      1.048210  
     477A      1.053354   478A      1.053525   479A      1.056573  
     480A      1.064936   481A      1.095242   482A      1.102568  
     483A      1.106038   484A      1.106064   485A      1.112310  
     486A      1.112399   487A      1.125147   488A      1.126143  
     489A      1.126812   490A      1.133636   491A      1.133768  
     492A      1.138150   493A      1.147757   494A      1.147773  
     495A      1.149446   496A      1.154222   497A      1.161151  
     498A      1.171032   499A      1.171086   500A      1.178774  
     501A      1.180942   502A      1.239232   503A      1.247032  
     504A      1.247084   505A      1.252667   506A      1.257229  
     507A      1.257336   508A      1.260464   509A      1.270039  
     510A      1.272789   511A      1.272922   512A      1.278511  
     513A      1.280573   514A      1.314812   515A      1.316891  
     516A      1.321735   517A      1.321808   518A      1.344385  
     519A      1.371581   520A      1.393978   521A      1.394446  
     522A      1.412817   523A      1.412973   524A      1.414423  
     525A      1.418170   526A      1.418406   527A      1.421159  
     528A      1.421337   529A      1.433523   530A      1.434323  
     531A      1.462471   532A      1.477507   533A      1.495035  
     534A      1.502739   535A      1.505938   536A      1.506150  
     537A      1.508224   538A      1.509473   539A      1.515707  
     540A      1.519408   541A      1.561609   542A      1.572384  
     543A      1.586436   544A      1.589429   545A      1.598347  
     546A      1.601693   547A      1.603420   548A      1.610183  
     549A      1.611854   550A      1.613147   551A      1.618135  
     552A      1.633187   553A      1.633634   554A      1.634685  
     555A      1.642637   556A      1.649660   557A      1.659538  
     558A      1.668490   559A      1.679452   560A      1.685377  
     561A      1.696241   562A      1.697280   563A      1.697398  
     564A      1.698814   565A      1.700204   566A      1.703357  
     567A      1.708961   568A      1.709605   569A      1.711750  
     570A      1.714210   571A      1.717750   572A      1.728799  
     573A      1.737371   574A      1.741196   575A      1.741733  
     576A      1.743755   577A      1.744685   578A      1.746610  
     579A      1.748555   580A      1.749268   581A      1.753992  
     582A      1.755702   583A      1.762038   584A      1.774827  
     585A      1.775558   586A      1.778664   587A      1.780370  
     588A      1.780442   589A      1.780687   590A      1.784090  
     591A      1.784448   592A      1.791124   593A      1.791508  
     594A      1.791722   595A      1.791790   596A      1.793525  
     597A      1.804156   598A      1.807034   599A      1.808346  
     600A      1.811604   601A      1.812035   602A      1.816096  
     603A      1.825248   604A      1.826335   605A      1.827008  
     606A      1.831417   607A      1.835984   608A      1.837384  
     609A      1.838898   610A      1.842568   611A      1.842899  
     612A      1.843707   613A      1.854853   614A      1.855026  
[...]
     790A      1.643505   791A      1.643536   792A      1.643611  
     793A      1.643907   794A      1.649606   795A      1.660804  
     796A      1.660935   797A      1.661237   798A      1.667391  
     799A      1.670084   800A      1.676247   801A      1.676331  
     802A      1.676727   803A      1.676736   804A      1.677007  
     805A      1.682738   806A      1.686593   807A      1.686647  
     808A      1.696032   809A      1.697143   810A      1.699329  
     811A      1.699369   812A      1.700653   813A      1.704736  
     814A      1.704806   815A      1.715710   816A      1.715726  
     817A      1.741670   818A      1.751380   819A      1.753936  
     820A      1.760237   821A      1.760270   822A      1.761058  
     823A      1.761724   824A      1.776712   825A      1.776745  
     826A      1.781365   827A      1.791454   828A      1.791480  
     829A      1.794652   830A      1.797818   831A      1.801266  
     832A      1.816507   833A      1.816535   834A      1.816646  
     835A      1.818004   836A      1.824634   837A      1.824738  
     838A      1.830462   839A      1.830758   840A      1.831234  
     841A      1.836643   842A      1.842393   843A      1.842666  
     844A      1.853624   845A      1.860558   846A      1.860663  
     847A      1.860752   848A      1.860786   849A      1.864026  
     850A      1.868593   851A      1.872119   852A      1.880132  
     853A      1.880203   854A      1.887295   855A      1.895031  
     856A      1.896086   857A      1.896206   858A      1.899355  
     859A      1.902925   860A      1.903058   861A      1.908508  
     862A      1.908656   863A      1.912245   864A      1.913754  
     865A      1.913953   866A      1.917627   867A      1.917781  
     868A      1.919220   869A      1.921947   870A      1.922043  
     871A      1.940445   872A      1.940964   873A      1.941343  
     874A      1.941695   875A      1.941881   876A      1.946371  
     877A      1.946403   878A      1.953867   879A      1.953949  
     880A      1.954166   881A      1.954291   882A      1.957979  
     883A      1.969908   884A      1.982753   885A      1.982824  
     886A      1.989289   887A      1.990976   888A      1.997089  
     889A      1.998505   890A      1.998526   891A      2.003592  
     892A      2.007994   893A      2.012213   894A      2.012375  
     895A      2.014053   896A      2.026203   897A      2.027811  
     898A      2.029898   899A      2.030002   900A      2.030184  
     901A      2.030511   902A      2.031197   903A      2.031320  
     904A      2.035875   905A      2.045721   906A      2.047912  
     907A      2.051693   908A      2.052020   909A      2.055015  
     910A      2.057304   911A      2.058110   912A      2.058728  
     913A      2.059487   914A      2.068182   915A      2.069887  
     916A      2.071080   917A      2.071425   918A      2.075165  
     919A      2.075274   920A      2.079721   921A      2.080663  
     922A      2.084011   923A      2.084248   924A      2.084468  
     925A      2.092675   926A      2.093557   927A      2.095243  
     928A      2.096841   929A      2.100433   930A      2.100489  
     931A      2.105019   932A      2.107497   933A      2.108162  
     934A      2.108228   935A      2.108965   936A      2.108989  
     937A      2.110240   938A      2.114006   939A      2.119114  
     940A      2.119179   941A      2.120119   942A      2.120175  
     943A      2.121004   944A      2.125795   945A      2.126001  
     946A      2.129560   947A      2.133355   948A      2.134533  
     949A      2.135640   950A      2.135757   951A      2.136840  
     952A      2.143147   953A      2.143169   954A      2.155056  
     955A      2.155290   956A      2.159513   957A      2.159578  
     958A      2.162643   959A      2.162736   960A      2.171196  
     961A      2.178177   962A      2.178247   963A      2.183150  
     964A      2.190142   965A      2.190317   966A      2.190710  
     967A      2.192480   968A      2.193736   969A      2.195748  
     970A      2.195873   971A      2.198218   972A      2.210088  
     973A      2.219646   974A      2.220233   975A      2.220275  
     976A      2.227628   977A      2.228092   978A      2.228453  
     979A      2.228712   980A      2.230816   981A      2.243205  
     982A      2.243544   983A      2.243759   984A      2.244128  
     985A      2.247042   986A      2.260008   987A      2.260109  
     988A      2.265356   989A      2.270098   990A      2.270111  
     991A      2.271660   992A      2.272032   993A      2.272115  
     994A      2.281037   995A      2.293911   996A      2.300184  
     997A      2.306655   998A      2.309147   999A      2.310260  
    1000A      2.312050  1001A      2.319469  1002A      2.322206  
    1003A      2.330895  1004A      2.330953  1005A      2.331053  
    1006A      2.333716  1007A      2.334365  1008A      2.335373  
    1009A      2.350640  1010A      2.351314  1011A      2.352326  
    1012A      2.352401  1013A      2.366212  1014A      2.366333  
    1015A      2.374563  1016A      2.379143  1017A      2.381526  
    1018A      2.415795  1019A      2.423985  1020A      2.424351  
    1021A      2.424377  1022A      2.436435  1023A      2.438959  
    1024A      2.441043  1025A      2.441096  1026A      2.444405  
    1027A      2.452297  1028A      2.466459  1029A      2.469905  
    1030A      2.472499  1031A      2.472762  1032A      2.473317  
    1033A      2.485262  1034A      2.485298  1035A      2.502281  
    1036A      2.502948  1037A      2.518970  1038A      2.529579  
    1039A      2.529813  1040A      2.543239  1041A      2.545175  
    1042A      2.545259  1043A      2.554119  1044A      2.554195  
    1045A      2.554774  1046A      2.559800  1047A      2.559806  
    1048A      2.572941  1049A      2.572961  1050A      2.573236  
    1051A      2.574660  1052A      2.575190  1053A      2.586202  
    1054A      2.586310  1055A      2.587167  1056A      2.589679  
    1057A      2.591377  1058A      2.605906  1059A      2.623304  
    1060A      2.623414  1061A      2.624801  1062A      2.629923  
    1063A      2.631264  1064A      2.631804  1065A      2.640990  
    1066A      2.641156  1067A      2.641409  1068A      2.647691  
    1069A      2.650730  1070A      2.651083  1071A      2.655909  
    1072A      2.656827  1073A      2.670834  1074A      2.681765  
    1075A      2.682904  1076A      2.683949  1077A      2.686689  
    1078A      2.701854  1079A      2.702174  1080A      2.712983  
    1081A      2.712990  1082A      2.718613  1083A      2.718632  
    1084A      2.722366  1085A      2.722606  1086A      2.733667  
    1087A      2.736953  1088A      2.745055  1089A      2.752006  
    1090A      2.752326  1091A      2.764824  1092A      2.776833  
    1093A      2.794278  1094A      2.794434  1095A      2.800959  
    1096A      2.814876  1097A      2.827069  1098A      2.827373  
    1099A      2.832701  1100A      2.851001  1101A      2.851287  
    1102A      2.855993  1103A      2.858283  1104A      2.859175  
    1105A      2.859334  1106A      2.866699  1107A      2.871070  
    1108A      2.887060  1109A      2.905866  1110A      2.916631  
    1111A      2.916649  1112A      2.920728  1113A      2.923413  
    1114A      2.933446  1115A      2.933515  1116A      2.942478  
    1117A      2.949517  1118A      2.949543  1119A      2.962646  
    1120A      2.967426  1121A      2.990136  1122A      3.002215  
    1123A      3.006150  1124A      3.006356  1125A      3.011844  
    1126A      3.029177  1127A      3.034530  1128A      3.064025  
    1129A      3.064053  1130A      3.070362  1131A      3.070388  
    1132A      3.109287  1133A      3.110109  1134A      3.126914  
    1135A      3.129364  1136A      3.129590  1137A      3.137431  
    1138A      3.138383  1139A      3.145895  1140A      3.146087  
    1141A      3.146184  1142A      3.148813  1143A      3.148836  
    1144A      3.157492  1145A      3.157870  1146A      3.165440  
    1147A      3.165923  1148A      3.191578  1149A      3.211125  
    1150A      3.218160  1151A      3.237131  1152A      3.271448  
    1153A      3.276858  1154A      3.277006  1155A      3.281661  
    1156A      3.281839  1157A      3.283128  1158A      3.301342  
    1159A      3.314399  1160A      3.389610  1161A      3.416111  
    1162A      3.416608  1163A      3.442677  1164A      3.481205  
    1165A      3.483813  1166A      3.520522  1167A      3.548904  
    1168A      3.563709  1169A      3.576948  1170A      3.578920  
    1171A      3.593789  1172A      3.626427  1173A      3.628415  
    1174A      3.641755  1175A      3.662668  1176A      3.666735  
    1177A      3.754570  1178A      3.769200  1179A      3.782580  
    1180A      3.783571  1181A      3.812698  1182A      3.864859  
    1183A      3.870654  1184A      3.870670  1185A      3.913014  
    1186A      3.913127  1187A      3.954997  1188A      3.976880  
    1189A      4.010831  1190A      4.032583  1191A      4.044475  
    1192A      4.080528  1193A      4.201569  1194A      4.204644  
    1195A      4.335688  1196A      4.356679  1197A      4.479069  
    1198A      4.731138  1199A      4.769089  1200A      4.825428  
    1201A      4.842635  1202A      4.932243  1203A      5.045724  
    1204A      5.053067  1205A      5.062389  1206A      5.107040  
    1207A      5.122865  1208A      5.387662  1209A      5.417571  
    1210A      5.728715  1211A      5.748265  1212A      6.064089  
    1213A     18.195730  1214A     18.449574  1215A     18.467069  
    1216A     18.555041  1217A     18.827766  1218A     25.335734  
    1219A     25.371719  

    Final Occupation by Irrep:
              A 
    DOCC [   171 ]
    NA   [   171 ]
    NB   [   171 ]

  @DF-RHF Final Energy: -2055.89158837159903

   => Energetics <=

    Nuclear Repulsion Energy =           6452.5568002797781446
    One-Electron Energy =              -15636.4235168376908405
    Two-Electron Energy =                7127.9751281863145778
    Total Energy =                      -2055.8915883715990276

Computation Completed


Properties will be evaluated at   0.000000,   0.000000,   0.000000 [a0]

Properties computed using the SCF density matrix


 Multipole Moments:

 ------------------------------------------------------------------------------------
     Multipole            Electronic (a.u.)      Nuclear  (a.u.)        Total (a.u.)
 ------------------------------------------------------------------------------------

 L = 1.  Multiply by 2.5417464519 to convert [e a0] to [Debye]
 Dipole X            :          0.0001053           -0.0000085            0.0000968
 Dipole Y            :         -0.0000306            0.0000167           -0.0000139
 Dipole Z            :       -789.1520543          789.1521905            0.0001363
 Magnitude           :                                                    0.0001677

 ------------------------------------------------------------------------------------

*** tstop() called on d-16-7-4 at Mon Jan 22 20:22:10 2024
Module time:
	user time   =    2533.47 seconds =      42.22 minutes
	system time =      45.62 seconds =       0.76 minutes
	total time  =        266 seconds =       4.43 minutes
Total time:
	user time   =    8590.31 seconds =     143.17 minutes
	system time =     185.85 seconds =       3.10 minutes
	total time  =        941 seconds =      15.68 minutes
  Constructing Basis Sets for SAPT...

   => Loading Basis Set <=

    Name: (JUN-CC-PVDZ AUX)
    Role: RIFIT
    Keyword: DF_BASIS_SAPT
    atoms 1-2, 4-5, 10, 17-70 entry C          line   100 file /home/gridsan/tfroembgen/.conda/envs/psi4test/share/psi4/basis/jun-cc-pvdz-ri.gbs 
    atoms 3, 6                entry N          line   144 file /home/gridsan/tfroembgen/.conda/envs/psi4test/share/psi4/basis/jun-cc-pvdz-ri.gbs 
    atoms 7-9, 11-16, 71-88   entry H          line    30 file /home/gridsan/tfroembgen/.conda/envs/psi4test/share/psi4/basis/jun-cc-pvdz-ri.gbs 

   => Loading Basis Set <=

    Name: (JUN-CC-PVDZ AUX)
    Role: JKFIT
    Keyword: DF_BASIS_ELST
    atoms 1-2, 4-5, 10, 17-70 entry C          line   146 file /home/gridsan/tfroembgen/.conda/envs/psi4test/share/psi4/basis/jun-cc-pvdz-jkfit.gbs 
    atoms 3, 6                entry N          line   202 file /home/gridsan/tfroembgen/.conda/envs/psi4test/share/psi4/basis/jun-cc-pvdz-jkfit.gbs 
    atoms 7-9, 11-16, 71-88   entry H          line    70 file /home/gridsan/tfroembgen/.conda/envs/psi4test/share/psi4/basis/jun-cc-pvdz-jkfit.gbs 


  //>>>>>>>>>>>>>>>>>>>>>>>>>>>>>>>>>>>//
  //               SSAPT0              //
  //<<<<<<<<<<<<<<<<<<<<<<<<<<<<<<<<<<<//


*** tstart() called on d-16-7-4
*** at Mon Jan 22 20:22:11 2024

        SAPT0  
    Ed Hohenstein
     6 June 2009

      Orbital Information
  --------------------------
    NSO        =      1233
    NMO        =      1219
    NRI        =      4343
    NRI (Elst) =      5440
    NOCC A     =        26
    NOCC B     =       171
    FOCC A     =         7
    FOCC B     =        54
    NVIR A     =      1193
    NVIR B     =      1048

    Elst10,r            =    -0.004573544214 [Eh]
    Exch10              =    -0.000000023430 [Eh]
    Exch10 (S^2)        =    -0.000000023430 [Eh]

    Iter     Energy [mEh]          dE [mEh]         Residual      Time [s]
       1      -0.00718974       0.007189744       0.802277409           771
       2      -0.00682806      -0.000361685       0.211705708          1296
       3      -0.00753172       0.000703663       0.058264859          1662
       4      -0.00757101       0.000039291       0.027398541          1955
       5      -0.00753728      -0.000033733       0.007329371          2152
       6      -0.00753849       0.000001214       0.002548306          2403
       7      -0.00754090       0.000002405       0.000646338          2606
       8      -0.00754103       0.000000129       0.000208397          2821
       9      -0.00754094      -0.000000091       0.000061288          3111
      10      -0.00754091      -0.000000026       0.000018780          3387
      11      -0.00754091       0.000000003       0.000005295          3619
      12      -0.00754092       0.000000003       0.000001519          3872
      13      -0.00754092      -0.000000000       0.000000591          4054

    CHF Iterations converged


    Iter     Energy [mEh]          dE [mEh]         Residual      Time [s]
       1      -1.26232830       1.262328299      18.445725566           377
       2      -0.86486729      -0.397461006       2.197012230           728
       3      -0.86914321       0.004275913       0.861883958           918
       4      -0.89036387       0.021220661       0.193391270          1063
       5      -0.89124019       0.000876323       0.053733665          1150
       6      -0.89078711      -0.000453078       0.024721253          1170
       7      -0.89065460      -0.000132515       0.012008144          1195
       8      -0.89073808       0.000083483       0.008856961          1229
       9      -0.89076145       0.000023367       0.005207879          1270
      10      -0.89073977      -0.000021673       0.002755139          1288
      11      -0.89073379      -0.000005988       0.001297646          1315
      12      -0.89073626       0.000002471       0.000630481          1429
      13      -0.89073809       0.000001833       0.000259275          1504
      14      -0.89073766      -0.000000424       0.000139681          1524
      15      -0.89073727      -0.000000397       0.000059968          1675
      16      -0.89073734       0.000000077       0.000030934          1724
      17      -0.89073744       0.000000094       0.000010126          1906
      18      -0.89073743      -0.000000006       0.000003185          1953
      19      -0.89073742      -0.000000008       0.000001523          1978
      20      -0.89073742      -0.000000001       0.000000651          2005

    CHF Iterations converged

    Ind20,r (A<-B)      =    -0.000007540916 [Eh]
    Ind20,r (B<-A)      =    -0.000890737423 [Eh]
    Ind20,r             =    -0.000898278340 [Eh]
    Exch-Ind20,r (A<-B) =     0.000000001907 [Eh]
    Exch-Ind20,r (B<-A) =     0.000000006146 [Eh]
    Exch-Ind20,r        =     0.000000008053 [Eh]
    Disp20              =    -0.000297588098 [Eh]
    Disp20 (SS)         =    -0.000148794049 [Eh]
    Disp20 (OS)         =    -0.000148794049 [Eh]
    Exch-Disp20         =     0.000000003501 [Eh]
    Exch-Disp20 (SS)    =     0.000000002594 [Eh]
    Exch-Disp20 (OS)    =     0.000000000908 [Eh]

    SAPT Results 
  --------------------------------------------------------------------------------------------------------
    Electrostatics                 -4.57354421 [mEh]      -2.86994232 [kcal/mol]     -12.00783868 [kJ/mol]
      Elst10,r                     -4.57354421 [mEh]      -2.86994232 [kcal/mol]     -12.00783868 [kJ/mol]

    Exchange                       -0.00002343 [mEh]      -0.00001470 [kcal/mol]      -0.00006152 [kJ/mol]
      Exch10                       -0.00002343 [mEh]      -0.00001470 [kcal/mol]      -0.00006152 [kJ/mol]
      Exch10(S^2)                  -0.00002343 [mEh]      -0.00001470 [kcal/mol]      -0.00006152 [kJ/mol]

    Induction                      -0.90551978 [mEh]      -0.56822224 [kcal/mol]      -2.37744186 [kJ/mol]
      Ind20,r                      -0.89827834 [mEh]      -0.56367817 [kcal/mol]      -2.35842946 [kJ/mol]
      Exch-Ind20,r                  0.00000805 [mEh]       0.00000505 [kcal/mol]       0.00002114 [kJ/mol]
      delta HF,r (2)               -0.00724950 [mEh]      -0.00454913 [kcal/mol]      -0.01903355 [kJ/mol]

    Dispersion                     -0.29758460 [mEh]      -0.18673715 [kcal/mol]      -0.78130825 [kJ/mol]
      Disp20                       -0.29758810 [mEh]      -0.18673935 [kcal/mol]      -0.78131744 [kJ/mol]
      Exch-Disp20                   0.00000350 [mEh]       0.00000220 [kcal/mol]       0.00000919 [kJ/mol]
      Disp20 (SS)                  -0.14879405 [mEh]      -0.09336968 [kcal/mol]      -0.39065872 [kJ/mol]
      Disp20 (OS)                  -0.14879405 [mEh]      -0.09336968 [kcal/mol]      -0.39065872 [kJ/mol]
      Exch-Disp20 (SS)              0.00000259 [mEh]       0.00000163 [kcal/mol]       0.00000681 [kJ/mol]
      Exch-Disp20 (OS)              0.00000091 [mEh]       0.00000057 [kcal/mol]       0.00000238 [kJ/mol]

  Total HF                         -5.47908743 [mEh]      -3.43817927 [kcal/mol]     -14.38534206 [kJ/mol]
  Total SAPT0                      -5.77667202 [mEh]      -3.62491642 [kcal/mol]     -15.16665031 [kJ/mol]

  Special recipe for scaled SAPT0 (see Manual):
    Electrostatics sSAPT0          -4.57354421 [mEh]      -2.86994232 [kcal/mol]     -12.00783868 [kJ/mol]
    Exchange sSAPT0                -0.00002343 [mEh]      -0.00001470 [kcal/mol]      -0.00006152 [kJ/mol]
    Induction sSAPT0               -0.90551978 [mEh]      -0.56822224 [kcal/mol]      -2.37744186 [kJ/mol]
    Dispersion sSAPT0              -0.29758460 [mEh]      -0.18673715 [kcal/mol]      -0.78130825 [kJ/mol]
  Total sSAPT0                     -5.77667202 [mEh]      -3.62491642 [kcal/mol]     -15.16665031 [kJ/mol]
  --------------------------------------------------------------------------------------------------------

*** tstop() called on d-16-7-4 at Mon Jan 22 22:49:54 2024
Module time:
	user time   =    8947.70 seconds =     149.13 minutes
	system time =    1075.35 seconds =      17.92 minutes
	total time  =       8863 seconds =     147.72 minutes
Total time:
	user time   =   17539.06 seconds =     292.32 minutes
	system time =    1261.21 seconds =      21.02 minutes
	total time  =       9805 seconds =     163.42 minutes

    Psi4 stopped on: Monday, 22 January 2024 10:49PM
    Psi4 wall time for execution: 2:43:26.57

*** Psi4 exiting successfully. Buy a developer a beer!
