
    -----------------------------------------------------------------------
          Psi4: An Open-Source Ab Initio Electronic Structure Package
                               Psi4 1.9 release

                         Git: Rev {} zzzzzzz 


    D. G. A. Smith, L. A. Burns, A. C. Simmonett, R. M. Parrish,
    M. C. Schieber, R. Galvelis, P. Kraus, H. Kruse, R. Di Remigio,
    A. Alenaizan, A. M. James, S. Lehtola, J. P. Misiewicz, M. Scheurer,
    R. A. Shaw, J. B. Schriber, Y. Xie, Z. L. Glick, D. A. Sirianni,
    J. S. O'Brien, J. M. Waldrop, A. Kumar, E. G. Hohenstein,
    B. P. Pritchard, B. R. Brooks, H. F. Schaefer III, A. Yu. Sokolov,
    K. Patkowski, A. E. DePrince III, U. Bozkaya, R. A. King,
    F. A. Evangelista, J. M. Turney, T. D. Crawford, C. D. Sherrill,
    J. Chem. Phys. 152(18) 184108 (2020). https://doi.org/10.1063/5.0006002

                            Additional Code Authors
    E. T. Seidl, C. L. Janssen, E. F. Valeev, M. L. Leininger,
    J. F. Gonthier, R. M. Richard, H. R. McAlexander, M. Saitow, X. Wang,
    P. Verma, M. H. Lechner, A. Jiang, S. Behnle, A. G. Heide,
    M. F. Herbst, and D. L. Poole

             Previous Authors, Complete List of Code Contributors,
                       and Citations for Specific Modules
    https://github.com/psi4/psi4/blob/master/codemeta.json
    https://github.com/psi4/psi4/graphs/contributors
    http://psicode.org/psi4manual/master/introduction.html#citing-psifour

    -----------------------------------------------------------------------


    Psi4 started on: Monday, 22 January 2024 10:23PM

    Process ID: 893411
    Host:       d-16-13-4
    PSIDATADIR: /home/gridsan/tfroembgen/.conda/envs/psi4test/share/psi4
    Memory:     500.0 MiB
    Threads:    12
    
  ==> Input File <==

--------------------------------------------------------------------------
memory 32 GB # how much memory is available ! Depends on the nodes/cores !

molecule dimer {
# monomer A
+1 1    # Charge and multiplicity
C  0.680067 1.417258 -10.015929
C -0.680504 1.419286 -10.015545
N -1.085635 1.420284  -8.697221
C  0.000108 1.423560  -7.915820
C -2.477365 1.469690  -8.229242
N  1.085222 1.420284  -8.697221
H  1.385146 1.409430 -10.833368
H -1.385302 1.419096 -10.833214
H -0.000009 1.425307  -6.834731
C  2.478117 1.403392  -8.232123
H  2.490592 1.430737  -7.141870
H  2.967028 0.489946  -8.579299
H  3.001428 2.278875  -8.623595
H -2.857359 2.491761  -8.309201
H -3.082679 0.799606  -8.842306
H -2.518128 1.142706  -7.189294
--
# monomer B
0 1     # Charge and multiplicity
C   1.22531237526482      0.70753866091955      0.00613762728373
C   1.22532433589282     -0.70753852257020     -0.00619318228664
C   -0.00000567409046      1.41496628609039     -0.00672680580738
C   2.45644923379077      1.41832825917820      0.00902448468363
C   0.00001130712078     -1.41497612663474      0.00347275151708
C   -1.22530046906674      0.70754574598412      0.00838914760619
C   2.45643823516184     -1.41832293188077     -0.00843833914343
C   -0.00000085313587      2.83680140328112     -0.00913035594137
C   3.68182717731192      0.70931832800114     -0.00808954934571
C   2.45512052870677      2.83422403348893     -0.00819210630633
C   3.68182158506039     -0.70933346742900      0.00798293467272
C   -1.22531311884624     -0.70752714354401     -0.00512042085974
C   1.22670006104402      3.54346985599427      0.00816696660346
C   0.00000526469929     -2.83678176723568      0.00832091913869
C   -2.45643555300670      1.41831729028492      0.00842454345199
C   2.45512389762097     -2.83422965658853      0.00783102630520
C   -1.22671388474763      3.54346943575023      0.00827029982280
C   4.91451777504333      1.42717324448953     -0.00160886631602
C   3.69315067131765      3.54279566454522     -0.00155906667985
C   -2.45643712022637     -1.41831290883911     -0.00846337726810
C   1.22670532178455     -3.54347386990643     -0.00780316414624
C   -2.45512491866593      2.83421703463423     -0.00818572995999
C   4.91452486062398     -1.42718653794377      0.00136387641845
C   1.22142509354026      4.97013443726031      0.00150231067809
C   4.89300870916237      2.82518837202648     -0.00039219795739
C   -1.22669652864725     -3.54347062507680     -0.00753595973677
C   -3.68181849668397      0.70932533873199     -0.00807686886569
C   3.69314758099218     -3.54280096939050      0.00148176697923
C   -1.22143177215231      4.97012866986289      0.00168580605083
C   6.13477145276790      0.68054831910577     -0.00083909176631
C   3.65678936045204      4.97295361556775     -0.00065042889723
C   -2.45512642789169     -2.83421472106065      0.00758666850712
C   -3.68181869921921     -0.70932533146830      0.00810055625144
C   4.89301309775526     -2.82519973363176      0.00021895393805
C   -0.00000059327114      5.65044773803267      0.00045449734393
C   6.13477559217374     -0.68055448207492      0.00042622874941
C   2.47813196269732      5.65357712333155      0.00063835075260
C   1.22142288457925     -4.97012668293268     -0.00129718634452
C   -3.69316190412301      3.54279732619245     -0.00139355922051
C   -1.22142804110313     -4.97011793159564     -0.00140994817719
C   -4.91452132810043      1.42717581899491     -0.00153192130862
C   3.65678749952045     -4.97295485423912      0.00080007163680
C   -2.47813805026426      5.65357479452875      0.00092287576113
C   -3.69314125872231     -3.54278984697859      0.00136564082345
C   -4.91451200321153     -1.42718062802730      0.00139857359209
C   -0.00000552908399     -5.65043791501335      0.00005899322272
C   -4.89302000425900      2.82518897091939     -0.00040227981744
C   2.47812647313991     -5.65357317188818     -0.00029052915548
C   -3.65679823041642      4.97295655404175     -0.00047374852278
C   -4.89299899901461     -2.82519139505969      0.00006491824035
C   -2.47812801824129     -5.65356579800621     -0.00056571680280
C   -6.13477002348955      0.68054913825639     -0.00086464346868
C   -3.65678835334731     -4.97294365097028      0.00058578382008
C   -6.13476456307132     -0.68055354348201      0.00040575295444
H   5.83528897565761      3.36927626695423      0.00396712770529
H   7.07385965258860      1.22821762089947     -0.00037744837300
H   4.60066374401555      5.51238117445323     -0.00014522814529
H   5.83528386714679     -3.36930568472863     -0.00423551337640
H   -0.00001167146422      6.73853104613662     -0.00389474766392
H   7.07386165167227     -1.22822657074368     -0.00008250934481
H   2.47331421164041      6.74068466339473      0.00017162982210
H   4.60066897122302     -5.51237575717576      0.00039007446835
H   -2.47331820069565      6.74068209160650      0.00047297644710
H   -0.00000978838621     -6.73852780445195      0.00458867820736
H   -5.83530143450167      3.36927132229595      0.00410314985360
H   2.47330840367253     -6.74068500242887      0.00027980126949
H   -4.60067436136587      5.51237839860371      0.00002010017831
H   -5.83527902699321     -3.36928859177951     -0.00451481925734
H   -2.47329986759855     -6.74067870613986     -0.00016951527498
H   -7.07385728692578      1.22822084484047     -0.00046143985387
H   -4.60067330624313     -5.51236229778631      0.00021776644566
H   -7.07385645456741     -1.22822025997701     -0.00017736581114

    units angstrom      # Angstroms are the default
    no_reorient         # Geometry fixed, default
    symmetry c1         # C1 symmetry, default
}

set {
    scf_type DF         # Density fitting, faster than exact integrals
    freeze_core True    # Freeze core electrons
    basis jun-cc-pVDZ   # Jun-cc-pVDZ basis set, recommended for sSAPT0 in https://doi.org/10.1063/1.4867135
}

energy('ssapt0')        # Compute sSAPT0 energy, includes also SAPT0
--------------------------------------------------------------------------

  Memory set to  29.802 GiB by Python driver.

Scratch directory: /state/partition1/slurm_tmp/24798317.4294967291.0/
   => Loading Basis Set <=

    Name: JUN-CC-PVDZ
    Role: ORBITAL
    Keyword: BASIS
    atoms 1-2, 4-5, 10, 17-70 entry C          line   164 file /home/gridsan/tfroembgen/.conda/envs/psi4test/share/psi4/basis/jun-cc-pvdz.gbs 
    atoms 3, 6                entry N          line   198 file /home/gridsan/tfroembgen/.conda/envs/psi4test/share/psi4/basis/jun-cc-pvdz.gbs 
    atoms 7-9, 11-16, 71-88   entry H          line    36 file /home/gridsan/tfroembgen/.conda/envs/psi4test/share/psi4/basis/jun-cc-pvdz.gbs 

   => Loading Basis Set <=

    Name: JUN-CC-PVDZ
    Role: ORBITAL
    Keyword: BASIS
    atoms 1-2, 4-5, 10, 17-70 entry C          line   164 file /home/gridsan/tfroembgen/.conda/envs/psi4test/share/psi4/basis/jun-cc-pvdz.gbs 
    atoms 3, 6                entry N          line   198 file /home/gridsan/tfroembgen/.conda/envs/psi4test/share/psi4/basis/jun-cc-pvdz.gbs 
    atoms 7-9, 11-16, 71-88   entry H          line    36 file /home/gridsan/tfroembgen/.conda/envs/psi4test/share/psi4/basis/jun-cc-pvdz.gbs 


  //>>>>>>>>>>>>>>>>>>>>>>>>>>>>>>>>>>>//
  //              Dimer HF             //
  //<<<<<<<<<<<<<<<<<<<<<<<<<<<<<<<<<<<//

   => Libint2 <=

    Primary   basis highest AM E, G, H:  7, 7, 4
    Auxiliary basis highest AM E, G, H:  7, 7, 5
    Onebody   basis highest AM E, G, H:  7, 7, 5
    Solid Harmonics ordering:            gaussian

*** tstart() called on d-16-13-4
*** at Mon Jan 22 22:23:53 2024

   => Loading Basis Set <=

    Name: JUN-CC-PVDZ
    Role: ORBITAL
    Keyword: BASIS
    atoms 1-2, 4-5, 10, 17-70 entry C          line   164 file /home/gridsan/tfroembgen/.conda/envs/psi4test/share/psi4/basis/jun-cc-pvdz.gbs 
    atoms 3, 6                entry N          line   198 file /home/gridsan/tfroembgen/.conda/envs/psi4test/share/psi4/basis/jun-cc-pvdz.gbs 
    atoms 7-9, 11-16, 71-88   entry H          line    36 file /home/gridsan/tfroembgen/.conda/envs/psi4test/share/psi4/basis/jun-cc-pvdz.gbs 


         ---------------------------------------------------------
                                   SCF
               by Justin Turney, Rob Parrish, Andy Simmonett
                          and Daniel G. A. Smith
                              RHF Reference
                       12 Threads,  30517 MiB Core
         ---------------------------------------------------------

  ==> Geometry <==

    Molecular point group: c1
    Full point group: C1

    Geometry (in Angstrom), charge = 1, multiplicity = 1:

       Center              X                  Y                   Z               Mass       
    ------------   -----------------  -----------------  -----------------  -----------------
         C            0.680066520158     1.235968212970    -8.896625265091    12.000000000000
         C           -0.680504479842     1.237996212970    -8.896241265091    12.000000000000
         N           -1.085635479842     1.238994212970    -7.577917265091    14.003074004430
         C            0.000107520158     1.242270212970    -6.796516265091    12.000000000000
         C           -2.477365479842     1.288400212970    -7.109938265091    12.000000000000
         N            1.085221520158     1.238994212970    -7.577917265091    14.003074004430
         H            1.385145520158     1.228140212970    -9.714064265091     1.007825032230
         H           -1.385302479842     1.237806212970    -9.713910265091     1.007825032230
         H           -0.000009479842     1.244017212970    -5.715427265091     1.007825032230
         C            2.478116520158     1.222102212970    -7.112819265091    12.000000000000
         H            2.490591520158     1.249447212970    -6.022566265091     1.007825032230
         H            2.967027520158     0.308656212970    -7.459995265091     1.007825032230
         H            3.001427520158     2.097585212970    -7.504291265091     1.007825032230
         H           -2.857359479842     2.310471212970    -7.189897265091     1.007825032230
         H           -3.082679479842     0.618316212970    -7.723002265091     1.007825032230
         H           -2.518128479842     0.961416212970    -6.069990265091     1.007825032230
         C            1.225311895423     0.526248873889     1.125441362192    12.000000000000
         C            1.225323856051    -0.888828309601     1.113110552622    12.000000000000
         C           -0.000006153932     1.233676499060     1.112576929101    12.000000000000
         C            2.456448753949     1.237038472148     1.128328219592    12.000000000000
         C            0.000010827279    -1.596265913665     1.122776486426    12.000000000000
         C           -1.225300948908     0.526255958954     1.127692882515    12.000000000000
         C            2.456437755320    -1.599612718911     1.110865395765    12.000000000000
         C           -0.000001332978     2.655511616251     1.110173378967    12.000000000000
         C            3.681826697470     0.528028540971     1.111214185563    12.000000000000
         C            2.455120048865     2.652934246459     1.111111628602    12.000000000000
         C            3.681821105219    -0.890623254459     1.127286669581    12.000000000000
         C           -1.225313598688    -0.888816930574     1.114183314049    12.000000000000
         C            1.226699581202     3.362180068964     1.127470701512    12.000000000000
         C            0.000004784858    -3.018071554266     1.127624654047    12.000000000000
         C           -2.456436032848     1.237027503255     1.127728278360    12.000000000000
         C            2.455123417779    -3.015519443619     1.127134761214    12.000000000000
         C           -1.226714364589     3.362179648720     1.127574034731    12.000000000000
         C            4.914517295202     1.245883457459     1.117694868592    12.000000000000
         C            3.693150191476     3.361505877515     1.117744668229    12.000000000000
         C           -2.456437600068    -1.599602695869     1.110840357640    12.000000000000
         C            1.226704841943    -3.724763656937     1.111500570762    12.000000000000
         C           -2.455125398508     2.652927247604     1.111118004949    12.000000000000
         C            4.914524380782    -1.608476324974     1.120667611327    12.000000000000
         C            1.221424613699     4.788844650230     1.120806045587    12.000000000000
         C            4.893008229321     2.643898584996     1.118911536951    12.000000000000
         C           -1.226697008489    -3.724760412107     1.111767775172    12.000000000000
         C           -3.681818976526     0.528035551702     1.111226866043    12.000000000000
         C            3.693147101150    -3.724090756421     1.120785501888    12.000000000000
         C           -1.221432251994     4.788838882833     1.120989540959    12.000000000000
         C            6.134770972926     0.499258532075     1.118464643142    12.000000000000
         C            3.656788880610     4.791663828537     1.118653306011    12.000000000000
         C           -2.455126907733    -3.015504508091     1.126890403416    12.000000000000
         C           -3.681819179061    -0.890615118499     1.127404291160    12.000000000000
         C            4.893012617914    -3.006489520662     1.119522688847    12.000000000000
         C           -0.000001073113     5.469157951002     1.119758232252    12.000000000000
         C            6.134775112332    -0.861844269105     1.119729963658    12.000000000000
         C            2.478131482856     5.472287336301     1.119942085661    12.000000000000
         C            1.221422404738    -5.151416469963     1.118006548564    12.000000000000
         C           -3.693162383965     3.361507539162     1.117910175688    12.000000000000
         C           -1.221428520945    -5.151407718626     1.117893786731    12.000000000000
         C           -4.914521807942     1.245886031965     1.117771813600    12.000000000000
         C            3.656787019679    -5.154244641269     1.120103806545    12.000000000000
         C           -2.478138530106     5.472285007498     1.120226610670    12.000000000000
         C           -3.693141738564    -3.724079634009     1.120669375732    12.000000000000
         C           -4.914512483053    -1.608470415058     1.120702308501    12.000000000000
         C           -0.000006008926    -5.831727702044     1.119362728131    12.000000000000
         C           -4.893020484101     2.643899183889     1.118901455091    12.000000000000
         C            2.478125993298    -5.834862958919     1.119013205753    12.000000000000
         C           -3.656798710258     4.791666767011     1.118829986386    12.000000000000
         C           -4.892999478856    -3.006481182090     1.119368653149    12.000000000000
         C           -2.478128498083    -5.834855585037     1.118738018106    12.000000000000
         C           -6.134770503331     0.499259351226     1.118439091440    12.000000000000
         C           -3.656788833189    -5.154233438001     1.119889518729    12.000000000000
         C           -6.134765042913    -0.861843330512     1.119709487863    12.000000000000
         H            5.835288495816     3.187986479924     1.123270862614     1.007825032230
         H            7.073859172747     1.046927833869     1.118926286536     1.007825032230
         H            4.600663264174     5.331091387423     1.119158506763     1.007825032230
         H            5.835283387305    -3.550595471759     1.115068221532     1.007825032230
         H           -0.000012151306     6.557241259106     1.115408987245     1.007825032230
         H            7.073861171831    -1.409516357774     1.119221225564     1.007825032230
         H            2.473313731799     6.559394876364     1.119475364731     1.007825032230
         H            4.600668491381    -5.693665544206     1.119693809377     1.007825032230
         H           -2.473318680537     6.559392304576     1.119776711356     1.007825032230
         H           -0.000010268228    -6.919817591482     1.123892413116     1.007825032230
         H           -5.835301914343     3.187981535266     1.123406884762     1.007825032230
         H            2.473307923831    -6.921974789459     1.119583536178     1.007825032230
         H           -4.600674841208     5.331088611573     1.119323835087     1.007825032230
         H           -5.835279506835    -3.550578378810     1.114788915651     1.007825032230
         H           -2.473300347440    -6.921968493170     1.119134219634     1.007825032230
         H           -7.073857766768     1.046931057810     1.118842295055     1.007825032230
         H           -4.600673786085    -5.693652084817     1.119521501354     1.007825032230
         H           -7.073856934409    -1.409510047007     1.119126369097     1.007825032230

  Running in c1 symmetry.

  Rotational constants: A =      0.00122  B =      0.00117  C =      0.00104 [cm^-1]
  Rotational constants: A =     36.50887  B =     35.07213  C =     31.08837 [MHz]
  Nuclear repulsion = 7710.264036669305824

  Charge       = 1
  Multiplicity = 1
  Electrons    = 394
  Nalpha       = 197
  Nbeta        = 197

  ==> Algorithm <==

  SCF Algorithm Type is DF.
  DIIS enabled.
  MOM disabled.
  Fractional occupation disabled.
  Guess Type is SAD.
  Energy threshold   = 1.00e-08
  Density threshold  = 1.00e-08
  Integral threshold = 1.00e-12

  ==> Primary Basis <==

  Basis Set: JUN-CC-PVDZ
    Blend: JUN-CC-PVDZ
    Number of shells: 569
    Number of basis functions: 1233
    Number of Cartesian functions: 1294
    Spherical Harmonics?: true
    Max angular momentum: 2

   => Loading Basis Set <=

    Name: (JUN-CC-PVDZ AUX)
    Role: JKFIT
    Keyword: DF_BASIS_SCF
    atoms 1-2, 4-5, 10, 17-70 entry C          line   146 file /home/gridsan/tfroembgen/.conda/envs/psi4test/share/psi4/basis/jun-cc-pvdz-jkfit.gbs 
    atoms 3, 6                entry N          line   202 file /home/gridsan/tfroembgen/.conda/envs/psi4test/share/psi4/basis/jun-cc-pvdz-jkfit.gbs 
    atoms 7-9, 11-16, 71-88   entry H          line    70 file /home/gridsan/tfroembgen/.conda/envs/psi4test/share/psi4/basis/jun-cc-pvdz-jkfit.gbs 

  ==> Integral Setup <==

  ==> DiskDFJK: Density-Fitted J/K Matrices <==

    J tasked:                  Yes
    K tasked:                  Yes
    wK tasked:                  No
    OpenMP threads:             12
    Integrals threads:          12
    Memory [MiB]:            22888
    Algorithm:                Core
    Integral Cache:           SAVE
    Schwarz Cutoff:          1E-12
    Fitting Condition:       1E-10

   => Auxiliary Basis Set <=

  Basis Set: (JUN-CC-PVDZ AUX)
    Blend: JUN-CC-PVDZ-JKFIT
    Number of shells: 1890
    Number of basis functions: 5440
    Number of Cartesian functions: 6226
    Spherical Harmonics?: true
    Max angular momentum: 3

  Minimum eigenvalue in the overlap matrix is 8.3997479441E-10.
  Reciprocal condition number of the overlap matrix is 3.7578275474E-11.
    Using canonical orthogonalization.
  Overall, 14 of 1233 possible MOs eliminated.


  ==> Pre-Iterations <==

  SCF Guess: Superposition of Atomic Densities via on-the-fly atomic UHF (no occupation information).

   -------------------------
    Irrep   Nso     Nmo    
   -------------------------
     A       1233    1219 
   -------------------------
    Total    1233    1219
   -------------------------

  ==> Iterations <==

                           Total Energy        Delta E     RMS |[F,P]|

   @DF-RHF iter SAD: -2365.39384157825725   -2.36539e+03   0.00000e+00 
   @DF-RHF iter   1: -2358.18470434433675    7.20914e+00   9.49020e-04 DIIS/ADIIS
   @DF-RHF iter   2: -2359.08652461843167   -9.01820e-01   3.25211e-04 DIIS/ADIIS
   @DF-RHF iter   3: -2359.17956614172726   -9.30415e-02   1.19728e-04 DIIS/ADIIS
   @DF-RHF iter   4: -2359.19299616719354   -1.34300e-02   4.57133e-05 DIIS
   @DF-RHF iter   5: -2359.19503150880337   -2.03534e-03   1.05835e-05 DIIS
   @DF-RHF iter   6: -2359.19521534245223   -1.83834e-04   5.26958e-06 DIIS
   @DF-RHF iter   7: -2359.19528734383630   -7.20014e-05   2.26644e-06 DIIS
   @DF-RHF iter   8: -2359.19530821981425   -2.08760e-05   1.12746e-06 DIIS
   @DF-RHF iter   9: -2359.19531339105379   -5.17124e-06   2.58946e-07 DIIS
   @DF-RHF iter  10: -2359.19531363306487   -2.42011e-07   8.59217e-08 DIIS
   @DF-RHF iter  11: -2359.19531365061084   -1.75460e-08   3.22393e-08 DIIS
   @DF-RHF iter  12: -2359.19531365436296   -3.75212e-09   1.29992e-08 DIIS
   @DF-RHF iter  13: -2359.19531365476359   -4.00632e-10   6.22405e-09 DIIS
  Energy and wave function converged.


  ==> Post-Iterations <==

    Orbital Energies [Eh]
    ---------------------

    Doubly Occupied:                                                      

       1A    -15.827293     2A    -15.826768     3A    -11.522032  
       4A    -11.453220     5A    -11.451665     6A    -11.442162  
       7A    -11.442063     8A    -11.313778     9A    -11.313210  
      10A    -11.313079    11A    -11.312536    12A    -11.312232  
      13A    -11.312079    14A    -11.311726    15A    -11.311653  
      16A    -11.311381    17A    -11.311092    18A    -11.311010  
      19A    -11.310700    20A    -11.310697    21A    -11.310650  
      22A    -11.310625    23A    -11.310348    24A    -11.310345  
      25A    -11.310108    26A    -11.310047    27A    -11.309950  
      28A    -11.309535    29A    -11.309530    30A    -11.309210  
      31A    -11.309163    32A    -11.309070    33A    -11.309055  
      34A    -11.309029    35A    -11.308998    36A    -11.308579  
      37A    -11.308506    38A    -11.308153    39A    -11.308149  
      40A    -11.307967    41A    -11.307954    42A    -11.307237  
      43A    -11.307135    44A    -11.303717    45A    -11.303698  
      46A    -11.303592    47A    -11.303058    48A    -11.303054  
      49A    -11.302450    50A    -11.302446    51A    -11.302260  
      52A    -11.302257    53A    -11.301798    54A    -11.301794  
      55A    -11.301063    56A    -11.300993    57A    -11.300989  
      58A    -11.300872    59A    -11.300860    60A    -11.299436  
      61A    -11.299432    62A     -1.571014    63A     -1.426546  
      64A     -1.296751    65A     -1.271920    66A     -1.271845  
      67A     -1.241220    68A     -1.241215    69A     -1.233107  
      70A     -1.231600    71A     -1.208808    72A     -1.200567  
      73A     -1.187471    74A     -1.187415    75A     -1.181950  
      76A     -1.164381    77A     -1.164370    78A     -1.134204  
      79A     -1.134199    80A     -1.130379    81A     -1.117050  
      82A     -1.117035    83A     -1.111499    84A     -1.090725  
      85A     -1.076362    86A     -1.073831    87A     -1.073810  
      88A     -1.068849    89A     -1.063716    90A     -1.038632  
      91A     -1.038627    92A     -1.015486    93A     -1.013047  
      94A     -1.013023    95A     -0.989622    96A     -0.945547  
      97A     -0.945500    98A     -0.939980    99A     -0.938196  
     100A     -0.938113   101A     -0.933041   102A     -0.933009  
     103A     -0.913023   104A     -0.909735   105A     -0.887996  
     106A     -0.869497   107A     -0.868403   108A     -0.863683  
     109A     -0.863678   110A     -0.845576   111A     -0.845562  
     112A     -0.843263   113A     -0.809264   114A     -0.805599  
     115A     -0.798439   116A     -0.796517   117A     -0.785062  
     118A     -0.785011   119A     -0.783096   120A     -0.783045  
     121A     -0.783038   122A     -0.778923   123A     -0.774960  
     124A     -0.767838   125A     -0.750134   126A     -0.750085  
     127A     -0.744928   128A     -0.744883   129A     -0.722128  
     130A     -0.718263   131A     -0.712079   132A     -0.709834  
     133A     -0.704476   134A     -0.702811   135A     -0.701028  
     136A     -0.701025   137A     -0.690402   138A     -0.690390  
     139A     -0.681117   140A     -0.678903   141A     -0.678887  
     142A     -0.659343   143A     -0.655772   144A     -0.653243  
     145A     -0.650709   146A     -0.650665   147A     -0.645175  
     148A     -0.642978   149A     -0.642950   150A     -0.635663  
     151A     -0.628587   152A     -0.628492   153A     -0.618031  
     154A     -0.618010   155A     -0.617444   156A     -0.617372  
     157A     -0.610182   158A     -0.605585   159A     -0.605526  
     160A     -0.589933   161A     -0.589930   162A     -0.589403  
     163A     -0.589357   164A     -0.589169   165A     -0.580818  
     166A     -0.580414   167A     -0.574009   168A     -0.573968  
     169A     -0.551213   170A     -0.546816   171A     -0.544100  
     172A     -0.539425   173A     -0.536545   174A     -0.532963  
     175A     -0.532917   176A     -0.522416   177A     -0.522354  
     178A     -0.517040   179A     -0.502838   180A     -0.502721  
     181A     -0.490170   182A     -0.490156   183A     -0.456647  
     184A     -0.456640   185A     -0.455292   186A     -0.426354  
     187A     -0.426348   188A     -0.400548   189A     -0.390176  
     190A     -0.389064   191A     -0.389057   192A     -0.362375  
     193A     -0.348693   194A     -0.336323   195A     -0.336316  
     196A     -0.276277   197A     -0.276272  

    Virtual:                                                              

     198A     -0.061411   199A     -0.055398   200A     -0.048058  
     201A     -0.042331   202A     -0.037430   203A     -0.037331  
     204A     -0.025349   205A     -0.022956   206A     -0.021921  
     207A     -0.019053   208A      0.000717   209A      0.002183  
     210A      0.003430   211A      0.004862   212A      0.005233  
     213A      0.005819   214A      0.008360   215A      0.010407  
     216A      0.010969   217A      0.012817   218A      0.012923  
     219A      0.013065   220A      0.015922   221A      0.020051  
     222A      0.023476   223A      0.027437   224A      0.031108  
     225A      0.031321   226A      0.032587   227A      0.034849  
     228A      0.034878   229A      0.036987   230A      0.037490  
     231A      0.039196   232A      0.041734   233A      0.045441  
     234A      0.046636   235A      0.046679   236A      0.047567  
     237A      0.047592   238A      0.048664   239A      0.056171  
     240A      0.056673   241A      0.057016   242A      0.062637  
     243A      0.066410   244A      0.067002   245A      0.067026  
     246A      0.070072   247A      0.070871   248A      0.073893  
     249A      0.074355   250A      0.074930   251A      0.078745  
     252A      0.081018   253A      0.085431   254A      0.085734  
     255A      0.086995   256A      0.087105   257A      0.089180  
     258A      0.089800   259A      0.090214   260A      0.091451  
     261A      0.093266   262A      0.093744   263A      0.095433  
     264A      0.104874   265A      0.105202   266A      0.108313  
     267A      0.108378   268A      0.108689   269A      0.112578  
     270A      0.113383   271A      0.115746   272A      0.117389  
     273A      0.117597   274A      0.122805   275A      0.124331  
     276A      0.125962   277A      0.131765   278A      0.132530  
     279A      0.134517   280A      0.134843   281A      0.135488  
     282A      0.137666   283A      0.137926   284A      0.138294  
     285A      0.140066   286A      0.140434   287A      0.142608  
     288A      0.142941   289A      0.144318   290A      0.145420  
     291A      0.146717   292A      0.149117   293A      0.150956  
     294A      0.156527   295A      0.157277   296A      0.157805  
     297A      0.159631   298A      0.164601   299A      0.164632  
     300A      0.164661   301A      0.165592   302A      0.165990  
     303A      0.167175   304A      0.167398   305A      0.169338  
     306A      0.170391   307A      0.170673   308A      0.172397  
     309A      0.176358   310A      0.177511   311A      0.180281  
     312A      0.180581   313A      0.181076   314A      0.182684  
     315A      0.183998   316A      0.184216   317A      0.184241  
     318A      0.186484   319A      0.186655   320A      0.191326  
     321A      0.191446   322A      0.192217   323A      0.194268  
     324A      0.196568   325A      0.199052   326A      0.199154  
     327A      0.200828   328A      0.203637   329A      0.203795  
     330A      0.205111   331A      0.206381   332A      0.207833  
     333A      0.208336   334A      0.209696   335A      0.210427  
     336A      0.214430   337A      0.218677   338A      0.218841  
     339A      0.219389   340A      0.219881   341A      0.220185  
     342A      0.220592   343A      0.220699   344A      0.225300  
     345A      0.225563   346A      0.225804   347A      0.226764  
     348A      0.233857   349A      0.236190   350A      0.237706  
     351A      0.239308   352A      0.239820   353A      0.241339  
     354A      0.248634   355A      0.248823   356A      0.251630  
     357A      0.252559   358A      0.253938   359A      0.254371  
     360A      0.254891   361A      0.258723   362A      0.259682  
     363A      0.260234   364A      0.260917   365A      0.261743  
     366A      0.263034   367A      0.263167   368A      0.265938  
     369A      0.266588   370A      0.267430   371A      0.268904  
     372A      0.272530   373A      0.272901   374A      0.272975  
     375A      0.273307   376A      0.274104   377A      0.274642  
     378A      0.275881   379A      0.276657   380A      0.278842  
     381A      0.280300   382A      0.281145   383A      0.282842  
     384A      0.290100   385A      0.291946   386A      0.293031  
     387A      0.294838   388A      0.297013   389A      0.297227  
     390A      0.298300   391A      0.298605   392A      0.300223  
     393A      0.301829   394A      0.303172   395A      0.304164  
     396A      0.307020   397A      0.307450   398A      0.311847  
     399A      0.313288   400A      0.317559   401A      0.320271  
     402A      0.322429   403A      0.323040   404A      0.323939  
     405A      0.324019   406A      0.327022   407A      0.327628  
     408A      0.331788   409A      0.334799   410A      0.335111  
     411A      0.337650   412A      0.340832   413A      0.341519  
     414A      0.341645   415A      0.341884   416A      0.342882  
     417A      0.345677   418A      0.346741   419A      0.347354  
     420A      0.348496   421A      0.348972   422A      0.349091  
     423A      0.352606   424A      0.352730   425A      0.355711  
     426A      0.355803   427A      0.356246   428A      0.356268  
     429A      0.358124   430A      0.358199   431A      0.360563  
     432A      0.361019   433A      0.362515   434A      0.370464  
     435A      0.370615   436A      0.371291   437A      0.373463  
     438A      0.373505   439A      0.377643   440A      0.383087  
     441A      0.386203   442A      0.386456   443A      0.389071  
     444A      0.393525   445A      0.393550   446A      0.394776  
     447A      0.395222   448A      0.396328   449A      0.398573  
     450A      0.400420   451A      0.400746   452A      0.402057  
     453A      0.408103   454A      0.408395   455A      0.409683  
     456A      0.410117   457A      0.410208   458A      0.411479  
     459A      0.412569   460A      0.414089   461A      0.415377  
     462A      0.417844   463A      0.421192   464A      0.421518  
     465A      0.427592   466A      0.431997   467A      0.432156  
     468A      0.432954   469A      0.433170   470A      0.439725  
     471A      0.442959   472A      0.443079   473A      0.443579  
     474A      0.444751   475A      0.446225   476A      0.447734  
     477A      0.450599   478A      0.451753   479A      0.451989  
     480A      0.455587   481A      0.456401   482A      0.462443  
     483A      0.462523   484A      0.463471   485A      0.464172  
     486A      0.468528   487A      0.469021   488A      0.474559  
     489A      0.475662   490A      0.475854   491A      0.477429  
     492A      0.488075   493A      0.489069   494A      0.490827  
     495A      0.493612   496A      0.497286   497A      0.497530  
     498A      0.497829   499A      0.502202   500A      0.502668  
     501A      0.502936   502A      0.504371   503A      0.504811  
     504A      0.506432   505A      0.510474   506A      0.511013  
     507A      0.511348   508A      0.512424   509A      0.518892  
     510A      0.519183   511A      0.535800   512A      0.535981  
     513A      0.545733   514A      0.546493   515A      0.547154  
     516A      0.554450   517A      0.563329   518A      0.563511  
     519A      0.568032   520A      0.570869   521A      0.570998  
     522A      0.575969   523A      0.576082   524A      0.593798  
     525A      0.598566   526A      0.598791   527A      0.603705  
     528A      0.611315   529A      0.616589   530A      0.616634  
     531A      0.619007   532A      0.626410   533A      0.626810  
     534A      0.628090   535A      0.632430   536A      0.652162  
     537A      0.656817   538A      0.665280   539A      0.665402  
     540A      0.667875   541A      0.679657   542A      0.681864  
     543A      0.689675   544A      0.690014   545A      0.692208  
     546A      0.692380   547A      0.692579   548A      0.693340  
     549A      0.698103   550A      0.704132   551A      0.706500  
     552A      0.706766   553A      0.711482   554A      0.715667  
     555A      0.716351   556A      0.724774   557A      0.740369  
     558A      0.741708   559A      0.745542   560A      0.746349  
     561A      0.747715   562A      0.753117   563A      0.755593  
     564A      0.755902   565A      0.757903   566A      0.759347  
     567A      0.763752   568A      0.764363   569A      0.772596  
     570A      0.774568   571A      0.777231   572A      0.777292  
     573A      0.778484   574A      0.782603   575A      0.783844  
     576A      0.785556   577A      0.787149   578A      0.792292  
     579A      0.803385   580A      0.804277   581A      0.804716  
     582A      0.808329   583A      0.814235   584A      0.814401  
     585A      0.820535   586A      0.821239   587A      0.821609  
     588A      0.822949   589A      0.823400   590A      0.824097  
     591A      0.827309   592A      0.827606   593A      0.830952  
     594A      0.837108   595A      0.838250   596A      0.838401  
     597A      0.845069   598A      0.847240   599A      0.847594  
     600A      0.850883   601A      0.856649   602A      0.857470  
     603A      0.857925   604A      0.858706   605A      0.861102  
     606A      0.862152   607A      0.863412   608A      0.864693  
     609A      0.867659   610A      0.871360   611A      0.871657  
     612A      0.877631   613A      0.880764   614A      0.881332  
     615A      0.881519   616A      0.885127   617A      0.885467  
     618A      0.890042   619A      0.891426   620A      0.891820  
     621A      0.894914   622A      0.895007   623A      0.904022  
     624A      0.906512   625A      0.906575   626A      0.908304  
     627A      0.919705   628A      0.919803   629A      0.920881  
     630A      0.921219   631A      0.922682   632A      0.922883  
     633A      0.926321   634A      0.927992   635A      0.929834  
     636A      0.937090   637A      0.937177   638A      0.943073  
     639A      0.947296   640A      0.947686   641A      0.950084  
     642A      0.954590   643A      0.956639   644A      0.964596  
     645A      0.964915   646A      0.965351   647A      0.968147  
     648A      0.968190   649A      0.972127   650A      0.979272  
     651A      0.980758   652A      0.981038   653A      0.983959  
     654A      0.984291   655A      0.986487   656A      0.986783  
     657A      0.989081   658A      0.989219   659A      0.990293  
     660A      0.993832   661A      0.993929   662A      0.994773  
     663A      0.995575   664A      0.996195   665A      0.998350  
     666A      1.002865   667A      1.002922   668A      1.009016  
     669A      1.009727   670A      1.010293   671A      1.010541  
     672A      1.014195   673A      1.017954   674A      1.018203  
     675A      1.021431   676A      1.021556   677A      1.022678  
     678A      1.024942   679A      1.025987   680A      1.030065  
     681A      1.030200   682A      1.033132   683A      1.033178  
     684A      1.035969   685A      1.036562   686A      1.037548  
     687A      1.044045   688A      1.053411   689A      1.053437  
     690A      1.054742   691A      1.056884   692A      1.065060  
     693A      1.065459   694A      1.065520   695A      1.065609  
     696A      1.069441   697A      1.070872   698A      1.071974  
     699A      1.075056   700A      1.075241   701A      1.081595  
     702A      1.083831   703A      1.083993   704A      1.089821  
     705A      1.089884   706A      1.090446   707A      1.092653  
     708A      1.093721   709A      1.103414   710A      1.103457  
     711A      1.110266   712A      1.116281   713A      1.120028  
     714A      1.123196   715A      1.126387   716A      1.126580  
     717A      1.131752   718A      1.131974   719A      1.132632  
     720A      1.133277   721A      1.144539   722A      1.144707  
     723A      1.146663   724A      1.148272   725A      1.148705  
     726A      1.156449   727A      1.159540   728A      1.167161  
     729A      1.167162   730A      1.169546   731A      1.169920  
     732A      1.172209   733A      1.172257   734A      1.185914  
     735A      1.188567   736A      1.188931   737A      1.205682  
     738A      1.207481   739A      1.211300   740A      1.211381  
     741A      1.212148   742A      1.212409   743A      1.214298  
     744A      1.214604   745A      1.218282   746A      1.225200  
     747A      1.226457   748A      1.243520   749A      1.244043  
     750A      1.245817   751A      1.246316   752A      1.246563  
     753A      1.247768   754A      1.257058   755A      1.257233  
     756A      1.258658   757A      1.259104   758A      1.267493  
     759A      1.268030   760A      1.268629   761A      1.270124  
     762A      1.271882   763A      1.278399   764A      1.278835  
     765A      1.278903   766A      1.281745   767A      1.288573  
     768A      1.289065   769A      1.290235   770A      1.293481  
     771A      1.293992   772A      1.303158   773A      1.303168  
     774A      1.306662   775A      1.306972   776A      1.308011  
     777A      1.308248   778A      1.313933   779A      1.314124  
     780A      1.324842   781A      1.329961   782A      1.340234  
     783A      1.347067   784A      1.352127   785A      1.352537  
     786A      1.352994   787A      1.356367   788A      1.356446  
     789A      1.361583   790A      1.361684   791A      1.368448  
     792A      1.371552   793A      1.373963   794A      1.374253  
     795A      1.377647   796A      1.378129   797A      1.380547  
     798A      1.385741   799A      1.385825   800A      1.388377  
     801A      1.389064   802A      1.389211   803A      1.397199  
     804A      1.397280   805A      1.399437   806A      1.411458  
     807A      1.411497   808A      1.420820   809A      1.421187  
     810A      1.429173   811A      1.465560   812A      1.465743  
     813A      1.469585   814A      1.469657   815A      1.471151  
     816A      1.479369   817A      1.484787   818A      1.500756  
     819A      1.510140   820A      1.521915   821A      1.524215  
     822A      1.545851   823A      1.547883   824A      1.548368  
     825A      1.556449   826A      1.556460   827A      1.557515  
     828A      1.560196   829A      1.560353   830A      1.563684  
     831A      1.569774   832A      1.570142   833A      1.570482  
     834A      1.577638   835A      1.578009   836A      1.588634  
     837A      1.588661   838A      1.591686   839A      1.591735  
     840A      1.591942   841A      1.592090   842A      1.598621  
     843A      1.609722   844A      1.609741   845A      1.611724  
     846A      1.616150   847A      1.624041   848A      1.624093  
     849A      1.625309   850A      1.625823   851A      1.625865  
     852A      1.626024   853A      1.631207   854A      1.635116  
     855A      1.635179   856A      1.644938   857A      1.646070  
     858A      1.648403   859A      1.648448   860A      1.649075  
     861A      1.652644   862A      1.652716   863A      1.664833  
     864A      1.664955   865A      1.667836   866A      1.676410  
     867A      1.687256   868A      1.690393   869A      1.695716  
     870A      1.699714   871A      1.709339   872A      1.709871  
     873A      1.710760   874A      1.711798   875A      1.725610  
     876A      1.725639   877A      1.738537   878A      1.740400  
     879A      1.740422   880A      1.752651   881A      1.755428  
     882A      1.762870   883A      1.764864   884A      1.765685  
     885A      1.765879   886A      1.767922   887A      1.772838  
     888A      1.772977   889A      1.779476   890A      1.779565  
     891A      1.785463   892A      1.787422   893A      1.790730  
     894A      1.790984   895A      1.809268   896A      1.809554  
     897A      1.810102   898A      1.810268   899A      1.812975  
     900A      1.813550   901A      1.816164   902A      1.817699  
     903A      1.820980   904A      1.823374   905A      1.828552  
     906A      1.828613   907A      1.844893   908A      1.844982  
     909A      1.848864   910A      1.850667   911A      1.852759  
     912A      1.853025   913A      1.857012   914A      1.857207  
     915A      1.862541   916A      1.863439   917A      1.863736  
     918A      1.866330   919A      1.866446   920A      1.867781  
     921A      1.870657   922A      1.870771   923A      1.874304  
     924A      1.889008   925A      1.890485   926A      1.890904  
     927A      1.891062   928A      1.896550   929A      1.896898  
     930A      1.900354   931A      1.901963   932A      1.902523  
     933A      1.902813   934A      1.903126   935A      1.904229  
     936A      1.906715   937A      1.919649   938A      1.930911  
     939A      1.930989   940A      1.938593   941A      1.946058  
     942A      1.947670   943A      1.947695   944A      1.950930  
     945A      1.953479   946A      1.957750   947A      1.961480  
     948A      1.961623   949A      1.972529   950A      1.975726  
     951A      1.976239   952A      1.978898   953A      1.978928  
     954A      1.979403   955A      1.980125   956A      1.980259  
     957A      1.996908   958A      2.000820   959A      2.001141  
     960A      2.006005   961A      2.006763   962A      2.007674  
     963A      2.009085   964A      2.010579   965A      2.016725  
     966A      2.018524   967A      2.019649   968A      2.020026  
     969A      2.023786   970A      2.024305   971A      2.028842  
     972A      2.032517   973A      2.032689   974A      2.041886  
     975A      2.042899   976A      2.045354   977A      2.046055  
     978A      2.046465   979A      2.049484   980A      2.049540  
     981A      2.055275   982A      2.056834   983A      2.057002  
     984A      2.057488   985A      2.057648   986A      2.058300  
     987A      2.063280   988A      2.068192   989A      2.068309  
     990A      2.068894   991A      2.069015   992A      2.072476  
     993A      2.075185   994A      2.075541   995A      2.082180  
     996A      2.083454   997A      2.085146   998A      2.085292  
     999A      2.091935  1000A      2.092374  1001A      2.092662  
    1002A      2.104561  1003A      2.107814  1004A      2.107891  
    1005A      2.111428  1006A      2.111472  1007A      2.119327  
    1008A      2.127251  1009A      2.127324  1010A      2.140067  
    1011A      2.140546  1012A      2.140965  1013A      2.141807  
    1014A      2.143536  1015A      2.143562  1016A      2.143945  
    1017A      2.146247  1018A      2.147901  1019A      2.163354  
    1020A      2.168451  1021A      2.168565  1022A      2.168602  
    1023A      2.175719  1024A      2.176757  1025A      2.176942  
    1026A      2.177606  1027A      2.192933  1028A      2.193290  
    1029A      2.193932  1030A      2.194106  1031A      2.197088  
    1032A      2.205402  1033A      2.209883  1034A      2.209953  
    1035A      2.219224  1036A      2.219251  1037A      2.221494  
    1038A      2.221525  1039A      2.229385  1040A      2.231245  
    1041A      2.249588  1042A      2.252950  1043A      2.255939  
    1044A      2.258864  1045A      2.260752  1046A      2.268257  
    1047A      2.270621  1048A      2.278839  1049A      2.278935  
    1050A      2.279382  1051A      2.282036  1052A      2.299054  
    1053A      2.299714  1054A      2.299880  1055A      2.301302  
    1056A      2.301336  1057A      2.314653  1058A      2.314778  
    1059A      2.322316  1060A      2.327171  1061A      2.328903  
    1062A      2.338664  1063A      2.365220  1064A      2.372662  
    1065A      2.373339  1066A      2.373342  1067A      2.385759  
    1068A      2.389607  1069A      2.389654  1070A      2.418597  
    1071A      2.421727  1072A      2.422099  1073A      2.434354  
    1074A      2.434451  1075A      2.446927  1076A      2.451186  
    1077A      2.463789  1078A      2.468652  1079A      2.478571  
    1080A      2.478713  1081A      2.492708  1082A      2.494645  
    1083A      2.494737  1084A      2.502094  1085A      2.502908  
    1086A      2.504121  1087A      2.504147  1088A      2.508727  
    1089A      2.508772  1090A      2.521703  1091A      2.521739  
    1092A      2.524492  1093A      2.525008  1094A      2.535308  
    1095A      2.535524  1096A      2.536083  1097A      2.538760  
    1098A      2.541410  1099A      2.555239  1100A      2.572885  
    1101A      2.572953  1102A      2.573628  1103A      2.575836  
    1104A      2.579932  1105A      2.580356  1106A      2.590557  
    1107A      2.590604  1108A      2.600439  1109A      2.600801  
    1110A      2.606185  1111A      2.607724  1112A      2.630378  
    1113A      2.631527  1114A      2.633166  1115A      2.636532  
    1116A      2.638696  1117A      2.649838  1118A      2.650262  
    1119A      2.661395  1120A      2.661458  1121A      2.663731  
    1122A      2.667180  1123A      2.667280  1124A      2.671329  
    1125A      2.671571  1126A      2.676108  1127A      2.680710  
    1128A      2.685613  1129A      2.690498  1130A      2.701432  
    1131A      2.701762  1132A      2.708471  1133A      2.725114  
    1134A      2.739810  1135A      2.742853  1136A      2.743017  
    1137A      2.750364  1138A      2.763976  1139A      2.775346  
    1140A      2.776365  1141A      2.791927  1142A      2.800140  
    1143A      2.800258  1144A      2.803848  1145A      2.806174  
    1146A      2.807731  1147A      2.807869  1148A      2.816031  
    1149A      2.866229  1150A      2.866527  1151A      2.872840  
    1152A      2.882972  1153A      2.883019  1154A      2.898691  
    1155A      2.898713  1156A      2.912131  1157A      2.920211  
    1158A      2.954979  1159A      2.955221  1160A      2.961758  
    1161A      2.978671  1162A      2.978906  1163A      3.012278  
    1164A      3.012361  1165A      3.019164  1166A      3.019178  
    1167A      3.048762  1168A      3.058665  1169A      3.059420  
    1170A      3.067367  1171A      3.077050  1172A      3.078573  
    1173A      3.078789  1174A      3.086699  1175A      3.094515  
    1176A      3.095490  1177A      3.096218  1178A      3.098273  
    1179A      3.098293  1180A      3.106772  1181A      3.107259  
    1182A      3.114875  1183A      3.115369  1184A      3.141273  
    1185A      3.160820  1186A      3.166774  1187A      3.186316  
    1188A      3.220304  1189A      3.225435  1190A      3.225587  
    1191A      3.230635  1192A      3.230896  1193A      3.364461  
    1194A      3.365035  1195A      3.389153  1196A      3.429307  
    1197A      3.431926  1198A      3.442080  1199A      3.496864  
    1200A      3.524764  1201A      3.526659  1202A      3.530552  
    1203A      3.541699  1204A      3.575124  1205A      3.577112  
    1206A      3.611479  1207A      3.616164  1208A      3.717667  
    1209A      3.730754  1210A      3.731683  1211A      3.819875  
    1212A      3.819886  1213A      3.861926  1214A      3.862065  
    1215A      3.925160  1216A      3.959027  1217A      3.979823  
    1218A      3.991666  1219A      4.027799  

    Final Occupation by Irrep:
              A 
    DOCC [   197 ]
    NA   [   197 ]
    NB   [   197 ]

  @DF-RHF Final Energy: -2359.19531365476359

   => Energetics <=

    Nuclear Repulsion Energy =           7710.2640366693058240
    One-Electron Energy =              -18527.9976494798684143
    Two-Electron Energy =                8458.5382991557999048
    Total Energy =                      -2359.1953136547635950

Computation Completed


Properties will be evaluated at   0.000000,   0.000000,   0.000000 [a0]

Properties computed using the SCF density matrix


 Multipole Moments:

 ------------------------------------------------------------------------------------
     Multipole            Electronic (a.u.)      Nuclear  (a.u.)        Total (a.u.)
 ------------------------------------------------------------------------------------

 L = 1.  Multiply by 2.5417464519 to convert [e a0] to [Debye]
 Dipole X            :         -0.0011818            0.0006313           -0.0005505
 Dipole Y            :         -5.4510155            7.4856329            2.0346174
 Dipole Z            :         30.5735598          -43.9847254          -13.4111656
 Magnitude           :                                                   13.5646243

 ------------------------------------------------------------------------------------

*** tstop() called on d-16-13-4 at Mon Jan 22 22:30:08 2024
Module time:
	user time   =    3694.04 seconds =      61.57 minutes
	system time =      56.52 seconds =       0.94 minutes
	total time  =        375 seconds =       6.25 minutes
Total time:
	user time   =    3694.04 seconds =      61.57 minutes
	system time =      56.52 seconds =       0.94 minutes
	total time  =        375 seconds =       6.25 minutes

  //>>>>>>>>>>>>>>>>>>>>>>>>>>>>>>>>>>>//
  //            Monomer A HF           //
  //<<<<<<<<<<<<<<<<<<<<<<<<<<<<<<<<<<<//

   => Libint2 <=

    Primary   basis highest AM E, G, H:  7, 7, 4
    Auxiliary basis highest AM E, G, H:  7, 7, 5
    Onebody   basis highest AM E, G, H:  7, 7, 5
    Solid Harmonics ordering:            gaussian

*** tstart() called on d-16-13-4
*** at Mon Jan 22 22:30:08 2024

   => Loading Basis Set <=

    Name: JUN-CC-PVDZ
    Role: ORBITAL
    Keyword: BASIS
    atoms 1-2, 4-5, 10, 17-70 entry C          line   164 file /home/gridsan/tfroembgen/.conda/envs/psi4test/share/psi4/basis/jun-cc-pvdz.gbs 
    atoms 3, 6                entry N          line   198 file /home/gridsan/tfroembgen/.conda/envs/psi4test/share/psi4/basis/jun-cc-pvdz.gbs 
    atoms 7-9, 11-16, 71-88   entry H          line    36 file /home/gridsan/tfroembgen/.conda/envs/psi4test/share/psi4/basis/jun-cc-pvdz.gbs 


         ---------------------------------------------------------
                                   SCF
               by Justin Turney, Rob Parrish, Andy Simmonett
                          and Daniel G. A. Smith
                              RHF Reference
                       12 Threads,  30517 MiB Core
         ---------------------------------------------------------

  ==> Geometry <==

    Molecular point group: c1
    Full point group: C1

    Geometry (in Angstrom), charge = 1, multiplicity = 1:

       Center              X                  Y                   Z               Mass       
    ------------   -----------------  -----------------  -----------------  -----------------
         C            0.680066520158     1.235968212970    -8.896625265091    12.000000000000
         C           -0.680504479842     1.237996212970    -8.896241265091    12.000000000000
         N           -1.085635479842     1.238994212970    -7.577917265091    14.003074004430
         C            0.000107520158     1.242270212970    -6.796516265091    12.000000000000
         C           -2.477365479842     1.288400212970    -7.109938265091    12.000000000000
         N            1.085221520158     1.238994212970    -7.577917265091    14.003074004430
         H            1.385145520158     1.228140212970    -9.714064265091     1.007825032230
         H           -1.385302479842     1.237806212970    -9.713910265091     1.007825032230
         H           -0.000009479842     1.244017212970    -5.715427265091     1.007825032230
         C            2.478116520158     1.222102212970    -7.112819265091    12.000000000000
         H            2.490591520158     1.249447212970    -6.022566265091     1.007825032230
         H            2.967027520158     0.308656212970    -7.459995265091     1.007825032230
         H            3.001427520158     2.097585212970    -7.504291265091     1.007825032230
         H           -2.857359479842     2.310471212970    -7.189897265091     1.007825032230
         H           -3.082679479842     0.618316212970    -7.723002265091     1.007825032230
         H           -2.518128479842     0.961416212970    -6.069990265091     1.007825032230
      Gh(C)           1.225311895423     0.526248873889     1.125441362192    12.000000000000
      Gh(C)           1.225323856051    -0.888828309601     1.113110552622    12.000000000000
      Gh(C)          -0.000006153932     1.233676499060     1.112576929101    12.000000000000
      Gh(C)           2.456448753949     1.237038472148     1.128328219592    12.000000000000
      Gh(C)           0.000010827279    -1.596265913665     1.122776486426    12.000000000000
      Gh(C)          -1.225300948908     0.526255958954     1.127692882515    12.000000000000
      Gh(C)           2.456437755320    -1.599612718911     1.110865395765    12.000000000000
      Gh(C)          -0.000001332978     2.655511616251     1.110173378967    12.000000000000
      Gh(C)           3.681826697470     0.528028540971     1.111214185563    12.000000000000
      Gh(C)           2.455120048865     2.652934246459     1.111111628602    12.000000000000
      Gh(C)           3.681821105219    -0.890623254459     1.127286669581    12.000000000000
      Gh(C)          -1.225313598688    -0.888816930574     1.114183314049    12.000000000000
      Gh(C)           1.226699581202     3.362180068964     1.127470701512    12.000000000000
      Gh(C)           0.000004784858    -3.018071554266     1.127624654047    12.000000000000
      Gh(C)          -2.456436032848     1.237027503255     1.127728278360    12.000000000000
      Gh(C)           2.455123417779    -3.015519443619     1.127134761214    12.000000000000
      Gh(C)          -1.226714364589     3.362179648720     1.127574034731    12.000000000000
      Gh(C)           4.914517295202     1.245883457459     1.117694868592    12.000000000000
      Gh(C)           3.693150191476     3.361505877515     1.117744668229    12.000000000000
      Gh(C)          -2.456437600068    -1.599602695869     1.110840357640    12.000000000000
      Gh(C)           1.226704841943    -3.724763656937     1.111500570762    12.000000000000
      Gh(C)          -2.455125398508     2.652927247604     1.111118004949    12.000000000000
      Gh(C)           4.914524380782    -1.608476324974     1.120667611327    12.000000000000
      Gh(C)           1.221424613699     4.788844650230     1.120806045587    12.000000000000
      Gh(C)           4.893008229321     2.643898584996     1.118911536951    12.000000000000
      Gh(C)          -1.226697008489    -3.724760412107     1.111767775172    12.000000000000
      Gh(C)          -3.681818976526     0.528035551702     1.111226866043    12.000000000000
      Gh(C)           3.693147101150    -3.724090756421     1.120785501888    12.000000000000
      Gh(C)          -1.221432251994     4.788838882833     1.120989540959    12.000000000000
      Gh(C)           6.134770972926     0.499258532075     1.118464643142    12.000000000000
      Gh(C)           3.656788880610     4.791663828537     1.118653306011    12.000000000000
      Gh(C)          -2.455126907733    -3.015504508091     1.126890403416    12.000000000000
      Gh(C)          -3.681819179061    -0.890615118499     1.127404291160    12.000000000000
      Gh(C)           4.893012617914    -3.006489520662     1.119522688847    12.000000000000
      Gh(C)          -0.000001073113     5.469157951002     1.119758232252    12.000000000000
      Gh(C)           6.134775112332    -0.861844269105     1.119729963658    12.000000000000
      Gh(C)           2.478131482856     5.472287336301     1.119942085661    12.000000000000
      Gh(C)           1.221422404738    -5.151416469963     1.118006548564    12.000000000000
      Gh(C)          -3.693162383965     3.361507539162     1.117910175688    12.000000000000
      Gh(C)          -1.221428520945    -5.151407718626     1.117893786731    12.000000000000
      Gh(C)          -4.914521807942     1.245886031965     1.117771813600    12.000000000000
      Gh(C)           3.656787019679    -5.154244641269     1.120103806545    12.000000000000
      Gh(C)          -2.478138530106     5.472285007498     1.120226610670    12.000000000000
      Gh(C)          -3.693141738564    -3.724079634009     1.120669375732    12.000000000000
      Gh(C)          -4.914512483053    -1.608470415058     1.120702308501    12.000000000000
      Gh(C)          -0.000006008926    -5.831727702044     1.119362728131    12.000000000000
      Gh(C)          -4.893020484101     2.643899183889     1.118901455091    12.000000000000
      Gh(C)           2.478125993298    -5.834862958919     1.119013205753    12.000000000000
      Gh(C)          -3.656798710258     4.791666767011     1.118829986386    12.000000000000
      Gh(C)          -4.892999478856    -3.006481182090     1.119368653149    12.000000000000
      Gh(C)          -2.478128498083    -5.834855585037     1.118738018106    12.000000000000
      Gh(C)          -6.134770503331     0.499259351226     1.118439091440    12.000000000000
      Gh(C)          -3.656788833189    -5.154233438001     1.119889518729    12.000000000000
      Gh(C)          -6.134765042913    -0.861843330512     1.119709487863    12.000000000000
      Gh(H)           5.835288495816     3.187986479924     1.123270862614     1.007825032230
      Gh(H)           7.073859172747     1.046927833869     1.118926286536     1.007825032230
      Gh(H)           4.600663264174     5.331091387423     1.119158506763     1.007825032230
      Gh(H)           5.835283387305    -3.550595471759     1.115068221532     1.007825032230
      Gh(H)          -0.000012151306     6.557241259106     1.115408987245     1.007825032230
      Gh(H)           7.073861171831    -1.409516357774     1.119221225564     1.007825032230
      Gh(H)           2.473313731799     6.559394876364     1.119475364731     1.007825032230
      Gh(H)           4.600668491381    -5.693665544206     1.119693809377     1.007825032230
      Gh(H)          -2.473318680537     6.559392304576     1.119776711356     1.007825032230
      Gh(H)          -0.000010268228    -6.919817591482     1.123892413116     1.007825032230
      Gh(H)          -5.835301914343     3.187981535266     1.123406884762     1.007825032230
      Gh(H)           2.473307923831    -6.921974789459     1.119583536178     1.007825032230
      Gh(H)          -4.600674841208     5.331088611573     1.119323835087     1.007825032230
      Gh(H)          -5.835279506835    -3.550578378810     1.114788915651     1.007825032230
      Gh(H)          -2.473300347440    -6.921968493170     1.119134219634     1.007825032230
      Gh(H)          -7.073857766768     1.046931057810     1.118842295055     1.007825032230
      Gh(H)          -4.600673786085    -5.693652084817     1.119521501354     1.007825032230
      Gh(H)          -7.073856934409    -1.409510047007     1.119126369097     1.007825032230

  Running in c1 symmetry.

  Rotational constants: A =      0.00122  B =      0.00117  C =      0.00104 [cm^-1]
  Rotational constants: A =     36.50887  B =     35.07213  C =     31.08837 [MHz]
  Nuclear repulsion =  306.774908447733139

  Charge       = 1
  Multiplicity = 1
  Electrons    = 52
  Nalpha       = 26
  Nbeta        = 26

  ==> Algorithm <==

  SCF Algorithm Type is DF.
  DIIS enabled.
  MOM disabled.
  Fractional occupation disabled.
  Guess Type is SAD.
  Energy threshold   = 1.00e-08
  Density threshold  = 1.00e-08
  Integral threshold = 1.00e-12

  ==> Primary Basis <==

  Basis Set: JUN-CC-PVDZ
    Blend: JUN-CC-PVDZ
    Number of shells: 569
    Number of basis functions: 1233
    Number of Cartesian functions: 1294
    Spherical Harmonics?: true
    Max angular momentum: 2

   => Loading Basis Set <=

    Name: (JUN-CC-PVDZ AUX)
    Role: JKFIT
    Keyword: DF_BASIS_SCF
    atoms 1-2, 4-5, 10, 17-70 entry C          line   146 file /home/gridsan/tfroembgen/.conda/envs/psi4test/share/psi4/basis/jun-cc-pvdz-jkfit.gbs 
    atoms 3, 6                entry N          line   202 file /home/gridsan/tfroembgen/.conda/envs/psi4test/share/psi4/basis/jun-cc-pvdz-jkfit.gbs 
    atoms 7-9, 11-16, 71-88   entry H          line    70 file /home/gridsan/tfroembgen/.conda/envs/psi4test/share/psi4/basis/jun-cc-pvdz-jkfit.gbs 

  ==> Integral Setup <==

  ==> DiskDFJK: Density-Fitted J/K Matrices <==

    J tasked:                  Yes
    K tasked:                  Yes
    wK tasked:                  No
    OpenMP threads:             12
    Integrals threads:          12
    Memory [MiB]:            22888
    Algorithm:                Core
    Integral Cache:           LOAD
    Schwarz Cutoff:          1E-12
    Fitting Condition:       1E-10

   => Auxiliary Basis Set <=

  Basis Set: (JUN-CC-PVDZ AUX)
    Blend: JUN-CC-PVDZ-JKFIT
    Number of shells: 1890
    Number of basis functions: 5440
    Number of Cartesian functions: 6226
    Spherical Harmonics?: true
    Max angular momentum: 3

  Minimum eigenvalue in the overlap matrix is 8.3997479441E-10.
  Reciprocal condition number of the overlap matrix is 3.7578275474E-11.
    Using canonical orthogonalization.
  Overall, 14 of 1233 possible MOs eliminated.


  ==> Pre-Iterations <==

  SCF Guess: Superposition of Atomic Densities via on-the-fly atomic UHF (no occupation information).

   -------------------------
    Irrep   Nso     Nmo    
   -------------------------
     A       1233    1219 
   -------------------------
    Total    1233    1219
   -------------------------

  ==> Iterations <==

                           Total Energy        Delta E     RMS |[F,P]|

   @DF-RHF iter SAD:  -303.36533896869457   -3.03365e+02   0.00000e+00 
   @DF-RHF iter   1:  -303.16939349570526    1.95945e-01   3.44011e-04 DIIS/ADIIS
   @DF-RHF iter   2:  -303.28371882949392   -1.14325e-01   1.15850e-04 DIIS/ADIIS
   @DF-RHF iter   3:  -303.29516166501389   -1.14428e-02   4.53099e-05 DIIS
   @DF-RHF iter   4:  -303.29706204055816   -1.90038e-03   9.88667e-06 DIIS
   @DF-RHF iter   5:  -303.29716739216019   -1.05352e-04   2.40988e-06 DIIS
   @DF-RHF iter   6:  -303.29717663273544   -9.24058e-06   6.54119e-07 DIIS
   @DF-RHF iter   7:  -303.29717770450128   -1.07177e-06   3.31944e-07 DIIS
   @DF-RHF iter   8:  -303.29717795653289   -2.52032e-07   1.33530e-07 DIIS
   @DF-RHF iter   9:  -303.29717800487867   -4.83458e-08   3.37097e-08 DIIS
   @DF-RHF iter  10:  -303.29717800770538   -2.82671e-09   1.26791e-08 DIIS
   @DF-RHF iter  11:  -303.29717800795089   -2.45507e-10   2.99266e-09 DIIS
  Energy and wave function converged.


  ==> Post-Iterations <==

    Orbital Energies [Eh]
    ---------------------

    Doubly Occupied:                                                      

       1A    -15.834669     2A    -15.834137     3A    -11.529559  
       4A    -11.459861     5A    -11.458306     6A    -11.449669  
       7A    -11.449555     8A     -1.578240     9A     -1.433829  
      10A     -1.238671    11A     -1.189312    12A     -1.118868  
      13A     -1.022540    14A     -0.996971    15A     -0.917050  
      16A     -0.850525    17A     -0.816262    18A     -0.813209  
      19A     -0.790135    20A     -0.786228    21A     -0.781778  
      22A     -0.729706    23A     -0.725785    24A     -0.717097  
      25A     -0.596306    26A     -0.523862  

    Virtual:                                                              

      27A     -0.069662    28A     -0.068727    29A     -0.056160  
      30A     -0.050576    31A     -0.033975    32A     -0.033695  
      33A     -0.031175    34A     -0.030414    35A     -0.026995  
      36A     -0.023230    37A     -0.019803    38A     -0.012894  
      39A     -0.012395    40A     -0.007938    41A     -0.005096  
      42A     -0.003919    43A      0.000587    44A      0.001352  
      45A      0.004045    46A      0.004948    47A      0.005100  
      48A      0.009985    49A      0.010749    50A      0.012762  
      51A      0.017442    52A      0.022736    53A      0.022911  
      54A      0.024134    55A      0.029110    56A      0.029359  
      57A      0.032386    58A      0.032832    59A      0.035828  
      60A      0.039079    61A      0.040111    62A      0.043211  
      63A      0.043229    64A      0.043781    65A      0.051318  
      66A      0.052616    67A      0.056799    68A      0.058354  
      69A      0.059200    70A      0.061589    71A      0.061728  
      72A      0.066049    73A      0.067613    74A      0.068591  
      75A      0.071558    76A      0.071783    77A      0.072408  
      78A      0.073416    79A      0.074707    80A      0.077135  
      81A      0.078006    82A      0.078924    83A      0.080781  
      84A      0.086167    85A      0.086202    86A      0.087517  
      87A      0.088753    88A      0.089413    89A      0.092347  
      90A      0.093801    91A      0.094377    92A      0.094724  
      93A      0.096392    94A      0.098766    95A      0.098808  
      96A      0.102116    97A      0.103588    98A      0.105396  
      99A      0.105539   100A      0.107028   101A      0.109723  
     102A      0.112101   103A      0.115815   104A      0.117876  
     105A      0.121074   106A      0.121114   107A      0.123892  
     108A      0.124100   109A      0.125936   110A      0.126066  
     111A      0.129562   112A      0.129611   113A      0.129991  
     114A      0.130157   115A      0.131183   116A      0.132518  
     117A      0.132774   118A      0.135639   119A      0.137063  
     120A      0.139363   121A      0.141515   122A      0.142873  
     123A      0.146539   124A      0.147083   125A      0.147698  
     126A      0.148044   127A      0.148269   128A      0.152148  
     129A      0.152916   130A      0.154870   131A      0.155206  
     132A      0.158299   133A      0.158616   134A      0.158730  
     135A      0.159851   136A      0.160089   137A      0.167927  
     138A      0.171717   139A      0.171869   140A      0.174012  
     141A      0.174088   142A      0.176327   143A      0.176496  
     144A      0.176612   145A      0.177612   146A      0.179747  
     147A      0.182343   148A      0.184765   149A      0.185673  
     150A      0.187252   151A      0.188746   152A      0.190175  
     153A      0.190482   154A      0.191043   155A      0.191815  
     156A      0.191964   157A      0.193005   158A      0.193327  
     159A      0.196216   160A      0.199512   161A      0.200854  
     162A      0.201597   163A      0.203200   164A      0.203295  
     165A      0.204505   166A      0.204905   167A      0.219485  
     168A      0.219551   169A      0.221805   170A      0.222720  
     171A      0.225775   172A      0.225987   173A      0.226492  
     174A      0.226549   175A      0.228179   176A      0.228359  
     177A      0.232103   178A      0.232317   179A      0.234376  
     180A      0.235051   181A      0.236381   182A      0.236844  
     183A      0.237070   184A      0.237735   185A      0.238094  
     186A      0.240368   187A      0.246178   188A      0.248050  
     189A      0.248551   190A      0.248914   191A      0.251727  
     192A      0.254466   193A      0.259890   194A      0.260700  
     195A      0.260934   196A      0.265358   197A      0.265678  
     198A      0.268657   199A      0.269989   200A      0.273234  
     201A      0.275622   202A      0.275679   203A      0.279287  
     204A      0.279384   205A      0.281219   206A      0.282031  
     207A      0.282697   208A      0.294473   209A      0.294690  
     210A      0.295346   211A      0.295951   212A      0.296634  
     213A      0.298070   214A      0.300506   215A      0.303696  
     216A      0.303767   217A      0.305530   218A      0.305566  
     219A      0.310389   220A      0.313035   221A      0.313506  
     222A      0.314678   223A      0.315586   224A      0.316636  
     225A      0.317111   226A      0.319009   227A      0.321042  
     228A      0.323925   229A      0.324098   230A      0.326767  
     231A      0.328744   232A      0.330062   233A      0.330231  
     234A      0.336199   235A      0.337725   236A      0.341126  
     237A      0.344449   238A      0.349576   239A      0.350668  
     240A      0.353142   241A      0.353666   242A      0.353883  
     243A      0.360402   244A      0.361478   245A      0.368654  
     246A      0.368758   247A      0.371677   248A      0.373086  
     249A      0.373975   250A      0.377727   251A      0.378596  
     252A      0.379954   253A      0.380027   254A      0.380622  
     255A      0.381853   256A      0.382445   257A      0.383440  
     258A      0.385194   259A      0.387026   260A      0.393954  
     261A      0.394948   262A      0.395236   263A      0.397391  
     264A      0.398308   265A      0.402842   266A      0.402993  
     267A      0.404477   268A      0.404896   269A      0.406107  
     270A      0.406973   271A      0.410961   272A      0.412014  
     273A      0.416129   274A      0.417032   275A      0.417297  
     276A      0.421145   277A      0.422270   278A      0.423865  
     279A      0.426015   280A      0.426268   281A      0.429932  
     282A      0.432588   283A      0.433570   284A      0.435524  
     285A      0.435892   286A      0.436228   287A      0.436870  
     288A      0.438593   289A      0.441572   290A      0.443323  
     291A      0.443354   292A      0.448896   293A      0.452093  
     294A      0.454810   295A      0.456192   296A      0.458336  
     297A      0.458618   298A      0.465995   299A      0.466256  
     300A      0.471747   301A      0.473242   302A      0.474364  
     303A      0.475651   304A      0.476872   305A      0.478640  
     306A      0.479178   307A      0.479982   308A      0.482816  
     309A      0.490819   310A      0.490959   311A      0.491843  
     312A      0.493298   313A      0.494516   314A      0.494538  
     315A      0.496236   316A      0.505000   317A      0.508809  
     318A      0.513032   319A      0.513080   320A      0.516282  
     321A      0.522025   322A      0.522184   323A      0.523327  
     324A      0.524158   325A      0.524955   326A      0.527570  
     327A      0.528701   328A      0.529042   329A      0.533596  
     330A      0.546412   331A      0.546513   332A      0.547220  
     333A      0.547560   334A      0.549035   335A      0.549202  
     336A      0.558476   337A      0.558563   338A      0.560962  
     339A      0.563738   340A      0.564908   341A      0.567882  
     342A      0.568097   343A      0.568351   344A      0.568949  
     345A      0.580134   346A      0.580220   347A      0.581294  
     348A      0.587387   349A      0.587761   350A      0.594006  
     351A      0.594069   352A      0.594145   353A      0.597074  
     354A      0.605543   355A      0.606864   356A      0.610018  
     357A      0.611001   358A      0.620096   359A      0.623974  
     360A      0.625396   361A      0.625679   362A      0.625803  
     363A      0.628600   364A      0.628606   365A      0.631135  
     366A      0.637649   367A      0.638242   368A      0.639399  
     369A      0.639662   370A      0.645734   371A      0.646245  
     372A      0.648011   373A      0.650251   374A      0.651532  
     375A      0.652720   376A      0.655053   377A      0.655223  
     378A      0.655709   379A      0.656426   380A      0.657162  
     381A      0.662111   382A      0.670629   383A      0.670911  
     384A      0.672214   385A      0.672361   386A      0.677208  
     387A      0.684591   388A      0.688845   389A      0.692195  
     390A      0.696102   391A      0.696460   392A      0.699525  
     393A      0.708610   394A      0.708617   395A      0.709944  
     396A      0.710234   397A      0.713196   398A      0.713414  
     399A      0.714555   400A      0.714823   401A      0.716299  
     402A      0.716430   403A      0.718546   404A      0.721751  
     405A      0.722346   406A      0.723426   407A      0.725386  
     408A      0.725901   409A      0.728967   410A      0.736044  
     411A      0.736156   412A      0.736729   413A      0.738779  
     414A      0.743923   415A      0.743992   416A      0.744534  
     417A      0.745321   418A      0.749644   419A      0.752086  
     420A      0.753550   421A      0.754132   422A      0.755422  
     423A      0.763981   424A      0.777616   425A      0.785522  
     426A      0.792487   427A      0.792585   428A      0.797353  
     429A      0.797392   430A      0.808550   431A      0.808702  
     432A      0.815283   433A      0.817763   434A      0.817954  
     435A      0.828952   436A      0.828963   437A      0.834090  
     438A      0.834235   439A      0.837546   440A      0.839289  
     441A      0.846706   442A      0.846730   443A      0.850403  
     444A      0.853675   445A      0.865154   446A      0.872866  
     447A      0.872924   448A      0.883906   449A      0.896087  
     450A      0.900954   451A      0.907727   452A      0.907809  
     453A      0.916558   454A      0.916569   455A      0.925496  
     456A      0.938279   457A      0.943543   458A      0.947207  
     459A      0.947394   460A      0.949930   461A      0.951829  
     462A      0.957410   463A      0.965626   464A      0.974741  
     465A      0.975901   466A      0.975937   467A      0.991485  
     468A      0.991574   469A      1.006942   470A      1.013224  
     471A      1.013312   472A      1.016466   473A      1.016511  
     474A      1.025504   475A      1.030843   476A      1.045344  
     477A      1.050459   478A      1.050615   479A      1.053475  
     480A      1.065096   481A      1.095731   482A      1.102613  
     483A      1.102807   484A      1.102972   485A      1.109144  
     486A      1.109267   487A      1.123080   488A      1.124237  
     489A      1.125210   490A      1.130696   491A      1.130738  
     492A      1.138412   493A      1.144583   494A      1.144627  
     495A      1.149546   496A      1.150500   497A      1.161729  
     498A      1.167945   499A      1.167973   500A      1.175847  
     501A      1.177599   502A      1.235898   503A      1.243822  
     504A      1.243857   505A      1.250022   506A      1.254020  
     507A      1.254102   508A      1.261175   509A      1.269710  
     510A      1.269822   511A      1.272503   512A      1.275252  
     513A      1.277312   514A      1.311871   515A      1.317544  
     516A      1.318508   517A      1.318559   518A      1.345532  
     519A      1.368454   520A      1.390774   521A      1.391186  
     522A      1.408916   523A      1.409701   524A      1.411804  
     525A      1.414671   526A      1.415028   527A      1.417742  
     528A      1.421609   529A      1.430552   530A      1.431073  
     531A      1.463178   532A      1.477574   533A      1.491631  
     534A      1.502576   535A      1.502709   536A      1.502939  
     537A      1.504986   538A      1.506209   539A      1.516042  
     540A      1.516699   541A      1.562147   542A      1.569771  
     543A      1.582856   544A      1.586096   545A      1.594928  
     546A      1.598274   547A      1.603925   548A      1.607639  
     549A      1.608874   550A      1.609424   551A      1.618290  
     552A      1.630392   553A      1.631393   554A      1.634257  
     555A      1.639510   556A      1.647375   557A      1.659866  
     558A      1.668645   559A      1.679754   560A      1.685427  
     561A      1.692525   562A      1.693690   563A      1.694794  
     564A      1.696718   565A      1.697245   566A      1.699902  
     567A      1.705336   568A      1.709182   569A      1.709597  
     570A      1.712974   571A      1.721473   572A      1.730979  
     573A      1.734585   574A      1.738883   575A      1.739392  
     576A      1.740577   577A      1.744128   578A      1.746074  
     579A      1.746682   580A      1.750180   581A      1.755679  
     582A      1.756579   583A      1.758454   584A      1.771759  
     585A      1.772306   586A      1.776762   587A      1.777153  
     588A      1.778294   589A      1.780442   590A      1.781258  
     591A      1.781499   592A      1.788488   593A      1.788931  
     594A      1.788972   595A      1.790109   596A      1.792719  
     597A      1.803931   598A      1.805958   599A      1.808578  
     600A      1.808868   601A      1.809298   602A      1.816583  
     603A      1.823093   604A      1.824544   605A      1.825318  
     606A      1.828508   607A      1.832908   608A      1.834688  
     609A      1.835890   610A      1.840153   611A      1.841189  
     612A      1.842992   613A      1.851989   614A      1.853872  
[...]
     796A      1.660984   797A      1.663269   798A      1.667409  
     799A      1.676253   800A      1.676321   801A      1.676593  
     802A      1.676755   803A      1.676781   804A      1.677014  
     805A      1.685941   806A      1.686611   807A      1.686697  
     808A      1.696038   809A      1.697453   810A      1.699320  
     811A      1.699367   812A      1.700757   813A      1.704744  
     814A      1.704813   815A      1.715737   816A      1.715741  
     817A      1.741677   818A      1.751386   819A      1.754694  
     820A      1.760264   821A      1.760290   822A      1.761062  
     823A      1.761734   824A      1.776707   825A      1.776753  
     826A      1.786052   827A      1.791477   828A      1.791512  
     829A      1.796789   830A      1.799925   831A      1.802650  
     832A      1.816539   833A      1.816567   834A      1.816653  
     835A      1.818041   836A      1.824645   837A      1.824754  
     838A      1.830706   839A      1.830860   840A      1.833187  
     841A      1.836756   842A      1.842399   843A      1.842678  
     844A      1.854662   845A      1.860768   846A      1.860782  
     847A      1.860900   848A      1.861258   849A      1.864059  
     850A      1.868619   851A      1.872208   852A      1.880148  
     853A      1.880222   854A      1.888797   855A      1.895833  
     856A      1.896198   857A      1.896257   858A      1.899418  
     859A      1.902950   860A      1.903076   861A      1.908568  
     862A      1.908724   863A      1.913131   864A      1.914061  
     865A      1.914467   866A      1.917644   867A      1.917788  
     868A      1.919244   869A      1.921978   870A      1.922068  
     871A      1.940505   872A      1.941048   873A      1.941714  
     874A      1.941909   875A      1.942179   876A      1.946456  
     877A      1.946501   878A      1.953954   879A      1.954095  
     880A      1.954323   881A      1.954424   882A      1.957988  
     883A      1.969934   884A      1.982787   885A      1.982855  
     886A      1.989280   887A      1.993325   888A      1.997099  
     889A      1.998566   890A      1.998580   891A      2.003926  
     892A      2.008014   893A      2.012272   894A      2.012433  
     895A      2.014874   896A      2.026937   897A      2.027826  
     898A      2.029966   899A      2.030080   900A      2.030472  
     901A      2.031213   902A      2.031287   903A      2.031397  
     904A      2.036697   905A      2.046623   906A      2.048072  
     907A      2.051874   908A      2.052117   909A      2.055726  
     910A      2.057355   911A      2.058169   912A      2.059144  
     913A      2.060542   914A      2.068232   915A      2.070066  
     916A      2.071139   917A      2.071465   918A      2.075408  
     919A      2.075810   920A      2.080102   921A      2.082016  
     922A      2.084258   923A      2.084341   924A      2.085488  
     925A      2.092769   926A      2.094303   927A      2.095510  
     928A      2.096844   929A      2.100498   930A      2.100535  
     931A      2.105536   932A      2.107872   933A      2.108272  
     934A      2.108746   935A      2.109160   936A      2.109945  
     937A      2.110242   938A      2.114123   939A      2.119111  
     940A      2.119237   941A      2.120115   942A      2.120329  
     943A      2.122758   944A      2.125912   945A      2.126082  
     946A      2.131146   947A      2.133433   948A      2.134562  
     949A      2.135732   950A      2.135819   951A      2.142434  
     952A      2.143165   953A      2.143480   954A      2.155426  
     955A      2.158619   956A      2.159645   957A      2.160188  
     958A      2.162705   959A      2.162781   960A      2.171246  
     961A      2.178228   962A      2.178320   963A      2.184819  
     964A      2.190348   965A      2.190693   966A      2.191296  
     967A      2.192489   968A      2.193838   969A      2.195800  
     970A      2.195881   971A      2.198315   972A      2.211397  
     973A      2.219652   974A      2.220244   975A      2.220357  
     976A      2.227701   977A      2.228120   978A      2.228465  
     979A      2.228864   980A      2.232813   981A      2.243218  
     982A      2.243551   983A      2.243823   984A      2.244171  
     985A      2.247057   986A      2.260054   987A      2.260136  
     988A      2.266230   989A      2.270117   990A      2.270125  
     991A      2.271996   992A      2.272057   993A      2.274294  
     994A      2.281046   995A      2.295199   996A      2.300227  
     997A      2.306659   998A      2.310298   999A      2.311992  
    1000A      2.312285  1001A      2.319960  1002A      2.322239  
    1003A      2.330911  1004A      2.330971  1005A      2.331067  
    1006A      2.333816  1007A      2.336896  1008A      2.337918  
    1009A      2.350678  1010A      2.351338  1011A      2.352335  
    1012A      2.352420  1013A      2.366255  1014A      2.366379  
    1015A      2.374618  1016A      2.379233  1017A      2.383448  
    1018A      2.415814  1019A      2.423991  1020A      2.424358  
    1021A      2.424386  1022A      2.436440  1023A      2.440685  
    1024A      2.441087  1025A      2.441295  1026A      2.445795  
    1027A      2.453945  1028A      2.467367  1029A      2.469930  
    1030A      2.472578  1031A      2.472780  1032A      2.474595  
    1033A      2.485328  1034A      2.485381  1035A      2.502285  
    1036A      2.504430  1037A      2.519133  1038A      2.529695  
    1039A      2.529849  1040A      2.543236  1041A      2.545258  
    1042A      2.545302  1043A      2.554199  1044A      2.554218  
    1045A      2.554781  1046A      2.559806  1047A      2.559813  
    1048A      2.572951  1049A      2.572974  1050A      2.574566  
    1051A      2.574886  1052A      2.575221  1053A      2.586217  
    1054A      2.586342  1055A      2.587224  1056A      2.589704  
    1057A      2.591380  1058A      2.605936  1059A      2.623371  
    1060A      2.623427  1061A      2.624884  1062A      2.630857  
    1063A      2.631559  1064A      2.631993  1065A      2.641097  
    1066A      2.641165  1067A      2.642914  1068A      2.648728  
    1069A      2.650775  1070A      2.651206  1071A      2.656811  
    1072A      2.656951  1073A      2.672051  1074A      2.681862  
    1075A      2.683045  1076A      2.683959  1077A      2.686807  
    1078A      2.701875  1079A      2.702300  1080A      2.712989  
    1081A      2.712996  1082A      2.718628  1083A      2.718653  
    1084A      2.722473  1085A      2.722680  1086A      2.735007  
    1087A      2.737160  1088A      2.746077  1089A      2.752146  
    1090A      2.752454  1091A      2.765519  1092A      2.776961  
    1093A      2.794391  1094A      2.794490  1095A      2.802298  
    1096A      2.815288  1097A      2.827077  1098A      2.827524  
    1099A      2.833819  1100A      2.851120  1101A      2.851491  
    1102A      2.856000  1103A      2.858293  1104A      2.859217  
    1105A      2.859495  1106A      2.866858  1107A      2.872472  
    1108A      2.887937  1109A      2.906910  1110A      2.916732  
    1111A      2.917035  1112A      2.921625  1113A      2.923520  
    1114A      2.933498  1115A      2.933569  1116A      2.944517  
    1117A      2.949555  1118A      2.949587  1119A      2.962692  
    1120A      2.969029  1121A      2.992094  1122A      3.004408  
    1123A      3.006398  1124A      3.006898  1125A      3.011850  
    1126A      3.029306  1127A      3.035879  1128A      3.064083  
    1129A      3.064124  1130A      3.070465  1131A      3.070510  
    1132A      3.109309  1133A      3.110126  1134A      3.127414  
    1135A      3.129458  1136A      3.129671  1137A      3.137436  
    1138A      3.139218  1139A      3.146081  1140A      3.146173  
    1141A      3.146244  1142A      3.148878  1143A      3.148884  
    1144A      3.157544  1145A      3.157968  1146A      3.165592  
    1147A      3.166062  1148A      3.191611  1149A      3.211131  
    1150A      3.218281  1151A      3.237275  1152A      3.272006  
    1153A      3.276900  1154A      3.277101  1155A      3.281786  
    1156A      3.281900  1157A      3.283912  1158A      3.303278  
    1159A      3.315875  1160A      3.394299  1161A      3.416176  
    1162A      3.416774  1163A      3.442790  1164A      3.481269  
    1165A      3.483896  1166A      3.521272  1167A      3.549019  
    1168A      3.565171  1169A      3.576984  1170A      3.578966  
    1171A      3.593803  1172A      3.626444  1173A      3.628434  
    1174A      3.642437  1175A      3.662739  1176A      3.667364  
    1177A      3.755216  1178A      3.769206  1179A      3.782617  
    1180A      3.783606  1181A      3.813399  1182A      3.865574  
    1183A      3.870679  1184A      3.870718  1185A      3.913033  
    1186A      3.913149  1187A      3.956256  1188A      3.976887  
    1189A      4.010843  1190A      4.032640  1191A      4.044498  
    1192A      4.080658  1193A      4.202430  1194A      4.205799  
    1195A      4.338003  1196A      4.357476  1197A      4.481399  
    1198A      4.732306  1199A      4.770387  1200A      4.826779  
    1201A      4.843515  1202A      4.932976  1203A      5.047061  
    1204A      5.053802  1205A      5.063149  1206A      5.107807  
    1207A      5.125291  1208A      5.388713  1209A      5.418776  
    1210A      5.729434  1211A      5.750563  1212A      6.064786  
    1213A     18.196248  1214A     18.450723  1215A     18.467980  
    1216A     18.556029  1217A     18.828480  1218A     25.336445  
    1219A     25.372387  

    Final Occupation by Irrep:
              A 
    DOCC [   171 ]
    NA   [   171 ]
    NB   [   171 ]

  @DF-RHF Final Energy: -2055.89162786352517

   => Energetics <=

    Nuclear Repulsion Energy =           6452.5568002797781446
    One-Electron Energy =              -15636.4251038303991663
    Two-Electron Energy =                7127.9766756870967583
    Total Energy =                      -2055.8916278635251729

Computation Completed


Properties will be evaluated at   0.000000,   0.000000,   0.000000 [a0]

Properties computed using the SCF density matrix


 Multipole Moments:

 ------------------------------------------------------------------------------------
     Multipole            Electronic (a.u.)      Nuclear  (a.u.)        Total (a.u.)
 ------------------------------------------------------------------------------------

 L = 1.  Multiply by 2.5417464519 to convert [e a0] to [Debye]
 Dipole X            :          0.0001059           -0.0000085            0.0000973
 Dipole Y            :        117.1649834         -117.1648546            0.0001288
 Dipole Z            :       -723.3885044          723.3892655            0.0007611
 Magnitude           :                                                    0.0007780

 ------------------------------------------------------------------------------------

*** tstop() called on d-16-13-4 at Mon Jan 22 22:38:29 2024
Module time:
	user time   =    2517.06 seconds =      41.95 minutes
	system time =      58.72 seconds =       0.98 minutes
	total time  =        289 seconds =       4.82 minutes
Total time:
	user time   =    7755.14 seconds =     129.25 minutes
	system time =     143.01 seconds =       2.38 minutes
	total time  =        876 seconds =      14.60 minutes
  Constructing Basis Sets for SAPT...

   => Loading Basis Set <=

    Name: (JUN-CC-PVDZ AUX)
    Role: RIFIT
    Keyword: DF_BASIS_SAPT
    atoms 1-2, 4-5, 10, 17-70 entry C          line   100 file /home/gridsan/tfroembgen/.conda/envs/psi4test/share/psi4/basis/jun-cc-pvdz-ri.gbs 
    atoms 3, 6                entry N          line   144 file /home/gridsan/tfroembgen/.conda/envs/psi4test/share/psi4/basis/jun-cc-pvdz-ri.gbs 
    atoms 7-9, 11-16, 71-88   entry H          line    30 file /home/gridsan/tfroembgen/.conda/envs/psi4test/share/psi4/basis/jun-cc-pvdz-ri.gbs 

   => Loading Basis Set <=

    Name: (JUN-CC-PVDZ AUX)
    Role: JKFIT
    Keyword: DF_BASIS_ELST
    atoms 1-2, 4-5, 10, 17-70 entry C          line   146 file /home/gridsan/tfroembgen/.conda/envs/psi4test/share/psi4/basis/jun-cc-pvdz-jkfit.gbs 
    atoms 3, 6                entry N          line   202 file /home/gridsan/tfroembgen/.conda/envs/psi4test/share/psi4/basis/jun-cc-pvdz-jkfit.gbs 
    atoms 7-9, 11-16, 71-88   entry H          line    70 file /home/gridsan/tfroembgen/.conda/envs/psi4test/share/psi4/basis/jun-cc-pvdz-jkfit.gbs 


  //>>>>>>>>>>>>>>>>>>>>>>>>>>>>>>>>>>>//
  //               SSAPT0              //
  //<<<<<<<<<<<<<<<<<<<<<<<<<<<<<<<<<<<//


*** tstart() called on d-16-13-4
*** at Mon Jan 22 22:38:30 2024

        SAPT0  
    Ed Hohenstein
     6 June 2009

      Orbital Information
  --------------------------
    NSO        =      1233
    NMO        =      1219
    NRI        =      4343
    NRI (Elst) =      5440
    NOCC A     =        26
    NOCC B     =       171
    FOCC A     =         7
    FOCC B     =        54
    NVIR A     =      1193
    NVIR B     =      1048

    Elst10,r            =    -0.005260256804 [Eh]
    Exch10              =    -0.000000076855 [Eh]
    Exch10 (S^2)        =    -0.000000076855 [Eh]

    Iter     Energy [mEh]          dE [mEh]         Residual      Time [s]
       1      -0.01018900       0.010189003       0.951688915           329
       2      -0.00968405      -0.000504955       0.252752006           551
       3      -0.01067484       0.000990791       0.071735811           760
       4      -0.01073780       0.000062957       0.033190757           962
       5      -0.01069147      -0.000046325       0.010387772          1184
       6      -0.01069032      -0.000001150       0.003117494          1367
       7      -0.01069323       0.000002910       0.001041129          1587
       8      -0.01069393       0.000000701       0.000255230          1821
       9      -0.01069383      -0.000000105       0.000090881          2020
      10      -0.01069376      -0.000000069       0.000023770          2206
      11      -0.01069376       0.000000004       0.000006670          2380
      12      -0.01069377       0.000000004       0.000002268          2517
      13      -0.01069377       0.000000000       0.000000752          2745

    CHF Iterations converged


    Iter     Energy [mEh]          dE [mEh]         Residual      Time [s]
       1      -1.72453510       1.724535099      21.325994860           276
       2      -1.18820154      -0.536333554       2.616233835           577
       3      -1.19335078       0.005149231       1.024332930           688
       4      -1.22282552       0.029474748       0.251816234           718
       5      -1.22427283       0.001447305       0.086542329           746
       6      -1.22337083      -0.000902002       0.048180858           788
       7      -1.22313098      -0.000239851       0.023780787           823
       8      -1.22332646       0.000195485       0.014764377           857
       9      -1.22338876       0.000062303       0.009299692           883
      10      -1.22334767      -0.000041093       0.006284834           919
      11      -1.22332413      -0.000023537       0.002738026           959
      12      -1.22333132       0.000007188       0.001135947           994
      13      -1.22333536       0.000004037       0.000431847          1022
      14      -1.22333499      -0.000000365       0.000197567          1117
      15      -1.22333422      -0.000000780       0.000100493          1139
      16      -1.22333409      -0.000000130       0.000046963          1183
      17      -1.22333431       0.000000227       0.000020465          1205
      18      -1.22333433       0.000000014       0.000010132          1234
      19      -1.22333429      -0.000000031       0.000005303          1258
      20      -1.22333429      -0.000000007       0.000001881          1281
      21      -1.22333429       0.000000005       0.000000871          1307

    CHF Iterations converged

    Ind20,r (A<-B)      =    -0.000010693766 [Eh]
    Ind20,r (B<-A)      =    -0.001223334292 [Eh]
    Ind20,r             =    -0.001234028058 [Eh]
    Exch-Ind20,r (A<-B) =     0.000000004489 [Eh]
    Exch-Ind20,r (B<-A) =     0.000000020285 [Eh]
    Exch-Ind20,r        =     0.000000024774 [Eh]
    Disp20              =    -0.000461843882 [Eh]
    Disp20 (SS)         =    -0.000230921941 [Eh]
    Disp20 (OS)         =    -0.000230921941 [Eh]
    Exch-Disp20         =     0.000000012126 [Eh]
    Exch-Disp20 (SS)    =     0.000000008805 [Eh]
    Exch-Disp20 (OS)    =     0.000000003320 [Eh]

    SAPT Results 
  --------------------------------------------------------------------------------------------------------
    Electrostatics                 -5.26025680 [mEh]      -3.30086098 [kcal/mol]     -13.81080234 [kJ/mol]
      Elst10,r                     -5.26025680 [mEh]      -3.30086098 [kcal/mol]     -13.81080234 [kJ/mol]

    Exchange                       -0.00007686 [mEh]      -0.00004823 [kcal/mol]      -0.00020178 [kJ/mol]
      Exch10                       -0.00007686 [mEh]      -0.00004823 [kcal/mol]      -0.00020178 [kJ/mol]
      Exch10(S^2)                  -0.00007686 [mEh]      -0.00004823 [kcal/mol]      -0.00020178 [kJ/mol]

    Induction                      -1.24744963 [mEh]      -0.78278646 [kcal/mol]      -3.27517855 [kJ/mol]
      Ind20,r                      -1.23402806 [mEh]      -0.77436430 [kcal/mol]      -3.23994022 [kJ/mol]
      Exch-Ind20,r                  0.00002477 [mEh]       0.00001555 [kcal/mol]       0.00006504 [kJ/mol]
      delta HF,r (2)               -0.01344634 [mEh]      -0.00843771 [kcal/mol]      -0.03530337 [kJ/mol]

    Dispersion                     -0.46183176 [mEh]      -0.28980380 [kcal/mol]      -1.21253911 [kJ/mol]
      Disp20                       -0.46184388 [mEh]      -0.28981141 [kcal/mol]      -1.21257094 [kJ/mol]
      Exch-Disp20                   0.00001213 [mEh]       0.00000761 [kcal/mol]       0.00003184 [kJ/mol]
      Disp20 (SS)                  -0.23092194 [mEh]      -0.14490571 [kcal/mol]      -0.60628547 [kJ/mol]
      Disp20 (OS)                  -0.23092194 [mEh]      -0.14490571 [kcal/mol]      -0.60628547 [kJ/mol]
      Exch-Disp20 (SS)              0.00000881 [mEh]       0.00000553 [kcal/mol]       0.00002312 [kJ/mol]
      Exch-Disp20 (OS)              0.00000332 [mEh]       0.00000208 [kcal/mol]       0.00000872 [kJ/mol]

  Total HF                         -6.50778329 [mEh]      -4.08369567 [kcal/mol]     -17.08618267 [kJ/mol]
  Total SAPT0                      -6.96961504 [mEh]      -4.37349947 [kcal/mol]     -18.29872178 [kJ/mol]

  Special recipe for scaled SAPT0 (see Manual):
    Electrostatics sSAPT0          -5.26025680 [mEh]      -3.30086098 [kcal/mol]     -13.81080234 [kJ/mol]
    Exchange sSAPT0                -0.00007686 [mEh]      -0.00004823 [kcal/mol]      -0.00020178 [kJ/mol]
    Induction sSAPT0               -1.24744963 [mEh]      -0.78278646 [kcal/mol]      -3.27517855 [kJ/mol]
    Dispersion sSAPT0              -0.46183176 [mEh]      -0.28980380 [kcal/mol]      -1.21253911 [kJ/mol]
  Total sSAPT0                     -6.96961504 [mEh]      -4.37349947 [kcal/mol]     -18.29872178 [kJ/mol]
  --------------------------------------------------------------------------------------------------------

*** tstop() called on d-16-13-4 at Tue Jan 23 00:43:18 2024
Module time:
	user time   =    8828.89 seconds =     147.15 minutes
	system time =    1072.11 seconds =      17.87 minutes
	total time  =       7488 seconds =     124.80 minutes
Total time:
	user time   =   16585.56 seconds =     276.43 minutes
	system time =    1215.15 seconds =      20.25 minutes
	total time  =       8365 seconds =     139.42 minutes

    Psi4 stopped on: Tuesday, 23 January 2024 12:43AM
    Psi4 wall time for execution: 2:19:26.89

*** Psi4 exiting successfully. Buy a developer a beer!
