
    -----------------------------------------------------------------------
          Psi4: An Open-Source Ab Initio Electronic Structure Package
                               Psi4 1.9 release

                         Git: Rev {} zzzzzzz 


    D. G. A. Smith, L. A. Burns, A. C. Simmonett, R. M. Parrish,
    M. C. Schieber, R. Galvelis, P. Kraus, H. Kruse, R. Di Remigio,
    A. Alenaizan, A. M. James, S. Lehtola, J. P. Misiewicz, M. Scheurer,
    R. A. Shaw, J. B. Schriber, Y. Xie, Z. L. Glick, D. A. Sirianni,
    J. S. O'Brien, J. M. Waldrop, A. Kumar, E. G. Hohenstein,
    B. P. Pritchard, B. R. Brooks, H. F. Schaefer III, A. Yu. Sokolov,
    K. Patkowski, A. E. DePrince III, U. Bozkaya, R. A. King,
    F. A. Evangelista, J. M. Turney, T. D. Crawford, C. D. Sherrill,
    J. Chem. Phys. 152(18) 184108 (2020). https://doi.org/10.1063/5.0006002

                            Additional Code Authors
    E. T. Seidl, C. L. Janssen, E. F. Valeev, M. L. Leininger,
    J. F. Gonthier, R. M. Richard, H. R. McAlexander, M. Saitow, X. Wang,
    P. Verma, M. H. Lechner, A. Jiang, S. Behnle, A. G. Heide,
    M. F. Herbst, and D. L. Poole

             Previous Authors, Complete List of Code Contributors,
                       and Citations for Specific Modules
    https://github.com/psi4/psi4/blob/master/codemeta.json
    https://github.com/psi4/psi4/graphs/contributors
    http://psicode.org/psi4manual/master/introduction.html#citing-psifour

    -----------------------------------------------------------------------


    Psi4 started on: Friday, 26 January 2024 11:20PM

    Process ID: 55008
    Host:       n2cn0668
    PSIDATADIR: /opt/software/pc2/EB-SW/software/PSI4/1.9-foss-2022a/share/psi4
    Memory:     500.0 MiB
    Threads:    16
    
  ==> Input File <==

--------------------------------------------------------------------------
memory 64 GB # how much memory is available ! Depends on the nodes/cores !

molecule dimer {
# monomer A
+1 1    # Charge and multiplicity
C  0.680067 -1.215929 5.608042
C -0.680504 -1.215545 5.606014
N -1.085635  0.102779 5.605016
C  0.000108  0.884180 5.601740
C -2.477365  0.570758 5.555610
N  1.085222  0.102779 5.605016
H  1.385146 -2.033368 5.615870
H -1.385302 -2.033214 5.606204
H -0.000009  1.965269 5.599993
C  2.478117  0.567877 5.621908
H  2.490592  1.658130 5.594563
H  2.967028  0.220701 6.535354
H  3.001428  0.176405 4.746425
H -2.857359  0.490799 4.533539
H -3.082679 -0.042306 6.225694
H -2.518128  1.610706 5.882594
--
# monomer B
0 1     # Charge and multiplicity
C   -3.66844126402057      7.80375217008252      0.00190004133558
C   -4.84759871934653      7.13124183134024     -0.00046653359696
C   -4.89495929917518      5.69633040353158     -0.00103944469517
C   -3.65374067877320      4.98073034095895      0.00662099703436
C   -2.40942512149445      7.11398103667468      0.00209438359570
C   -2.42547734410473      5.68112195090346     -0.00491050527438
C   -1.19474401643570      7.78614419430947      0.00356656413763
C   0.03795902893699      7.09942164575698      0.00139585983271
C   0.03033258741920      5.66948955970466     -0.00408752508301
C   -1.20098450790502      4.96927034791531      0.00488220885047
C   1.27795782581485      7.77285944319479      0.00277170839332
C   2.48535808472416      7.08769688523756      0.00049722048857
C   2.48612868491717      5.65477081024076     -0.00644052849921
C   1.25408291964399      4.95607811366431      0.00518741308898
C   3.75171459140595      7.76391215098033      0.00062407186893
C   4.92356605618520      7.07878077698995     -0.00143240883900
C   4.95560727132542      5.64344746336949     -0.00159282164606
C   3.70680153420475      4.94121020833308      0.00349873852374
H   -3.65852113775815      8.89082741913536      0.00358502958574
H   -1.18921332975660      8.87412108735996      0.00753844057883
H   1.28429423888630      8.86083343548850      0.00693053253426
H   3.75354208679975      8.85103527897216      0.00214659618464
H   5.86995870320703      7.61379483465560     -0.00235777588134
H   -5.78823170750226      7.67630221293400     -0.00202638095293
C   -6.09197395869619      4.99326001364347     -0.00291168518608
C   -6.12866148031747      3.58258016879823     -0.00171050815740
C   -3.66457974004527      3.56418217974434     -0.00463560277484
C   -4.89429820469869      2.86108077590057      0.00453338221034
C   -2.43733499489796      2.84761165708481      0.00719617576166
C   -1.20922785759670      3.54788693497833     -0.00648285103018
C   1.24714157216223      3.53468075142962     -0.00729145743546
C   0.01517603956900      2.83311183930540      0.00439272578912
C   2.46764517244071      2.82128997725533      0.00449278391269
C   3.70254947457969      3.52466015442405     -0.00899517692985
C   6.14498038638375      4.92757236613191     -0.00282626685777
C   6.16658835886151      3.51658447594213     -0.00065971342101
C   4.92460995845939      2.80840792535402      0.00587903281610
H   7.08990550964105      5.46688776622306     -0.00658814770723
H   -7.03104175110130      5.54268795285765     -0.00714490013730
C   -7.33969804112295      2.85841153457957     -0.00333767559888
C   -7.36488195805880      1.47032337158330     -0.00157213747140
C   -4.90350460894690      1.44442681216000     -0.00628840166334
C   -6.13225715261081      0.73993935705394      0.00600164231964
C   -3.67687480051673      0.72669714267312      0.00433931473643
C   -2.44565658606518      1.42964113326212     -0.00597039546461
C   -1.22360068130162      0.71532450163492      0.00545886906656
C   0.00763786931376      1.41738314923765      0.00392452278437
C   1.23121980774686      0.70211669058719     -0.01490206287210
C   2.46082110053113      1.40329203612573      0.00460244601878
C   3.68443025419614      0.68719842821222      0.00377365974158
C   4.91870890153864      1.39173456118907     -0.00862816189375
C   7.36980207796101      2.77948220318441     -0.00242013321349
C   7.38016266612146      1.39121750785509     -0.00087345036788
C   6.13979953912259      0.67411862320065      0.00545489144369
H   -8.27919079934664      3.40711804112415     -0.00763522772059
H   8.31511347147953      3.31811809662368     -0.00663070901292
C   -8.59175593758115      0.72483255304480     -0.00123170985383
C   -8.59902460370342     -0.63263980622873      0.00089141472904
C   -6.13981313911873     -0.67413663715361     -0.00609792660607
C   -7.38018411213749     -1.39126618958160      0.00131813493501
C   -4.91868448025621     -1.39175501803000      0.00624257154343
C   -3.68443829568458     -0.68723731573599     -0.00478966852105
C   -2.46081704024768     -1.40334517882457      0.00575341766833
C   -1.23116201232071     -0.70217386488055     -0.00636696112346
C   -0.00756962538737     -1.41741884941102      0.00108956317991
C   1.22364771588843     -0.71527537726392      0.01109518512883
C   2.44567064933149     -1.42964328900682     -0.00065482763106
C   3.67686670284649     -0.72670743155550     -0.00479541202602
C   6.13224884641929     -0.73997883984993     -0.00632338623858
C   4.90351914550401     -1.44445752054090      0.00751768830159
C   8.59901484869081      0.63260386666793     -0.00101133422380
C   8.59174548810050     -0.72485086719319      0.00072504603735
C   7.36486276438985     -1.47033266560598      0.00049486934466
H   -9.52830597181814      1.27684744919284     -0.00270163681798
H   9.54141097460619      1.17457248844457     -0.00206336648518
C   -7.36983790976868     -2.77954514593389      0.00312634335708
C   -4.92459910905015     -2.80843725734101     -0.00460528907921
C   -6.16662249566744     -3.51665219282533      0.00169655107992
C   -3.70251035970491     -3.52468154912026      0.00571878010666
C   -2.46764698511392     -2.82132596280400     -0.00632585824990
C   -0.01513347410770     -2.83314164539971     -0.00604426974092
C   -1.24712184122656     -3.53473217556300      0.00551968366725
C   1.20924506964357     -3.54791467864352      0.00805871345849
C   2.43733602215464     -2.84764173817541     -0.00608104485234
C   4.89430234377080     -2.86112296828604     -0.00526030478103
C   3.66461525504104     -3.56421984553201      0.00761911515957
C   6.12863901474565     -3.58258405771778      0.00096495711699
C   7.33967266469532     -2.85841330737039      0.00248018319869
H   -9.54144911125902     -1.17456346666430      0.00226083090216
H   9.52826186807155     -1.27691907390448      0.00197485379837
H   -8.31516504384864     -3.31814985321231      0.00729857188773
H   8.27915514249207     -3.40714078989363      0.00681973918158
C   -6.14499418870218     -4.92764727278338      0.00302254913999
C   -3.70678334799751     -4.94126171411716     -0.00679841894792
C   -4.95559005800169     -5.64349397349412      0.00116871569699
C   -2.48612132622665     -5.65478557440947      0.00614125209662
C   -1.25405833548005     -4.95612205000132     -0.00503435388927
C   1.20101257386816     -4.96928038819302     -0.00385322963129
C   -0.03033667441341     -5.66952030313900      0.00398997003238
C   3.65375010132847     -4.98074377541453     -0.00309522988330
C   2.42549269587528     -5.68117463552727      0.00628170066869
C   6.09196561781097     -4.99325796338655      0.00325918379042
C   4.89497644461045     -5.69634842095790      0.00202298796027
H   -7.08989238804069     -5.46699984223871      0.00742531082125
H   7.03105520920009     -5.54265853633254      0.00683896355417
C   -4.92354532219813     -7.07882109967734      0.00061394679214
C   -2.48534208823777     -7.08772807792913     -0.00189594564379
C   -3.75168589177895     -7.76394715763627     -0.00170126671874
C   -0.03794895698805     -7.09946487446944     -0.00168022049625
C   -1.27795610040136     -7.77290438466689     -0.00366491325785
C   2.40944432072629     -7.11402201200282     -0.00081701968533
C   1.19474993715296     -7.78618536556242     -0.00296931056689
C   4.84762105249800     -7.13126211057943      0.00168979497423
C   3.66847160587561     -7.80378799294376     -0.00065863938960
H   -5.86994035041618     -7.61383059804164      0.00215798365757
H   5.78824962538815     -7.67633218931421      0.00281691445618
H   -3.75352693944918     -8.85107156923607     -0.00353718114765
H   -1.28430440589466     -8.86087539249706     -0.00809229711623
H   1.18922157469537     -8.87416062058945     -0.00706194725726
H   3.65854661482387     -8.89086063405326     -0.00231318081200

    units angstrom      # Angstroms are the default
    no_reorient         # Geometry fixed, default
    symmetry c1         # C1 symmetry, default
}

set {
    scf_type DF         # Density fitting, faster than exact integrals
    freeze_core True    # Freeze core electrons
    basis jun-cc-pVDZ   # Jun-cc-pVDZ basis set, recommended for sSAPT0 in https://doi.org/10.1063/1.4867135
}

energy('ssapt0')        # Compute sSAPT0 energy, includes also SAPT0
--------------------------------------------------------------------------

  Memory set to  59.605 GiB by Python driver.

Scratch directory: /tmp/
   => Loading Basis Set <=

    Name: JUN-CC-PVDZ
    Role: ORBITAL
    Keyword: BASIS
    atoms 1-2, 4-5, 10, 17-34, 41-53, 56-70, 73-89, 92-104, 109-119, 122-130 entry C          line   164 file /opt/software/pc2/EB-SW/software/PSI4/1.9-foss-2022a/share/psi4/basis/jun-cc-pvdz.gbs 
    atoms 3, 6                                                               entry N          line   198 file /opt/software/pc2/EB-SW/software/PSI4/1.9-foss-2022a/share/psi4/basis/jun-cc-pvdz.gbs 
    atoms 7-9, 11-16, 35-40, 54-55, 71-72, 90-91, 105-108, 120-121, 131-136  entry H          line    36 file /opt/software/pc2/EB-SW/software/PSI4/1.9-foss-2022a/share/psi4/basis/jun-cc-pvdz.gbs 

   => Loading Basis Set <=

    Name: JUN-CC-PVDZ
    Role: ORBITAL
    Keyword: BASIS
    atoms 1-2, 4-5, 10, 17-34, 41-53, 56-70, 73-89, 92-104, 109-119, 122-130 entry C          line   164 file /opt/software/pc2/EB-SW/software/PSI4/1.9-foss-2022a/share/psi4/basis/jun-cc-pvdz.gbs 
    atoms 3, 6                                                               entry N          line   198 file /opt/software/pc2/EB-SW/software/PSI4/1.9-foss-2022a/share/psi4/basis/jun-cc-pvdz.gbs 
    atoms 7-9, 11-16, 35-40, 54-55, 71-72, 90-91, 105-108, 120-121, 131-136  entry H          line    36 file /opt/software/pc2/EB-SW/software/PSI4/1.9-foss-2022a/share/psi4/basis/jun-cc-pvdz.gbs 


  //>>>>>>>>>>>>>>>>>>>>>>>>>>>>>>>>>>>//
  //              Dimer HF             //
  //<<<<<<<<<<<<<<<<<<<<<<<<<<<<<<<<<<<//

   => Libint2 <=

    Primary   basis highest AM E, G, H:  5, 4, 3
    Auxiliary basis highest AM E, G, H:  6, 5, 4
    Onebody   basis highest AM E, G, H:  6, 5, 4
    Solid Harmonics ordering:            gaussian

*** tstart() called on n2cn0668
*** at Fri Jan 26 23:20:41 2024

   => Loading Basis Set <=

    Name: JUN-CC-PVDZ
    Role: ORBITAL
    Keyword: BASIS
    atoms 1-2, 4-5, 10, 17-34, 41-53, 56-70, 73-89, 92-104, 109-119, 122-130 entry C          line   164 file /opt/software/pc2/EB-SW/software/PSI4/1.9-foss-2022a/share/psi4/basis/jun-cc-pvdz.gbs 
    atoms 3, 6                                                               entry N          line   198 file /opt/software/pc2/EB-SW/software/PSI4/1.9-foss-2022a/share/psi4/basis/jun-cc-pvdz.gbs 
    atoms 7-9, 11-16, 35-40, 54-55, 71-72, 90-91, 105-108, 120-121, 131-136  entry H          line    36 file /opt/software/pc2/EB-SW/software/PSI4/1.9-foss-2022a/share/psi4/basis/jun-cc-pvdz.gbs 


         ---------------------------------------------------------
                                   SCF
               by Justin Turney, Rob Parrish, Andy Simmonett
                          and Daniel G. A. Smith
                              RHF Reference
                       16 Threads,  61035 MiB Core
         ---------------------------------------------------------

  ==> Geometry <==

    Molecular point group: c1
    Full point group: C1

    Geometry (in Angstrom), charge = 1, multiplicity = 1:

       Center              X                  Y                   Z               Mass       
    ------------   -----------------  -----------------  -----------------  -----------------
         C            0.680062820275    -1.215917226251     5.181082145675    12.000000000000
         C           -0.680508179725    -1.215533226251     5.179054145675    12.000000000000
         N           -1.085639179725     0.102790773749     5.178056145675    14.003074004430
         C            0.000103820275     0.884191773749     5.174780145675    12.000000000000
         C           -2.477369179725     0.570769773749     5.128650145675    12.000000000000
         N            1.085217820275     0.102790773749     5.178056145675    14.003074004430
         H            1.385141820275    -2.033356226251     5.188910145675     1.007825032230
         H           -1.385306179725    -2.033202226251     5.179244145675     1.007825032230
         H           -0.000013179725     1.965280773749     5.173033145675     1.007825032230
         C            2.478112820275     0.567888773749     5.194948145675    12.000000000000
         H            2.490587820275     1.658141773750     5.167603145675     1.007825032230
         H            2.967023820275     0.220712773749     6.108394145675     1.007825032230
         H            3.001423820275     0.176416773749     4.319465145675     1.007825032230
         H           -2.857363179725     0.490810773749     4.106579145675     1.007825032230
         H           -3.082683179725    -0.042294226251     5.798734145675     1.007825032230
         H           -2.518132179725     1.610717773749     5.455634145675     1.007825032230
         C           -3.668445443746     7.803763943832    -0.425059812989    12.000000000000
         C           -4.847602899072     7.131253605090    -0.427426387922    12.000000000000
         C           -4.894963478901     5.696342177281    -0.427999299020    12.000000000000
         C           -3.653744858499     4.980742114708    -0.420338857291    12.000000000000
         C           -2.409429301220     7.113992810424    -0.424865470729    12.000000000000
         C           -2.425481523830     5.681133724653    -0.431870359599    12.000000000000
         C           -1.194748196161     7.786155968059    -0.423393290187    12.000000000000
         C            0.037954849212     7.099433419506    -0.425563994492    12.000000000000
         C            0.030328407694     5.669501333454    -0.431047379408    12.000000000000
         C           -1.200988687630     4.969282121665    -0.422077645474    12.000000000000
         C            1.277953646089     7.772871216944    -0.424188145932    12.000000000000
         C            2.485353904999     7.087708658987    -0.426462633836    12.000000000000
         C            2.486124505192     5.654782583990    -0.433400382824    12.000000000000
         C            1.254078739919     4.956089887414    -0.421772441236    12.000000000000
         C            3.751710411681     7.763923924730    -0.426335782456    12.000000000000
         C            4.923561876460     7.078792550739    -0.428392263164    12.000000000000
         C            4.955603091600     5.643459237119    -0.428552675971    12.000000000000
         C            3.706797354479     4.941221982083    -0.423461115801    12.000000000000
         H           -3.658525317484     8.890839192885    -0.423374824739     1.007825032230
         H           -1.189217509482     8.874132861109    -0.419421413746     1.007825032230
         H            1.284290059161     8.860845209238    -0.420029321791     1.007825032230
         H            3.753537907074     8.851047052722    -0.424813258140     1.007825032230
         H            5.869954523482     7.613806608405    -0.429317630206     1.007825032230
         H           -5.788235887228     7.676313986684    -0.428986235278     1.007825032230
         C           -6.091978138422     4.993271787393    -0.429871539511    12.000000000000
         C           -6.128665660043     3.582591942548    -0.428670362482    12.000000000000
         C           -3.664583919771     3.564193953494    -0.431595457100    12.000000000000
         C           -4.894302384424     2.861092549650    -0.422426472115    12.000000000000
         C           -2.437339174623     2.847623430834    -0.419763678563    12.000000000000
         C           -1.209232037322     3.547898708728    -0.433442705355    12.000000000000
         C            1.247137392437     3.534692525179    -0.434251311760    12.000000000000
         C            0.015171859844     2.833123613055    -0.422567128536    12.000000000000
         C            2.467640992715     2.821301751005    -0.422467070412    12.000000000000
         C            3.702545294854     3.524671928174    -0.435955031255    12.000000000000
         C            6.144976206658     4.927584139881    -0.429786121183    12.000000000000
         C            6.166584179136     3.516596249692    -0.427619567746    12.000000000000
         C            4.924605778734     2.808419699104    -0.421080821509    12.000000000000
         H            7.089901329916     5.466899539973    -0.433548002032     1.007825032230
         H           -7.031045930827     5.542699726607    -0.434104754462     1.007825032230
         C           -7.339702220848     2.858423308329    -0.430297529924    12.000000000000
         C           -7.364886137784     1.470335145333    -0.428531991796    12.000000000000
         C           -4.903508788672     1.444438585909    -0.433248255988    12.000000000000
         C           -6.132261332336     0.739951130803    -0.420958212005    12.000000000000
         C           -3.676878980242     0.726708916423    -0.422620539589    12.000000000000
         C           -2.445660765791     1.429652907012    -0.432930249790    12.000000000000
         C           -1.223604861027     0.715336275384    -0.421500985258    12.000000000000
         C            0.007633689588     1.417394922987    -0.423035331541    12.000000000000
         C            1.231215628021     0.702128464337    -0.441861917197    12.000000000000
         C            2.460816920806     1.403303809875    -0.422357408306    12.000000000000
         C            3.684426074471     0.687210201962    -0.423186194583    12.000000000000
         C            4.918704721813     1.391746334939    -0.435588016219    12.000000000000
         C            7.369797898236     2.779493976934    -0.429379987538    12.000000000000
         C            7.380158486396     1.391229281605    -0.427833304693    12.000000000000
         C            6.139795359397     0.674130396950    -0.421504962881    12.000000000000
         H           -8.279194979072     3.407129814874    -0.434595082046     1.007825032230
         H            8.315109291754     3.318129870373    -0.433590563338     1.007825032230
         C           -8.591760117307     0.724844326794    -0.428191564179    12.000000000000
         C           -8.599028783429    -0.632628032479    -0.426068439596    12.000000000000
         C           -6.139817318844    -0.674124863404    -0.433057780931    12.000000000000
         C           -7.380188291863    -1.391254415832    -0.425641719390    12.000000000000
         C           -4.918688659982    -1.391743244281    -0.420717282782    12.000000000000
         C           -3.684442475410    -0.687225541986    -0.431749522846    12.000000000000
         C           -2.460821219973    -1.403333405075    -0.421206436657    12.000000000000
         C           -1.231166192046    -0.702162091131    -0.433326815448    12.000000000000
         C           -0.007573805113    -1.417407075662    -0.425870291145    12.000000000000
         C            1.223643536163    -0.715263603514    -0.415864669196    12.000000000000
         C            2.445666469606    -1.429631515257    -0.427614681956    12.000000000000
         C            3.676862523121    -0.726695657806    -0.431755266351    12.000000000000
         C            6.132244666694    -0.739967066100    -0.433283240564    12.000000000000
         C            4.903514965779    -1.444445746791    -0.419442166023    12.000000000000
         C            8.599010668965     0.632615640417    -0.427971188549    12.000000000000
         C            8.591741308375    -0.724839093444    -0.426234808288    12.000000000000
         C            7.364858584664    -1.470320891856    -0.426464984980    12.000000000000
         H           -9.528310151544     1.276859222942    -0.429661491143     1.007825032230
         H            9.541406794881     1.174584262194    -0.429023220810     1.007825032230
         C           -7.369842089494    -2.779533372184    -0.423833510968    12.000000000000
         C           -4.924603288776    -2.808425483592    -0.431565143404    12.000000000000
         C           -6.166626675393    -3.516640419076    -0.425263303245    12.000000000000
         C           -3.702514539430    -3.524669775371    -0.421241074218    12.000000000000
         C           -2.467651164839    -2.821314189055    -0.433285712575    12.000000000000
         C           -0.015137653833    -2.833129871650    -0.433004124066    12.000000000000
         C           -1.247126020952    -3.534720401814    -0.421440170658    12.000000000000
         C            1.209240889918    -3.547902904894    -0.418901140866    12.000000000000
         C            2.437331842429    -2.847629964426    -0.433040899177    12.000000000000
         C            4.894298164045    -2.861111194537    -0.432220159106    12.000000000000
         C            3.664611075316    -3.564208071783    -0.419340739165    12.000000000000
         C            6.128634835020    -3.582572283968    -0.425994897208    12.000000000000
         C            7.339668484970    -2.858401533621    -0.424479671126    12.000000000000
         H           -9.541453290984    -1.174551692915    -0.424699023423     1.007825032230
         H            9.528257688346    -1.276907300155    -0.424985000527     1.007825032230
         H           -8.315169223574    -3.318138079463    -0.419661282437     1.007825032230
         H            8.279150962767    -3.407129016144    -0.420140115143     1.007825032230
         C           -6.144998368428    -4.927635499034    -0.423937305185    12.000000000000
         C           -3.706787527723    -4.941249940368    -0.433758273273    12.000000000000
         C           -4.955594237727    -5.643482199745    -0.425791138628    12.000000000000
         C           -2.486125505952    -5.654773800660    -0.420818602228    12.000000000000
         C           -1.254062515205    -4.956110276252    -0.431994208214    12.000000000000
         C            1.201008394143    -4.969268614444    -0.430813083956    12.000000000000
         C           -0.030340854139    -5.669508529390    -0.422969884293    12.000000000000
         C            3.653745921603    -4.980732001665    -0.430055084208    12.000000000000
         C            2.425488516150    -5.681162861778    -0.420678153656    12.000000000000
         C            6.091961438086    -4.993246189637    -0.423700670535    12.000000000000
         C            4.894972264885    -5.696336647208    -0.424936866365    12.000000000000
         H           -7.089896567766    -5.466988068489    -0.419534543504     1.007825032230
         H            7.031051029475    -5.542646762583    -0.420120890771     1.007825032230
         C           -4.923549501924    -7.078809325928    -0.426345907533    12.000000000000
         C           -2.485346267963    -7.087716304180    -0.428855799969    12.000000000000
         C           -3.751690071504    -7.763935383887    -0.428661121044    12.000000000000
         C           -0.037953136713    -7.099453100720    -0.428640074821    12.000000000000
         C           -1.277960280127    -7.772892610917    -0.430624767583    12.000000000000
         C            2.409440141001    -7.114010238253    -0.427776874010    12.000000000000
         C            1.194745757428    -7.786173591813    -0.429929164892    12.000000000000
         C            4.847616872773    -7.131250336830    -0.425270059351    12.000000000000
         C            3.668467426150    -7.803776219194    -0.427618493715    12.000000000000
         H           -5.869944530142    -7.613818824292    -0.424801870667     1.007825032230
         H            5.788245445663    -7.676320415565    -0.424142939869     1.007825032230
         H           -3.753531119175    -8.851059795487    -0.430497035473     1.007825032230
         H           -1.284308585620    -8.860863618748    -0.435052151441     1.007825032230
         H            1.189217394970    -8.874148846840    -0.434021801582     1.007825032230
         H            3.658542435098    -8.890848860304    -0.429273035137     1.007825032230

  Running in c1 symmetry.

  Rotational constants: A =      0.00063  B =      0.00063  C =      0.00035 [cm^-1]
  Rotational constants: A =     18.86667  B =     18.74865  C =     10.50436 [MHz]
  Nuclear repulsion = 17959.564692102117988

  Charge       = 1
  Multiplicity = 1
  Electrons    = 652
  Nalpha       = 326
  Nbeta        = 326

  ==> Algorithm <==

  SCF Algorithm Type is DF.
  DIIS enabled.
  MOM disabled.
  Fractional occupation disabled.
  Guess Type is SAD.
  Energy threshold   = 1.00e-08
  Density threshold  = 1.00e-08
  Integral threshold = 1.00e-12

  ==> Primary Basis <==

  Basis Set: JUN-CC-PVDZ
    Blend: JUN-CC-PVDZ
    Number of shells: 923
    Number of basis functions: 2019
    Number of Cartesian functions: 2122
    Spherical Harmonics?: true
    Max angular momentum: 2

   => Loading Basis Set <=

    Name: (JUN-CC-PVDZ AUX)
    Role: JKFIT
    Keyword: DF_BASIS_SCF
    atoms 1-2, 4-5, 10, 17-34, 41-53, 56-70, 73-89, 92-104, 109-119, 122-130 entry C          line   146 file /opt/software/pc2/EB-SW/software/PSI4/1.9-foss-2022a/share/psi4/basis/jun-cc-pvdz-jkfit.gbs 
    atoms 3, 6                                                               entry N          line   202 file /opt/software/pc2/EB-SW/software/PSI4/1.9-foss-2022a/share/psi4/basis/jun-cc-pvdz-jkfit.gbs 
    atoms 7-9, 11-16, 35-40, 54-55, 71-72, 90-91, 105-108, 120-121, 131-136  entry H          line    70 file /opt/software/pc2/EB-SW/software/PSI4/1.9-foss-2022a/share/psi4/basis/jun-cc-pvdz-jkfit.gbs 

  ==> Integral Setup <==

  ==> DiskDFJK: Density-Fitted J/K Matrices <==

    J tasked:                  Yes
    K tasked:                  Yes
    wK tasked:                  No
    OpenMP threads:             16
    Integrals threads:          16
    Memory [MiB]:            45776
    Algorithm:                Disk
    Integral Cache:           SAVE
    Schwarz Cutoff:          1E-12
    Fitting Condition:       1E-10

   => Auxiliary Basis Set <=

  Basis Set: (JUN-CC-PVDZ AUX)
    Blend: JUN-CC-PVDZ-JKFIT
    Number of shells: 3078
    Number of basis functions: 8896
    Number of Cartesian functions: 10198
    Spherical Harmonics?: true
    Max angular momentum: 3

  Minimum eigenvalue in the overlap matrix is 8.9149868974E-11.
  Reciprocal condition number of the overlap matrix is 3.8782297448E-12.
    Using canonical orthogonalization.
  Overall, 38 of 2019 possible MOs eliminated.


  ==> Pre-Iterations <==

  SCF Guess: Superposition of Atomic Densities via on-the-fly atomic UHF (no occupation information).

   -------------------------
    Irrep   Nso     Nmo    
   -------------------------
     A       2019    1981 
   -------------------------
    Total    2019    1981
   -------------------------

  ==> Iterations <==

                           Total Energy        Delta E     RMS |[F,P]|

   @DF-RHF iter SAD: -3967.14133528583261   -3.96714e+03   0.00000e+00 
   @DF-RHF iter   1: -3952.10914267284898    1.50322e+01   7.15760e-04 DIIS/ADIIS
   @DF-RHF iter   2: -3953.49927514482124   -1.39013e+00   2.34352e-04 DIIS/ADIIS
   @DF-RHF iter   3: -3953.62340613280367   -1.24131e-01   1.01065e-04 DIIS/ADIIS
   @DF-RHF iter   4: -3953.64615482985892   -2.27487e-02   4.17289e-05 DIIS
   @DF-RHF iter   5: -3953.65055039746358   -4.39557e-03   1.06174e-05 DIIS
   @DF-RHF iter   6: -3953.65099995318587   -4.49556e-04   4.60713e-06 DIIS
   @DF-RHF iter   7: -3953.65118429657332   -1.84343e-04   2.21552e-06 DIIS
   @DF-RHF iter   8: -3953.65124617103947   -6.18745e-05   1.11455e-06 DIIS
   @DF-RHF iter   9: -3953.65126385588155   -1.76848e-05   3.59097e-07 DIIS
   @DF-RHF iter  10: -3953.65126507028435   -1.21440e-06   1.43785e-07 DIIS
   @DF-RHF iter  11: -3953.65126522010360   -1.49819e-07   6.05106e-08 DIIS
   @DF-RHF iter  12: -3953.65126525292271   -3.28191e-08   2.99013e-08 DIIS
   @DF-RHF iter  13: -3953.65126526007771   -7.15499e-09   1.06350e-08 DIIS
   @DF-RHF iter  14: -3953.65126526109725   -1.01954e-09   5.33708e-09 DIIS
  Energy and wave function converged.


  ==> Post-Iterations <==

    Orbital Energies [Eh]
    ---------------------

    Doubly Occupied:                                                      

       1A    -15.814228     2A    -15.813699     3A    -11.509205  
       4A    -11.439610     5A    -11.438056     6A    -11.429878  
       7A    -11.429507     8A    -11.326834     9A    -11.326370  
      10A    -11.326209    11A    -11.325597    12A    -11.325527  
      13A    -11.325141    14A    -11.325062    15A    -11.324964  
      16A    -11.324720    17A    -11.324490    18A    -11.324433  
      19A    -11.324037    20A    -11.324022    21A    -11.323844  
      22A    -11.323754    23A    -11.323634    24A    -11.323235  
      25A    -11.323072    26A    -11.322999    27A    -11.322862  
      28A    -11.322816    29A    -11.322740    30A    -11.322225  
      31A    -11.322061    32A    -11.320985    33A    -11.320917  
      34A    -11.320820    35A    -11.320786    36A    -11.320736  
      37A    -11.320609    38A    -11.320591    39A    -11.320548  
      40A    -11.320126    41A    -11.320108    42A    -11.319961  
      43A    -11.319787    44A    -11.318973    45A    -11.318912  
      46A    -11.318844    47A    -11.318605    48A    -11.318597  
      49A    -11.318562    50A    -11.318543    51A    -11.318497  
      52A    -11.318455    53A    -11.318041    54A    -11.317917  
      55A    -11.317893    56A    -11.317881    57A    -11.317872  
      58A    -11.317862    59A    -11.317808    60A    -11.317694  
      61A    -11.317628    62A    -11.317590    63A    -11.317296  
      64A    -11.317264    65A    -11.317215    66A    -11.317180  
      67A    -11.317177    68A    -11.317155    69A    -11.317136  
      70A    -11.317120    71A    -11.316906    72A    -11.316870  
      73A    -11.316840    74A    -11.316784    75A    -11.316709  
      76A    -11.316535    77A    -11.316522    78A    -11.316158  
      79A    -11.316151    80A    -11.309932    81A    -11.309907  
      82A    -11.309867    83A    -11.309848    84A    -11.309825  
      85A    -11.309810    86A    -11.309781    87A    -11.309753  
      88A    -11.309360    89A    -11.309336    90A    -11.309156  
      91A    -11.309077    92A    -11.308308    93A    -11.308280  
      94A    -11.308280    95A    -11.308233    96A    -11.307577  
      97A    -11.307567    98A    -11.306839    99A    -11.306811  
     100A    -11.306807   101A    -11.306760   102A    -11.306106  
     103A    -11.306097   104A     -1.557663   105A     -1.413341  
     106A     -1.315175   107A     -1.298683   108A     -1.298430  
     109A     -1.278976   110A     -1.278941   111A     -1.275087  
     112A     -1.258598   113A     -1.253641   114A     -1.247564  
     115A     -1.247353   116A     -1.231029   117A     -1.231022  
     118A     -1.218249   119A     -1.214606   120A     -1.214585  
     121A     -1.211812   122A     -1.201663   123A     -1.201654  
     124A     -1.186681   125A     -1.173581   126A     -1.171435  
     127A     -1.171277   128A     -1.169966   129A     -1.169053  
     130A     -1.168307   131A     -1.146384   132A     -1.146329  
     133A     -1.133636   134A     -1.133619   135A     -1.126075  
     136A     -1.126021   137A     -1.123750   138A     -1.104370  
     139A     -1.104362   140A     -1.098784   141A     -1.098052  
     142A     -1.095397   143A     -1.095353   144A     -1.084246  
     145A     -1.081187   146A     -1.081106   147A     -1.065113  
     148A     -1.064211   149A     -1.061207   150A     -1.058807  
     151A     -1.058771   152A     -1.047314   153A     -1.028961  
     154A     -1.028929   155A     -1.012831   156A     -1.012828  
     157A     -1.002176   158A     -0.976638   159A     -0.965050  
     160A     -0.964950   161A     -0.964147   162A     -0.961682  
     163A     -0.961631   164A     -0.951822   165A     -0.951720  
     166A     -0.949088   167A     -0.948977   168A     -0.947790  
     169A     -0.928832   170A     -0.924466   171A     -0.908701  
     172A     -0.906438   173A     -0.906301   174A     -0.904104  
     175A     -0.901200   176A     -0.896884   177A     -0.891928  
     178A     -0.891899   179A     -0.884264   180A     -0.884244  
     181A     -0.843049   182A     -0.842894   183A     -0.840476  
     184A     -0.840063   185A     -0.840051   186A     -0.839840  
     187A     -0.839822   188A     -0.830011   189A     -0.824807  
     190A     -0.819775   191A     -0.808610   192A     -0.796147  
     193A     -0.792874   194A     -0.789897   195A     -0.784734  
     196A     -0.784579   197A     -0.782710   198A     -0.782194  
     199A     -0.782087   200A     -0.776932   201A     -0.772009  
     202A     -0.771951   203A     -0.769919   204A     -0.765990  
     205A     -0.761639   206A     -0.756386   207A     -0.756350  
     208A     -0.744414   209A     -0.742834   210A     -0.742798  
     211A     -0.739409   212A     -0.739395   213A     -0.736193  
     214A     -0.710170   215A     -0.709857   216A     -0.708121  
     217A     -0.708012   218A     -0.707797   219A     -0.707788  
     220A     -0.706270   221A     -0.705998   222A     -0.698992  
     223A     -0.698900   224A     -0.697134   225A     -0.696856  
     226A     -0.695984   227A     -0.693697   228A     -0.693642  
     229A     -0.686486   230A     -0.679677   231A     -0.671530  
     232A     -0.671482   233A     -0.665967   234A     -0.665935  
     235A     -0.659183   236A     -0.658828   237A     -0.656773  
     238A     -0.656753   239A     -0.656681   240A     -0.655875  
     241A     -0.652399   242A     -0.652079   243A     -0.652027  
     244A     -0.651698   245A     -0.648758   246A     -0.648717  
     247A     -0.646128   248A     -0.634307   249A     -0.634259  
     250A     -0.633345   251A     -0.633281   252A     -0.630277  
     253A     -0.629621   254A     -0.626472   255A     -0.626451  
     256A     -0.623506   257A     -0.623406   258A     -0.616412  
     259A     -0.616284   260A     -0.616254   261A     -0.614333  
     262A     -0.611726   263A     -0.608028   264A     -0.602559  
     265A     -0.602289   266A     -0.594819   267A     -0.594524  
     268A     -0.590476   269A     -0.590401   270A     -0.586256  
     271A     -0.584726   272A     -0.584699   273A     -0.575827  
     274A     -0.574485   275A     -0.574339   276A     -0.572433  
     277A     -0.572426   278A     -0.565964   279A     -0.565948  
     280A     -0.555280   281A     -0.553888   282A     -0.553793  
     283A     -0.552967   284A     -0.552929   285A     -0.548882  
     286A     -0.537714   287A     -0.534077   288A     -0.534068  
     289A     -0.530803   290A     -0.527697   291A     -0.524048  
     292A     -0.523998   293A     -0.516961   294A     -0.505793  
     295A     -0.505658   296A     -0.503346   297A     -0.500080  
     298A     -0.500047   299A     -0.499755   300A     -0.490977  
     301A     -0.490373   302A     -0.465389   303A     -0.465347  
     304A     -0.445272   305A     -0.445206   306A     -0.442881  
     307A     -0.441936   308A     -0.441918   309A     -0.411994  
     310A     -0.411993   311A     -0.408438   312A     -0.398729  
     313A     -0.396649   314A     -0.396536   315A     -0.388972  
     316A     -0.388853   317A     -0.366269   318A     -0.361012  
     319A     -0.360975   320A     -0.357991   321A     -0.343376  
     322A     -0.312292   323A     -0.312239   324A     -0.311694  
     325A     -0.261641   326A     -0.261595  

    Virtual:                                                              

     327A     -0.068904   328A     -0.068704   329A     -0.053121  
     330A     -0.042976   331A     -0.038706   332A     -0.033199  
     333A     -0.023649   334A     -0.023514   335A     -0.016519  
     336A     -0.015477   337A     -0.012953   338A     -0.011570  
     339A     -0.008209   340A     -0.000850   341A     -0.000309  
     342A     -0.000196   343A      0.003161   344A      0.003290  
     345A      0.006585   346A      0.008576   347A      0.008753  
     348A      0.009890   349A      0.011531   350A      0.011624  
     351A      0.014372   352A      0.014888   353A      0.016161  
     354A      0.016324   355A      0.016884   356A      0.017281  
     357A      0.017417   358A      0.021357   359A      0.021468  
     360A      0.024033   361A      0.027123   362A      0.028489  
     363A      0.028613   364A      0.028634   365A      0.031493  
     366A      0.033646   367A      0.036529   368A      0.037354  
     369A      0.038627   370A      0.039067   371A      0.039606  
     372A      0.040199   373A      0.043747   374A      0.043834  
     375A      0.045456   376A      0.049940   377A      0.050072  
     378A      0.050948   379A      0.054315   380A      0.055379  
     381A      0.055573   382A      0.056816   383A      0.056974  
     384A      0.057554   385A      0.058043   386A      0.058886  
     387A      0.058938   388A      0.059011   389A      0.059468  
     390A      0.061185   391A      0.062130   392A      0.066414  
     393A      0.069111   394A      0.070990   395A      0.071164  
     396A      0.076140   397A      0.076227   398A      0.076965  
     399A      0.079418   400A      0.080303   401A      0.080465  
     402A      0.081343   403A      0.083231   404A      0.084742  
     405A      0.085388   406A      0.087608   407A      0.088132  
     408A      0.089478   409A      0.089575   410A      0.090776  
     411A      0.093826   412A      0.094737   413A      0.095196  
     414A      0.096891   415A      0.097937   416A      0.100741  
     417A      0.101001   418A      0.102051   419A      0.103022  
     420A      0.105850   421A      0.108946   422A      0.109570  
     423A      0.109895   424A      0.110802   425A      0.111328  
     426A      0.112061   427A      0.112811   428A      0.114046  
     429A      0.114793   430A      0.115603   431A      0.117673  
     432A      0.118444   433A      0.118885   434A      0.119448  
     435A      0.120728   436A      0.123488   437A      0.125190  
     438A      0.126906   439A      0.129309   440A      0.129983  
     441A      0.130314   442A      0.132154   443A      0.134893  
     444A      0.135587   445A      0.137093   446A      0.139015  
     447A      0.139041   448A      0.139741   449A      0.140856  
     450A      0.145154   451A      0.145815   452A      0.148791  
     453A      0.149413   454A      0.149723   455A      0.150410  
     456A      0.150642   457A      0.151092   458A      0.152775  
     459A      0.153329   460A      0.153722   461A      0.155171  
     462A      0.155386   463A      0.155897   464A      0.156248  
     465A      0.156889   466A      0.158268   467A      0.159312  
     468A      0.159492   469A      0.162737   470A      0.162795  
     471A      0.163440   472A      0.165129   473A      0.165856  
     474A      0.166938   475A      0.167679   476A      0.168917  
     477A      0.169644   478A      0.169716   479A      0.171729  
     480A      0.172748   481A      0.173229   482A      0.173967  
     483A      0.174501   484A      0.177025   485A      0.177420  
     486A      0.177775   487A      0.178350   488A      0.178919  
     489A      0.180860   490A      0.183178   491A      0.184738  
     492A      0.185120   493A      0.186542   494A      0.187208  
     495A      0.188633   496A      0.189222   497A      0.190037  
     498A      0.190538   499A      0.191009   500A      0.194021  
     501A      0.195483   502A      0.195726   503A      0.196203  
     504A      0.197199   505A      0.198571   506A      0.198745  
     507A      0.200186   508A      0.202452   509A      0.202505  
     510A      0.204900   511A      0.206190   512A      0.207437  
     513A      0.207613   514A      0.209506   515A      0.210660  
     516A      0.211010   517A      0.212015   518A      0.213067  
     519A      0.213745   520A      0.215966   521A      0.215990  
     522A      0.216866   523A      0.218672   524A      0.219882  
     525A      0.221827   526A      0.222803   527A      0.223568  
     528A      0.223844   529A      0.224376   530A      0.225021  
     531A      0.226163   532A      0.226692   533A      0.227103  
     534A      0.228544   535A      0.231513   536A      0.232245  
     537A      0.233299   538A      0.233663   539A      0.233825  
     540A      0.234465   541A      0.236356   542A      0.238202  
     543A      0.239333   544A      0.239709   545A      0.240044  
     546A      0.240483   547A      0.242613   548A      0.243872  
     549A      0.244465   550A      0.247158   551A      0.247415  
     552A      0.249640   553A      0.252331   554A      0.252625  
     555A      0.253144   556A      0.253450   557A      0.253570  
     558A      0.255251   559A      0.258208   560A      0.258410  
     561A      0.259995   562A      0.260579   563A      0.261120  
     564A      0.261676   565A      0.262335   566A      0.262651  
     567A      0.265034   568A      0.265505   569A      0.266678  
     570A      0.266784   571A      0.267569   572A      0.268831  
     573A      0.270344   574A      0.270796   575A      0.271706  
     576A      0.274966   577A      0.275675   578A      0.275921  
     579A      0.276642   580A      0.278047   581A      0.278139  
     582A      0.278463   583A      0.278754   584A      0.279702  
     585A      0.280531   586A      0.281118   587A      0.281370  
     588A      0.281640   589A      0.283734   590A      0.284943  
     591A      0.287830   592A      0.288019   593A      0.288415  
     594A      0.291065   595A      0.291335   596A      0.291518  
     597A      0.292006   598A      0.292433   599A      0.293858  
     600A      0.294656   601A      0.295462   602A      0.295515  
     603A      0.297275   604A      0.297459   605A      0.300151  
     606A      0.301077   607A      0.301864   608A      0.303233  
     609A      0.306401   610A      0.307297   611A      0.307755  
     612A      0.308419   613A      0.309874   614A      0.310725  
     615A      0.311613   616A      0.313252   617A      0.313346  
     618A      0.314771   619A      0.315593   620A      0.315697  
     621A      0.317161   622A      0.317640   623A      0.319164  
     624A      0.321266   625A      0.322312   626A      0.323560  
     627A      0.324530   628A      0.325254   629A      0.326175  
     630A      0.326570   631A      0.327725   632A      0.328133  
     633A      0.328460   634A      0.330489   635A      0.331784  
     636A      0.331999   637A      0.335880   638A      0.337282  
     639A      0.337885   640A      0.338924   641A      0.339119  
     642A      0.339206   643A      0.339986   644A      0.340120  
     645A      0.340722   646A      0.341360   647A      0.341536  
     648A      0.342618   649A      0.343244   650A      0.343483  
     651A      0.344519   652A      0.345442   653A      0.346306  
     654A      0.346502   655A      0.347446   656A      0.349333  
     657A      0.349725   658A      0.350410   659A      0.350895  
     660A      0.352059   661A      0.353430   662A      0.353875  
     663A      0.354098   664A      0.355960   665A      0.356244  
     666A      0.357460   667A      0.358400   668A      0.359267  
     669A      0.359584   670A      0.360494   671A      0.360683  
     672A      0.361558   673A      0.362162   674A      0.362503  
     675A      0.364595   676A      0.366896   677A      0.368522  
     678A      0.369171   679A      0.370585   680A      0.371369  
     681A      0.373493   682A      0.373909   683A      0.374497  
     684A      0.374610   685A      0.375690   686A      0.376919  
     687A      0.377511   688A      0.378393   689A      0.378875  
     690A      0.379560   691A      0.380434   692A      0.381377  
     693A      0.383256   694A      0.383828   695A      0.384500  
     696A      0.384985   697A      0.388340   698A      0.388962  
     699A      0.389987   700A      0.394491   701A      0.395648  
     702A      0.396298   703A      0.396743   704A      0.397337  
     705A      0.397865   706A      0.399042   707A      0.400260  
     708A      0.400366   709A      0.401243   710A      0.401911  
     711A      0.402274   712A      0.403758   713A      0.404258  
     714A      0.405163   715A      0.406530   716A      0.408888  
     717A      0.410084   718A      0.410645   719A      0.410843  
     720A      0.411510   721A      0.412575   722A      0.413190  
     723A      0.415278   724A      0.415633   725A      0.418349  
     726A      0.418651   727A      0.419348   728A      0.419851  
     729A      0.420564   730A      0.420866   731A      0.421200  
     732A      0.421670   733A      0.422767   734A      0.423574  
     735A      0.425221   736A      0.426314   737A      0.427756  
     738A      0.430338   739A      0.430651   740A      0.433450  
     741A      0.436111   742A      0.436359   743A      0.437025  
     744A      0.437516   745A      0.439513   746A      0.439639  
     747A      0.440236   748A      0.441529   749A      0.442255  
     750A      0.443717   751A      0.446446   752A      0.447041  
     753A      0.448468   754A      0.448880   755A      0.449166  
     756A      0.450933   757A      0.451719   758A      0.454106  
     759A      0.456160   760A      0.458958   761A      0.459563  
     762A      0.460310   763A      0.460869   764A      0.461737  
     765A      0.463521   766A      0.463791   767A      0.465236  
     768A      0.466944   769A      0.468529   770A      0.469340  
     771A      0.470016   772A      0.470984   773A      0.474634  
     774A      0.475048   775A      0.476653   776A      0.476978  
     777A      0.478741   778A      0.482536   779A      0.482946  
     780A      0.484355   781A      0.484545   782A      0.485033  
     783A      0.487652   784A      0.489803   785A      0.492842  
     786A      0.495104   787A      0.503303   788A      0.504348  
     789A      0.505997   790A      0.507244   791A      0.507860  
     792A      0.508477   793A      0.509194   794A      0.511408  
     795A      0.512034   796A      0.512929   797A      0.514157  
     798A      0.515846   799A      0.516390   800A      0.517028  
     801A      0.519668   802A      0.520457   803A      0.521613  
     804A      0.522000   805A      0.522524   806A      0.523511  
     807A      0.525083   808A      0.526846   809A      0.528747  
     810A      0.531534   811A      0.533530   812A      0.533941  
     813A      0.535004   814A      0.536885   815A      0.537510  
     816A      0.539075   817A      0.539946   818A      0.541069  
     819A      0.542564   820A      0.547146   821A      0.547910  
     822A      0.548902   823A      0.550148   824A      0.550533  
     825A      0.554292   826A      0.560210   827A      0.562730  
     828A      0.563494   829A      0.564446   830A      0.564759  
     831A      0.572772   832A      0.573209   833A      0.573853  
     834A      0.575052   835A      0.583516   836A      0.584335  
     837A      0.585811   838A      0.590185   839A      0.591326  
     840A      0.598219   841A      0.598503   842A      0.599434  
     843A      0.602768   844A      0.603075   845A      0.603631  
     846A      0.603869   847A      0.609095   848A      0.610010  
     849A      0.611402   850A      0.614644   851A      0.623237  
     852A      0.628609   853A      0.629105   854A      0.629746  
     855A      0.629947   856A      0.632235   857A      0.633431  
     858A      0.634851   859A      0.635147   860A      0.638268  
     861A      0.639699   862A      0.642793   863A      0.643465  
     864A      0.643989   865A      0.645134   866A      0.649008  
     867A      0.649258   868A      0.653021   869A      0.661530  
     870A      0.664594   871A      0.667325   872A      0.673432  
     873A      0.676029   874A      0.676905   875A      0.682752  
     876A      0.684269   877A      0.686223   878A      0.687076  
     879A      0.687208   880A      0.688683   881A      0.690434  
     882A      0.693296   883A      0.693596   884A      0.696710  
     885A      0.697674   886A      0.699320   887A      0.706066  
     888A      0.715632   889A      0.718535   890A      0.726239  
     891A      0.727453   892A      0.730385   893A      0.731497  
     894A      0.733077   895A      0.735551   896A      0.736205  
     897A      0.738045   898A      0.740606   899A      0.743263  
     900A      0.744067   901A      0.746282   902A      0.748190  
     903A      0.750020   904A      0.750913   905A      0.753507  
     906A      0.755210   907A      0.756614   908A      0.757214  
     909A      0.759632   910A      0.761089   911A      0.763110  
     912A      0.764945   913A      0.767192   914A      0.769132  
     915A      0.771648   916A      0.772312   917A      0.773103  
     918A      0.775716   919A      0.776078   920A      0.780130  
     921A      0.780747   922A      0.782281   923A      0.784367  
     924A      0.785716   925A      0.790646   926A      0.791198  
     927A      0.791614   928A      0.793341   929A      0.794899  
     930A      0.798460   931A      0.798906   932A      0.800822  
     933A      0.802374   934A      0.804210   935A      0.806544  
     936A      0.807591   937A      0.808702   938A      0.811646  
     939A      0.813370   940A      0.814721   941A      0.814873  
     942A      0.817036   943A      0.818952   944A      0.820001  
     945A      0.820685   946A      0.821122   947A      0.822581  
     948A      0.825248   949A      0.827630   950A      0.829261  
     951A      0.830607   952A      0.832104   953A      0.833748  
     954A      0.834084   955A      0.835588   956A      0.836074  
     957A      0.837596   958A      0.840424   959A      0.841315  
     960A      0.844523   961A      0.845732   962A      0.848216  
     963A      0.851945   964A      0.852381   965A      0.853979  
     966A      0.855669   967A      0.856677   968A      0.861717  
     969A      0.862077   970A      0.863041   971A      0.863766  
     972A      0.864882   973A      0.866165   974A      0.866927  
     975A      0.867931   976A      0.869576   977A      0.872123  
     978A      0.872995   979A      0.874572   980A      0.876349  
     981A      0.877741   982A      0.878928   983A      0.879425  
     984A      0.881267   985A      0.882240   986A      0.884205  
     987A      0.887674   988A      0.888528   989A      0.889314  
     990A      0.891427   991A      0.892683   992A      0.893565  
     993A      0.896496   994A      0.897155   995A      0.897358  
     996A      0.898105   997A      0.898445   998A      0.899590  
     999A      0.900625  1000A      0.901109  1001A      0.901401  
    1002A      0.902503  1003A      0.908542  1004A      0.909482  
    1005A      0.911662  1006A      0.911809  1007A      0.912641  
    1008A      0.915402  1009A      0.915958  1010A      0.919119  
    1011A      0.920590  1012A      0.927350  1013A      0.928587  
    1014A      0.929591  1015A      0.929728  1016A      0.931176  
    1017A      0.934334  1018A      0.936608  1019A      0.938112  
    1020A      0.938511  1021A      0.939714  1022A      0.941787  
    1023A      0.946586  1024A      0.947101  1025A      0.947415  
    1026A      0.948802  1027A      0.950376  1028A      0.951892  
    1029A      0.952630  1030A      0.955002  1031A      0.957988  
    1032A      0.960592  1033A      0.961385  1034A      0.965605  
    1035A      0.966308  1036A      0.966516  1037A      0.967118  
    1038A      0.967487  1039A      0.974063  1040A      0.974914  
    1041A      0.976688  1042A      0.977596  1043A      0.980328  
    1044A      0.981143  1045A      0.986152  1046A      0.987105  
    1047A      0.989040  1048A      0.989190  1049A      0.990706  
    1050A      0.991776  1051A      0.992087  1052A      0.992455  
    1053A      0.993435  1054A      0.994053  1055A      0.996219  
    1056A      0.996594  1057A      0.997120  1058A      0.997783  
    1059A      1.001758  1060A      1.004331  1061A      1.005936  
    1062A      1.006649  1063A      1.006830  1064A      1.008061  
    1065A      1.009126  1066A      1.010132  1067A      1.011623  
    1068A      1.012737  1069A      1.013226  1070A      1.013681  
    1071A      1.014041  1072A      1.014715  1073A      1.015437  
    1074A      1.017259  1075A      1.017849  1076A      1.019003  
    1077A      1.019439  1078A      1.019641  1079A      1.020607  
    1080A      1.021194  1081A      1.022089  1082A      1.022222  
    1083A      1.022660  1084A      1.024637  1085A      1.025049  
    1086A      1.025599  1087A      1.026696  1088A      1.027881  
    1089A      1.028439  1090A      1.029056  1091A      1.029647  
    1092A      1.031521  1093A      1.032062  1094A      1.033446  
    1095A      1.033590  1096A      1.034756  1097A      1.035353  
    1098A      1.036305  1099A      1.037622  1100A      1.038533  
    1101A      1.039285  1102A      1.040955  1103A      1.042457  
    1104A      1.043120  1105A      1.044070  1106A      1.046424  
    1107A      1.046812  1108A      1.047513  1109A      1.048424  
    1110A      1.049045  1111A      1.052898  1112A      1.054458  
    1113A      1.055664  1114A      1.057345  1115A      1.060894  
    1116A      1.061257  1117A      1.063475  1118A      1.064245  
    1119A      1.065623  1120A      1.070503  1121A      1.071834  
    1122A      1.072252  1123A      1.075082  1124A      1.076644  
    1125A      1.076834  1126A      1.077610  1127A      1.079850  
    1128A      1.080928  1129A      1.082932  1130A      1.084535  
    1131A      1.086351  1132A      1.087897  1133A      1.088779  
    1134A      1.089270  1135A      1.091716  1136A      1.092692  
    1137A      1.093773  1138A      1.094480  1139A      1.095857  
    1140A      1.097660  1141A      1.099716  1142A      1.100671  
    1143A      1.102007  1144A      1.102363  1145A      1.107384  
    1146A      1.110395  1147A      1.111065  1148A      1.112561  
    1149A      1.113811  1150A      1.116442  1151A      1.119088  
    1152A      1.120453  1153A      1.124427  1154A      1.126559  
    1155A      1.129182  1156A      1.129665  1157A      1.132794  
    1158A      1.135735  1159A      1.137044  1160A      1.138602  
    1161A      1.143928  1162A      1.144951  1163A      1.145369  
    1164A      1.148219  1165A      1.148974  1166A      1.149985  
    1167A      1.152460  1168A      1.155929  1169A      1.156290  
    1170A      1.159758  1171A      1.160497  1172A      1.162060  
    1173A      1.162461  1174A      1.164919  1175A      1.166703  
    1176A      1.168784  1177A      1.170787  1178A      1.172366  
    1179A      1.172860  1180A      1.177426  1181A      1.178409  
    1182A      1.189782  1183A      1.190002  1184A      1.191081  
    1185A      1.191735  1186A      1.194039  1187A      1.195917  
    1188A      1.196833  1189A      1.200209  1190A      1.205656  
    1191A      1.205883  1192A      1.207233  1193A      1.208231  
    1194A      1.211869  1195A      1.215358  1196A      1.216058  
    1197A      1.219017  1198A      1.221283  1199A      1.229641  
    1200A      1.230144  1201A      1.234137  1202A      1.234955  
    1203A      1.235228  1204A      1.236547  1205A      1.238641  
    1206A      1.238832  1207A      1.241745  1208A      1.243819  
    1209A      1.248279  1210A      1.249149  1211A      1.250274  
    1212A      1.250366  1213A      1.251288  1214A      1.257491  
    1215A      1.257851  1216A      1.259151  1217A      1.263376  
    1218A      1.263578  1219A      1.264148  1220A      1.264913  
    1221A      1.265460  1222A      1.267877  1223A      1.271229  
    1224A      1.271795  1225A      1.275942  1226A      1.276552  
    1227A      1.278184  1228A      1.280574  1229A      1.281641  
    1230A      1.283191  1231A      1.283428  1232A      1.286489  
    1233A      1.295343  1234A      1.296692  1235A      1.298324  
    1236A      1.298718  1237A      1.299910  1238A      1.302293  
    1239A      1.303362  1240A      1.307716  1241A      1.308136  
    1242A      1.308521  1243A      1.313316  1244A      1.314421  
    1245A      1.315512  1246A      1.318100  1247A      1.318317  
    1248A      1.320394  1249A      1.330699  1250A      1.331388  
    1251A      1.333674  1252A      1.338071  1253A      1.338952  
    1254A      1.339360  1255A      1.339559  1256A      1.341556  
    1257A      1.346087  1258A      1.350866  1259A      1.351221  
    1260A      1.352256  1261A      1.354082  1262A      1.355237  
    1263A      1.356855  1264A      1.357536  1265A      1.358939  
    1266A      1.360079  1267A      1.364277  1268A      1.366670  
    1269A      1.367995  1270A      1.369377  1271A      1.371043  
    1272A      1.371427  1273A      1.371946  1274A      1.374983  
    1275A      1.376035  1276A      1.378909  1277A      1.380229  
    1278A      1.380499  1279A      1.380948  1280A      1.381160  
    1281A      1.385557  1282A      1.386571  1283A      1.387078  
    1284A      1.390149  1285A      1.390832  1286A      1.393685  
    1287A      1.394628  1288A      1.395500  1289A      1.396427  
    1290A      1.400394  1291A      1.404051  1292A      1.406262  
    1293A      1.412620  1294A      1.412898  1295A      1.414287  
    1296A      1.416526  1297A      1.416681  1298A      1.418446  
    1299A      1.418682  1300A      1.425404  1301A      1.428000  
    1302A      1.428624  1303A      1.429199  1304A      1.434018  
    1305A      1.438402  1306A      1.438935  1307A      1.443171  
    1308A      1.447035  1309A      1.448700  1310A      1.448937  
    1311A      1.461419  1312A      1.461849  1313A      1.468577  
    1314A      1.480224  1315A      1.483935  1316A      1.484403  
    1317A      1.487014  1318A      1.495234  1319A      1.495347  
    1320A      1.505046  1321A      1.517473  1322A      1.525321  
    1323A      1.531414  1324A      1.535226  1325A      1.540592  
    1326A      1.543821  1327A      1.545309  1328A      1.546087  
    1329A      1.546500  1330A      1.547599  1331A      1.549165  
    1332A      1.551946  1333A      1.552628  1334A      1.553174  
    1335A      1.554316  1336A      1.556138  1337A      1.556392  
    1338A      1.556806  1339A      1.557488  1340A      1.558716  
    1341A      1.560856  1342A      1.562071  1343A      1.564343  
    1344A      1.564624  1345A      1.567068  1346A      1.570104  
    1347A      1.570837  1348A      1.571570  1349A      1.572676  
    1350A      1.573805  1351A      1.577468  1352A      1.578091  
    1353A      1.579769  1354A      1.580336  1355A      1.580793  
    1356A      1.581344  1357A      1.582406  1358A      1.582675  
    1359A      1.586019  1360A      1.586488  1361A      1.587591  
    1362A      1.589912  1363A      1.593337  1364A      1.595481  
    1365A      1.595578  1366A      1.596074  1367A      1.599381  
    1368A      1.599659  1369A      1.603533  1370A      1.607547  
    1371A      1.608131  1372A      1.609941  1373A      1.610511  
    1374A      1.610827  1375A      1.611619  1376A      1.611859  
    1377A      1.612852  1378A      1.619456  1379A      1.619744  
    1380A      1.620494  1381A      1.621323  1382A      1.630885  
    1383A      1.631687  1384A      1.635855  1385A      1.638260  
    1386A      1.638461  1387A      1.639394  1388A      1.640065  
    1389A      1.641110  1390A      1.642917  1391A      1.652155  
    1392A      1.652388  1393A      1.652635  1394A      1.654647  
    1395A      1.656896  1396A      1.658966  1397A      1.659164  
    1398A      1.661987  1399A      1.663478  1400A      1.664385  
    1401A      1.664474  1402A      1.667180  1403A      1.668220  
    1404A      1.680766  1405A      1.680915  1406A      1.688744  
    1407A      1.690415  1408A      1.690495  1409A      1.693094  
    1410A      1.693940  1411A      1.697549  1412A      1.705839  
    1413A      1.707793  1414A      1.709051  1415A      1.711317  
    1416A      1.722641  1417A      1.724692  1418A      1.725355  
    1419A      1.730359  1420A      1.731051  1421A      1.731965  
    1422A      1.743826  1423A      1.744042  1424A      1.752200  
    1425A      1.761839  1426A      1.763569  1427A      1.765115  
    1428A      1.766678  1429A      1.769959  1430A      1.770715  
    1431A      1.771270  1432A      1.773179  1433A      1.774975  
    1434A      1.776003  1435A      1.776536  1436A      1.778169  
    1437A      1.779277  1438A      1.779486  1439A      1.779985  
    1440A      1.780331  1441A      1.785038  1442A      1.787411  
    1443A      1.793459  1444A      1.795010  1445A      1.801038  
    1446A      1.802033  1447A      1.803244  1448A      1.803433  
    1449A      1.805159  1450A      1.805390  1451A      1.807527  
    1452A      1.810126  1453A      1.813515  1454A      1.814152  
    1455A      1.816172  1456A      1.818157  1457A      1.818802  
    1458A      1.819784  1459A      1.824974  1460A      1.825861  
    1461A      1.826049  1462A      1.826638  1463A      1.827588  
    1464A      1.828020  1465A      1.828615  1466A      1.829277  
    1467A      1.831485  1468A      1.831841  1469A      1.841009  
    1470A      1.846771  1471A      1.847236  1472A      1.849004  
    1473A      1.850096  1474A      1.852522  1475A      1.854073  
    1476A      1.855242  1477A      1.858376  1478A      1.858408  
    1479A      1.860318  1480A      1.863615  1481A      1.864345  
    1482A      1.864701  1483A      1.866815  1484A      1.868001  
    1485A      1.868510  1486A      1.874575  1487A      1.877316  
    1488A      1.879672  1489A      1.880342  1490A      1.882502  
    1491A      1.883047  1492A      1.883514  1493A      1.884461  
    1494A      1.884968  1495A      1.887743  1496A      1.888015  
    1497A      1.890183  1498A      1.895572  1499A      1.896064  
    1500A      1.898034  1501A      1.898411  1502A      1.901237  
    1503A      1.902145  1504A      1.903981  1505A      1.904303  
    1506A      1.905521  1507A      1.909525  1508A      1.910461  
    1509A      1.912630  1510A      1.913497  1511A      1.914833  
    1512A      1.916110  1513A      1.917544  1514A      1.923358  
    1515A      1.923978  1516A      1.925190  1517A      1.927067  
    1518A      1.929465  1519A      1.933494  1520A      1.935844  
    1521A      1.936326  1522A      1.937220  1523A      1.938031  
    1524A      1.939086  1525A      1.950499  1526A      1.951337  
    1527A      1.953503  1528A      1.954734  1529A      1.955832  
    1530A      1.959393  1531A      1.960000  1532A      1.960850  
    1533A      1.961747  1534A      1.962881  1535A      1.963382  
    1536A      1.963852  1537A      1.965374  1538A      1.967778  
    1539A      1.970734  1540A      1.973552  1541A      1.976020  
    1542A      1.977709  1543A      1.978330  1544A      1.980789  
    1545A      1.983357  1546A      1.985970  1547A      1.986514  
    1548A      1.990588  1549A      1.992668  1550A      1.996085  
    1551A      1.996875  1552A      1.998320  1553A      1.999939  
    1554A      2.000839  1555A      2.001750  1556A      2.002991  
    1557A      2.003655  1558A      2.006035  1559A      2.010422  
    1560A      2.011554  1561A      2.013283  1562A      2.013519  
    1563A      2.019356  1564A      2.021565  1565A      2.023166  
    1566A      2.024034  1567A      2.024318  1568A      2.025020  
    1569A      2.025929  1570A      2.027099  1571A      2.027739  
    1572A      2.029707  1573A      2.031000  1574A      2.032202  
    1575A      2.033236  1576A      2.034061  1577A      2.034687  
    1578A      2.035772  1579A      2.036751  1580A      2.037907  
    1581A      2.039609  1582A      2.040419  1583A      2.040819  
    1584A      2.041988  1585A      2.044235  1586A      2.045106  
    1587A      2.045486  1588A      2.046680  1589A      2.050788  
    1590A      2.054713  1591A      2.054927  1592A      2.055938  
    1593A      2.056109  1594A      2.056958  1595A      2.058680  
    1596A      2.061307  1597A      2.061490  1598A      2.062231  
    1599A      2.066979  1600A      2.070526  1601A      2.071033  
    1602A      2.071481  1603A      2.071838  1604A      2.072002  
    1605A      2.072348  1606A      2.074712  1607A      2.074896  
    1608A      2.079807  1609A      2.080451  1610A      2.081075  
    1611A      2.082508  1612A      2.084816  1613A      2.085810  
    1614A      2.087804  1615A      2.088536  1616A      2.088714  
    1617A      2.097588  1618A      2.097992  1619A      2.099322  
    1620A      2.100658  1621A      2.101800  1622A      2.102536  
    1623A      2.102731  1624A      2.103703  1625A      2.106793  
    1626A      2.107279  1627A      2.110348  1628A      2.114541  
    1629A      2.114834  1630A      2.122594  1631A      2.123753  
    1632A      2.124465  1633A      2.125544  1634A      2.128616  
    1635A      2.131446  1636A      2.132162  1637A      2.132302  
    1638A      2.132835  1639A      2.135634  1640A      2.136571  
    1641A      2.138913  1642A      2.139973  1643A      2.141864  
    1644A      2.142088  1645A      2.143882  1646A      2.144665  
    1647A      2.147554  1648A      2.148858  1649A      2.149554  
    1650A      2.153215  1651A      2.156791  1652A      2.156963  
    1653A      2.161949  1654A      2.165780  1655A      2.166021  
    1656A      2.166791  1657A      2.166963  1658A      2.168385  
    1659A      2.169397  1660A      2.171714  1661A      2.175328  
    1662A      2.177687  1663A      2.177991  1664A      2.179087  
    1665A      2.180194  1666A      2.180650  1667A      2.180878  
    1668A      2.185508  1669A      2.190292  1670A      2.192096  
    1671A      2.192278  1672A      2.193117  1673A      2.198618  
    1674A      2.206268  1675A      2.207899  1676A      2.208314  
    1677A      2.209857  1678A      2.211260  1679A      2.215371  
    1680A      2.218455  1681A      2.226311  1682A      2.227130  
    1683A      2.230371  1684A      2.234772  1685A      2.235420  
    1686A      2.238131  1687A      2.240686  1688A      2.247338  
    1689A      2.247797  1690A      2.249973  1691A      2.252118  
    1692A      2.258902  1693A      2.266017  1694A      2.268053  
    1695A      2.268140  1696A      2.270002  1697A      2.271921  
    1698A      2.273829  1699A      2.274255  1700A      2.274810  
    1701A      2.276427  1702A      2.277350  1703A      2.279941  
    1704A      2.281804  1705A      2.284377  1706A      2.284999  
    1707A      2.285200  1708A      2.286921  1709A      2.287509  
    1710A      2.288252  1711A      2.290628  1712A      2.291003  
    1713A      2.308295  1714A      2.313094  1715A      2.313594  
    1716A      2.325805  1717A      2.327770  1718A      2.330683  
    1719A      2.332396  1720A      2.334165  1721A      2.335709  
    1722A      2.338761  1723A      2.352643  1724A      2.361233  
    1725A      2.362257  1726A      2.362930  1727A      2.366111  
    1728A      2.370537  1729A      2.373859  1730A      2.385278  
    1731A      2.386588  1732A      2.394526  1733A      2.395059  
    1734A      2.407548  1735A      2.407673  1736A      2.410999  
    1737A      2.411217  1738A      2.415243  1739A      2.415554  
    1740A      2.435288  1741A      2.435695  1742A      2.436676  
    1743A      2.445853  1744A      2.450972  1745A      2.452197  
    1746A      2.455252  1747A      2.460699  1748A      2.464138  
    1749A      2.481342  1750A      2.482017  1751A      2.483650  
    1752A      2.485763  1753A      2.486167  1754A      2.487198  
    1755A      2.487906  1756A      2.490837  1757A      2.492203  
    1758A      2.493867  1759A      2.494763  1760A      2.497548  
    1761A      2.497845  1762A      2.506742  1763A      2.514255  
    1764A      2.516465  1765A      2.525168  1766A      2.528320  
    1767A      2.528519  1768A      2.529650  1769A      2.529775  
    1770A      2.530383  1771A      2.534018  1772A      2.534378  
    1773A      2.536294  1774A      2.539510  1775A      2.544975  
    1776A      2.545117  1777A      2.556316  1778A      2.556999  
    1779A      2.557321  1780A      2.557373  1781A      2.561328  
    1782A      2.561738  1783A      2.575721  1784A      2.583207  
    1785A      2.584420  1786A      2.586505  1787A      2.587955  
    1788A      2.590779  1789A      2.591532  1790A      2.592102  
    1791A      2.597678  1792A      2.599821  1793A      2.600339  
    1794A      2.600995  1795A      2.606970  1796A      2.608177  
    1797A      2.612088  1798A      2.614637  1799A      2.615132  
    1800A      2.615704  1801A      2.621636  1802A      2.622507  
    1803A      2.627854  1804A      2.628180  1805A      2.629477  
    1806A      2.632491  1807A      2.633758  1808A      2.634222  
    1809A      2.634750  1810A      2.635460  1811A      2.638649  
    1812A      2.640066  1813A      2.646621  1814A      2.664185  
    1815A      2.667758  1816A      2.673952  1817A      2.674131  
    1818A      2.674954  1819A      2.676171  1820A      2.676603  
    1821A      2.686877  1822A      2.695650  1823A      2.700459  
    1824A      2.701892  1825A      2.703440  1826A      2.708694  
    1827A      2.713466  1828A      2.716438  1829A      2.720661  
    1830A      2.722412  1831A      2.725243  1832A      2.740186  
    1833A      2.740683  1834A      2.741167  1835A      2.743536  
    1836A      2.743762  1837A      2.743918  1838A      2.751884  
    1839A      2.754199  1840A      2.755987  1841A      2.756544  
    1842A      2.758583  1843A      2.759550  1844A      2.768236  
    1845A      2.769481  1846A      2.770607  1847A      2.777411  
    1848A      2.782244  1849A      2.784200  1850A      2.785590  
    1851A      2.786243  1852A      2.788786  1853A      2.802730  
    1854A      2.807362  1855A      2.807637  1856A      2.814083  
    1857A      2.814985  1858A      2.816930  1859A      2.817980  
    1860A      2.835673  1861A      2.836600  1862A      2.855371  
    1863A      2.862376  1864A      2.862829  1865A      2.872274  
    1866A      2.874837  1867A      2.879506  1868A      2.879578  
    1869A      2.906929  1870A      2.909436  1871A      2.909997  
    1872A      2.920567  1873A      2.936519  1874A      2.937766  
    1875A      2.956877  1876A      2.972091  1877A      2.972633  
    1878A      2.980233  1879A      2.983644  1880A      2.989941  
    1881A      2.990910  1882A      2.992738  1883A      2.999679  
    1884A      2.999981  1885A      3.005514  1886A      3.009953  
    1887A      3.015582  1888A      3.053285  1889A      3.057594  
    1890A      3.057869  1891A      3.065892  1892A      3.066467  
    1893A      3.070968  1894A      3.071394  1895A      3.076091  
    1896A      3.077777  1897A      3.083303  1898A      3.086350  
    1899A      3.087543  1900A      3.092076  1901A      3.092652  
    1902A      3.093575  1903A      3.094548  1904A      3.098297  
    1905A      3.107157  1906A      3.108692  1907A      3.117752  
    1908A      3.119980  1909A      3.120233  1910A      3.137721  
    1911A      3.138590  1912A      3.165119  1913A      3.196235  
    1914A      3.203824  1915A      3.204014  1916A      3.204847  
    1917A      3.205566  1918A      3.207887  1919A      3.211805  
    1920A      3.215040  1921A      3.218693  1922A      3.219019  
    1923A      3.237926  1924A      3.240976  1925A      3.241384  
    1926A      3.247984  1927A      3.302885  1928A      3.304106  
    1929A      3.311689  1930A      3.357221  1931A      3.370689  
    1932A      3.373515  1933A      3.375069  1934A      3.387598  
    1935A      3.391228  1936A      3.402666  1937A      3.406057  
    1938A      3.406816  1939A      3.412437  1940A      3.415590  
    1941A      3.423350  1942A      3.427592  1943A      3.435855  
    1944A      3.450286  1945A      3.465728  1946A      3.480874  
    1947A      3.515828  1948A      3.517594  1949A      3.525696  
    1950A      3.532847  1951A      3.554885  1952A      3.585374  
    1953A      3.586175  1954A      3.607177  1955A      3.609768  
    1956A      3.646813  1957A      3.688769  1958A      3.692466  
    1959A      3.693509  1960A      3.703391  1961A      3.720726  
    1962A      3.721958  1963A      3.785225  1964A      3.786028  
    1965A      3.814416  1966A      3.817270  1967A      3.847399  
    1968A      3.856091  1969A      3.878696  1970A      3.881338  
    1971A      3.890730  1972A      3.891982  1973A      3.900980  
    1974A      3.904933  1975A      3.912549  1976A      3.965446  
    1977A      3.967852  1978A      4.011862  1979A      4.169946  
    1980A      4.241638  1981A      4.334110  

    Final Occupation by Irrep:
              A 
    DOCC [   326 ]
    NA   [   326 ]
    NB   [   326 ]

  @DF-RHF Final Energy: -3953.65126526109725

   => Energetics <=

    Nuclear Repulsion Energy =          17959.5646921021179878
    One-Electron Energy =              -41128.1165387094588368
    Two-Electron Energy =               19214.9005813462426886
    Total Energy =                      -3953.6512652610981604

Computation Completed


Properties will be evaluated at   0.000000,   0.000000,   0.000000 [a0]

Properties computed using the SCF density matrix


 Multipole Moments:

 ------------------------------------------------------------------------------------
     Multipole            Electronic (a.u.)      Nuclear  (a.u.)        Total (a.u.)
 ------------------------------------------------------------------------------------

 L = 1.  Multiply by 2.5417464519 to convert [e a0] to [Debye]
 Dipole X            :          0.0017422            0.0004804            0.0022226
 Dipole Y            :         -1.5687700            1.8866171            0.3178471
 Dipole Z            :        -25.4292388           33.9533783            8.5241395
 Magnitude           :                                                    8.5300637

 ------------------------------------------------------------------------------------

*** tstop() called on n2cn0668 at Sat Jan 27 00:25:13 2024
Module time:
	user time   =   30252.14 seconds =     504.20 minutes
	system time =    2493.57 seconds =      41.56 minutes
	total time  =       3872 seconds =      64.53 minutes
Total time:
	user time   =   30252.14 seconds =     504.20 minutes
	system time =    2493.57 seconds =      41.56 minutes
	total time  =       3872 seconds =      64.53 minutes

  //>>>>>>>>>>>>>>>>>>>>>>>>>>>>>>>>>>>//
  //            Monomer A HF           //
  //<<<<<<<<<<<<<<<<<<<<<<<<<<<<<<<<<<<//

   => Libint2 <=

    Primary   basis highest AM E, G, H:  5, 4, 3
    Auxiliary basis highest AM E, G, H:  6, 5, 4
    Onebody   basis highest AM E, G, H:  6, 5, 4
    Solid Harmonics ordering:            gaussian

*** tstart() called on n2cn0668
*** at Sat Jan 27 00:25:13 2024

   => Loading Basis Set <=

    Name: JUN-CC-PVDZ
    Role: ORBITAL
    Keyword: BASIS
    atoms 1-2, 4-5, 10, 17-34, 41-53, 56-70, 73-89, 92-104, 109-119, 122-130 entry C          line   164 file /opt/software/pc2/EB-SW/software/PSI4/1.9-foss-2022a/share/psi4/basis/jun-cc-pvdz.gbs 
    atoms 3, 6                                                               entry N          line   198 file /opt/software/pc2/EB-SW/software/PSI4/1.9-foss-2022a/share/psi4/basis/jun-cc-pvdz.gbs 
    atoms 7-9, 11-16, 35-40, 54-55, 71-72, 90-91, 105-108, 120-121, 131-136  entry H          line    36 file /opt/software/pc2/EB-SW/software/PSI4/1.9-foss-2022a/share/psi4/basis/jun-cc-pvdz.gbs 


         ---------------------------------------------------------
                                   SCF
               by Justin Turney, Rob Parrish, Andy Simmonett
                          and Daniel G. A. Smith
                              RHF Reference
                       16 Threads,  61035 MiB Core
         ---------------------------------------------------------

  ==> Geometry <==

    Molecular point group: c1
    Full point group: C1

    Geometry (in Angstrom), charge = 1, multiplicity = 1:

       Center              X                  Y                   Z               Mass       
    ------------   -----------------  -----------------  -----------------  -----------------
         C            0.680062820275    -1.215917226251     5.181082145675    12.000000000000
         C           -0.680508179725    -1.215533226251     5.179054145675    12.000000000000
         N           -1.085639179725     0.102790773749     5.178056145675    14.003074004430
[...]
    1579A      2.164858  1580A      2.169305  1581A      2.172237  
    1582A      2.173836  1583A      2.179991  1584A      2.180924  
    1585A      2.182570  1586A      2.183126  1587A      2.189015  
    1588A      2.190135  1589A      2.191529  1590A      2.191963  
    1591A      2.194771  1592A      2.195010  1593A      2.197639  
    1594A      2.197748  1595A      2.200307  1596A      2.200895  
    1597A      2.201149  1598A      2.202116  1599A      2.203202  
    1600A      2.204725  1601A      2.205794  1602A      2.206392  
    1603A      2.209976  1604A      2.214147  1605A      2.214957  
    1606A      2.220258  1607A      2.222443  1608A      2.222714  
    1609A      2.222943  1610A      2.224929  1611A      2.225457  
    1612A      2.226827  1613A      2.228841  1614A      2.232192  
    1615A      2.232485  1616A      2.233721  1617A      2.238725  
    1618A      2.239146  1619A      2.239419  1620A      2.241036  
    1621A      2.242498  1622A      2.247740  1623A      2.247984  
    1624A      2.249331  1625A      2.253531  1626A      2.258663  
    1627A      2.262682  1628A      2.263807  1629A      2.264023  
    1630A      2.266311  1631A      2.268214  1632A      2.270112  
    1633A      2.277840  1634A      2.283111  1635A      2.284432  
    1636A      2.285298  1637A      2.290270  1638A      2.291219  
    1639A      2.296162  1640A      2.296905  1641A      2.298172  
    1642A      2.304161  1643A      2.304477  1644A      2.309232  
    1645A      2.314613  1646A      2.320458  1647A      2.324826  
    1648A      2.325064  1649A      2.325441  1650A      2.326571  
    1651A      2.329149  1652A      2.330093  1653A      2.331166  
    1654A      2.331460  1655A      2.333203  1656A      2.335185  
    1657A      2.336457  1658A      2.340084  1659A      2.341742  
    1660A      2.342448  1661A      2.342457  1662A      2.344556  
    1663A      2.345087  1664A      2.345947  1665A      2.346420  
    1666A      2.349187  1667A      2.349610  1668A      2.355467  
    1669A      2.368571  1670A      2.372935  1671A      2.374082  
    1672A      2.378020  1673A      2.384078  1674A      2.388319  
    1675A      2.391359  1676A      2.392558  1677A      2.395151  
    1678A      2.397915  1679A      2.408222  1680A      2.418583  
    1681A      2.420146  1682A      2.424072  1683A      2.427687  
    1684A      2.432479  1685A      2.442417  1686A      2.443723  
    1687A      2.452859  1688A      2.453156  1689A      2.464410  
    1690A      2.464651  1691A      2.467446  1692A      2.467814  
    1693A      2.468592  1694A      2.471939  1695A      2.472052  
    1696A      2.472274  1697A      2.481567  1698A      2.491402  
    1699A      2.491628  1700A      2.495309  1701A      2.500619  
    1702A      2.502311  1703A      2.504485  1704A      2.507259  
    1705A      2.508054  1706A      2.511656  1707A      2.516204  
    1708A      2.532171  1709A      2.539477  1710A      2.540094  
    1711A      2.540614  1712A      2.542772  1713A      2.543302  
    1714A      2.545726  1715A      2.547975  1716A      2.549031  
    1717A      2.549552  1718A      2.551686  1719A      2.556691  
    1720A      2.556881  1721A      2.564408  1722A      2.571359  
    1723A      2.571862  1724A      2.580171  1725A      2.584125  
    1726A      2.584412  1727A      2.585112  1728A      2.586296  
    1729A      2.588183  1730A      2.589042  1731A      2.592593  
    1732A      2.593258  1733A      2.593914  1734A      2.601498  
    1735A      2.601669  1736A      2.613129  1737A      2.613646  
    1738A      2.614036  1739A      2.614166  1740A      2.618266  
    1741A      2.618636  1742A      2.633113  1743A      2.640763  
    1744A      2.641874  1745A      2.643689  1746A      2.645486  
    1747A      2.647693  1748A      2.648539  1749A      2.649344  
    1750A      2.652574  1751A      2.653686  1752A      2.656252  
    1753A      2.656838  1754A      2.664458  1755A      2.666181  
    1756A      2.666384  1757A      2.667719  1758A      2.669931  
    1759A      2.670765  1760A      2.671426  1761A      2.674003  
    1762A      2.677208  1763A      2.678353  1764A      2.683492  
    1765A      2.685444  1766A      2.686550  1767A      2.687426  
    1768A      2.691429  1769A      2.691660  1770A      2.692003  
    1771A      2.692862  1772A      2.696255  1773A      2.697490  
    1774A      2.704623  1775A      2.708810  1776A      2.721046  
    1777A      2.730805  1778A      2.731168  1779A      2.731731  
    1780A      2.732032  1781A      2.732369  1782A      2.752383  
    1783A      2.752998  1784A      2.761091  1785A      2.761630  
    1786A      2.770670  1787A      2.773543  1788A      2.776221  
    1789A      2.780100  1790A      2.781018  1791A      2.789370  
    1792A      2.799635  1793A      2.799965  1794A      2.802291  
    1795A      2.802309  1796A      2.802741  1797A      2.811747  
    1798A      2.814582  1799A      2.815319  1800A      2.815943  
    1801A      2.816961  1802A      2.817718  1803A      2.828615  
    1804A      2.829420  1805A      2.838787  1806A      2.840234  
    1807A      2.842080  1808A      2.842969  1809A      2.844743  
    1810A      2.847121  1811A      2.855324  1812A      2.863425  
    1813A      2.865655  1814A      2.866360  1815A      2.871094  
    1816A      2.872148  1817A      2.875944  1818A      2.891970  
    1819A      2.896018  1820A      2.896904  1821A      2.910267  
    1822A      2.916179  1823A      2.917671  1824A      2.918385  
    1825A      2.927574  1826A      2.930168  1827A      2.934515  
    1828A      2.935689  1829A      2.936220  1830A      2.938877  
    1831A      2.963634  1832A      2.964387  1833A      2.965908  
    1834A      2.967100  1835A      2.976925  1836A      2.992802  
    1837A      2.993921  1838A      3.001171  1839A      3.029729  
    1840A      3.030222  1841A      3.032778  1842A      3.036951  
    1843A      3.039812  1844A      3.046275  1845A      3.047315  
    1846A      3.048411  1847A      3.049352  1848A      3.057895  
    1849A      3.058057  1850A      3.064205  1851A      3.072990  
    1852A      3.080238  1853A      3.108866  1854A      3.113364  
    1855A      3.113661  1856A      3.122994  1857A      3.128146  
    1858A      3.128696  1859A      3.133328  1860A      3.134512  
    1861A      3.142627  1862A      3.143438  1863A      3.148993  
    1864A      3.149602  1865A      3.150068  1866A      3.150989  
    1867A      3.153846  1868A      3.162386  1869A      3.167992  
    1870A      3.170857  1871A      3.173296  1872A      3.175617  
    1873A      3.176521  1874A      3.193488  1875A      3.194355  
    1876A      3.220355  1877A      3.252964  1878A      3.259853  
    1879A      3.262077  1880A      3.262114  1881A      3.262587  
    1882A      3.264876  1883A      3.268569  1884A      3.271767  
    1885A      3.275392  1886A      3.275922  1887A      3.294080  
    1888A      3.296778  1889A      3.298995  1890A      3.299721  
    1891A      3.305278  1892A      3.319491  1893A      3.333049  
    1894A      3.361564  1895A      3.362818  1896A      3.370707  
    1897A      3.415019  1898A      3.419238  1899A      3.430633  
    1900A      3.433994  1901A      3.437052  1902A      3.448316  
    1903A      3.452173  1904A      3.463115  1905A      3.465186  
    1906A      3.466703  1907A      3.471674  1908A      3.474757  
    1909A      3.482781  1910A      3.488072  1911A      3.495748  
    1912A      3.509416  1913A      3.531577  1914A      3.540772  
    1915A      3.574651  1916A      3.576402  1917A      3.584351  
    1918A      3.586182  1919A      3.590240  1920A      3.643942  
    1921A      3.644893  1922A      3.649399  1923A      3.665586  
    1924A      3.667829  1925A      3.705514  1926A      3.748597  
    1927A      3.749670  1928A      3.751431  1929A      3.761694  
    1930A      3.763478  1931A      3.778897  1932A      3.780840  
    1933A      3.822063  1934A      3.842334  1935A      3.843662  
    1936A      3.871762  1937A      3.872172  1938A      3.874837  
    1939A      3.905355  1940A      3.914555  1941A      3.938681  
    1942A      3.941833  1943A      3.948528  1944A      3.949535  
    1945A      3.959811  1946A      3.963981  1947A      3.966606  
    1948A      3.972716  1949A      4.024789  1950A      4.027552  
    1951A      4.072438  1952A      4.218734  1953A      4.220807  
    1954A      4.232753  1955A      4.303576  1956A      4.379449  
    1957A      4.394612  1958A      4.408146  1959A      4.498820  
    1960A      4.745290  1961A      4.789458  1962A      4.840568  
    1963A      4.862315  1964A      4.948909  1965A      5.058260  
    1966A      5.066587  1967A      5.074390  1968A      5.120304  
    1969A      5.135625  1970A      5.395463  1971A      5.428128  
    1972A      5.745394  1973A      5.757145  1974A      6.071463  
    1975A     18.207636  1976A     18.459981  1977A     18.478352  
    1978A     18.566259  1979A     18.844311  1980A     25.349890  
    1981A     25.382972  

    Final Occupation by Irrep:
              A 
    DOCC [   300 ]
    NA   [   300 ]
    NB   [   300 ]

  @DF-RHF Final Energy: -3650.33877448740077

   => Energetics <=

    Nuclear Repulsion Energy =          15611.4211649754324753
    One-Electron Energy =              -36072.1182946855915361
    Two-Electron Energy =               16810.3583552227573819
    Total Energy =                      -3650.3387744874016789

Computation Completed


Properties will be evaluated at   0.000000,   0.000000,   0.000000 [a0]

Properties computed using the SCF density matrix


 Multipole Moments:

 ------------------------------------------------------------------------------------
     Multipole            Electronic (a.u.)      Nuclear  (a.u.)        Total (a.u.)
 ------------------------------------------------------------------------------------

 L = 1.  Multiply by 2.5417464519 to convert [e a0] to [Debye]
 Dipole X            :         -0.0010088            0.0002112           -0.0007976
 Dipole Y            :          0.0042526           -0.0044281           -0.0001755
 Dipole Z            :        484.0870868         -484.0989228           -0.0118360
 Magnitude           :                                                    0.0118642

 ------------------------------------------------------------------------------------

*** tstop() called on n2cn0668 at Sat Jan 27 01:47:00 2024
Module time:
	user time   =   20833.90 seconds =     347.23 minutes
	system time =    1422.83 seconds =      23.71 minutes
	total time  =       3055 seconds =      50.92 minutes
Total time:
	user time   =   57260.59 seconds =     954.34 minutes
	system time =    4394.94 seconds =      73.25 minutes
	total time  =       8779 seconds =     146.32 minutes
  Constructing Basis Sets for SAPT...

   => Loading Basis Set <=

    Name: (JUN-CC-PVDZ AUX)
    Role: RIFIT
    Keyword: DF_BASIS_SAPT
    atoms 1-2, 4-5, 10, 17-34, 41-53, 56-70, 73-89, 92-104, 109-119, 122-130 entry C          line   100 file /opt/software/pc2/EB-SW/software/PSI4/1.9-foss-2022a/share/psi4/basis/jun-cc-pvdz-ri.gbs 
    atoms 3, 6                                                               entry N          line   144 file /opt/software/pc2/EB-SW/software/PSI4/1.9-foss-2022a/share/psi4/basis/jun-cc-pvdz-ri.gbs 
    atoms 7-9, 11-16, 35-40, 54-55, 71-72, 90-91, 105-108, 120-121, 131-136  entry H          line    30 file /opt/software/pc2/EB-SW/software/PSI4/1.9-foss-2022a/share/psi4/basis/jun-cc-pvdz-ri.gbs 

   => Loading Basis Set <=

    Name: (JUN-CC-PVDZ AUX)
    Role: JKFIT
    Keyword: DF_BASIS_ELST
    atoms 1-2, 4-5, 10, 17-34, 41-53, 56-70, 73-89, 92-104, 109-119, 122-130 entry C          line   146 file /opt/software/pc2/EB-SW/software/PSI4/1.9-foss-2022a/share/psi4/basis/jun-cc-pvdz-jkfit.gbs 
    atoms 3, 6                                                               entry N          line   202 file /opt/software/pc2/EB-SW/software/PSI4/1.9-foss-2022a/share/psi4/basis/jun-cc-pvdz-jkfit.gbs 
    atoms 7-9, 11-16, 35-40, 54-55, 71-72, 90-91, 105-108, 120-121, 131-136  entry H          line    70 file /opt/software/pc2/EB-SW/software/PSI4/1.9-foss-2022a/share/psi4/basis/jun-cc-pvdz-jkfit.gbs 


  //>>>>>>>>>>>>>>>>>>>>>>>>>>>>>>>>>>>//
  //               SSAPT0              //
  //<<<<<<<<<<<<<<<<<<<<<<<<<<<<<<<<<<<//


*** tstart() called on n2cn0668
*** at Sat Jan 27 01:47:01 2024

        SAPT0  
    Ed Hohenstein
     6 June 2009

      Orbital Information
  --------------------------
    NSO        =      2019
    NMO        =      1981
    NRI        =      7157
    NRI (Elst) =      8896
    NOCC A     =        26
    NOCC B     =       300
    FOCC A     =         7
    FOCC B     =        96
    NVIR A     =      1955
    NVIR B     =      1681

    Elst10,r            =    -0.010076689031 [Eh]
    Exch10              =     0.000008131935 [Eh]
    Exch10 (S^2)        =     0.000008131923 [Eh]

    Iter     Energy [mEh]          dE [mEh]         Residual      Time [s]
       1      -0.01645251       0.016452514       1.063106359           199
       2      -0.01522002      -0.001232494       0.223809418           395
       3      -0.01638539       0.001165370       0.034559438           601
       4      -0.01635636      -0.000029029       0.014519521           814
       5      -0.01634126      -0.000015097       0.002859862          1052
       6      -0.01634241       0.000001149       0.001262348          1234
       7      -0.01634306       0.000000646       0.000503578          1415
       8      -0.01634298      -0.000000076       0.000205512          1606
       9      -0.01634291      -0.000000076       0.000075242          1832
      10      -0.01634291      -0.000000001       0.000018299          2101
      11      -0.01634292       0.000000009       0.000006029          2268
      12      -0.01634292       0.000000000       0.000001977          2454
      13      -0.01634291      -0.000000001       0.000000777          2639

    CHF Iterations converged


    Iter     Energy [mEh]          dE [mEh]         Residual      Time [s]
       1      -7.24368667       7.243686667      46.551538601           231
       2      -4.66167074      -2.582015925       5.469356925           442
       3      -4.64041237      -0.021258377       1.848677485           653
       4      -4.72376707       0.083354704       0.584688042           887
       5      -4.73518933       0.011422261       0.204803554          1146
       6      -4.73429554      -0.000893794       0.137718174          1398
       7      -4.73169784      -0.002597694       0.060997184          1634
       8      -4.73189760       0.000199754       0.035189021          2017
       9      -4.73254284       0.000645246       0.022255101          2269
      10      -4.73236864      -0.000174206       0.017122555          2513
      11      -4.73225207      -0.000116563       0.007274361          2787
      12      -4.73225356       0.000001487       0.003538534          3067
      13      -4.73227882       0.000025261       0.001558153          3355
      14      -4.73228638       0.000007560       0.000834155          3658
      15      -4.73228231      -0.000004072       0.000559127          3918
      16      -4.73227761      -0.000004696       0.000235854          4235
      17      -4.73228003       0.000002420       0.000089986          4507
      18      -4.73228050       0.000000463       0.000036969          4796
      19      -4.73228027      -0.000000225       0.000024392          5089
      20      -4.73228011      -0.000000162       0.000010937          5375
      21      -4.73228017       0.000000058       0.000005101          5673
      22      -4.73228019       0.000000026       0.000002126          5981
      23      -4.73228019      -0.000000005       0.000000774          6319

    CHF Iterations converged

    Ind20,r (A<-B)      =    -0.000016342914 [Eh]
    Ind20,r (B<-A)      =    -0.004732280189 [Eh]
    Ind20,r             =    -0.004748623103 [Eh]
    Exch-Ind20,r (A<-B) =     0.000000986747 [Eh]
    Exch-Ind20,r (B<-A) =     0.000003113817 [Eh]
    Exch-Ind20,r        =     0.000004100564 [Eh]
    Disp20              =    -0.004077698597 [Eh]
    Disp20 (SS)         =    -0.002038849298 [Eh]
    Disp20 (OS)         =    -0.002038849298 [Eh]
    Exch-Disp20         =     0.000003921850 [Eh]
    Exch-Disp20 (SS)    =     0.000002810576 [Eh]
    Exch-Disp20 (OS)    =     0.000001111275 [Eh]

    SAPT Results 
  --------------------------------------------------------------------------------------------------------
    Electrostatics                -10.07668903 [mEh]      -6.32321783 [kcal/mol]     -26.45634341 [kJ/mol]
      Elst10,r                    -10.07668903 [mEh]      -6.32321783 [kcal/mol]     -26.45634341 [kJ/mol]

    Exchange                        0.00813194 [mEh]       0.00510287 [kcal/mol]       0.02135039 [kJ/mol]
      Exch10                        0.00813194 [mEh]       0.00510287 [kcal/mol]       0.02135039 [kJ/mol]
      Exch10(S^2)                   0.00813192 [mEh]       0.00510286 [kcal/mol]       0.02135036 [kJ/mol]

    Induction                      -4.85080399 [mEh]      -3.04392546 [kcal/mol]     -12.73578413 [kJ/mol]
      Ind20,r                      -4.74862310 [mEh]      -2.97980598 [kcal/mol]     -12.46750824 [kJ/mol]
      Exch-Ind20,r                  0.00410056 [mEh]       0.00257314 [kcal/mol]       0.01076603 [kJ/mol]
      delta HF,r (2)               -0.10628145 [mEh]      -0.06669262 [kcal/mol]      -0.27904192 [kJ/mol]

    Dispersion                     -4.07377675 [mEh]      -2.55633350 [kcal/mol]     -10.69569937 [kJ/mol]
      Disp20                       -4.07769860 [mEh]      -2.55879450 [kcal/mol]     -10.70599619 [kJ/mol]
      Exch-Disp20                   0.00392185 [mEh]       0.00246100 [kcal/mol]       0.01029682 [kJ/mol]
      Disp20 (SS)                  -2.03884930 [mEh]      -1.27939725 [kcal/mol]      -5.35299810 [kJ/mol]
      Disp20 (OS)                  -2.03884930 [mEh]      -1.27939725 [kcal/mol]      -5.35299810 [kJ/mol]
      Exch-Disp20 (SS)              0.00281058 [mEh]       0.00176366 [kcal/mol]       0.00737917 [kJ/mol]
      Exch-Disp20 (OS)              0.00111127 [mEh]       0.00069734 [kcal/mol]       0.00291765 [kJ/mol]

  Total HF                        -14.91936109 [mEh]      -9.36204043 [kcal/mol]     -39.17077714 [kJ/mol]
  Total SAPT0                     -18.99313784 [mEh]     -11.91837393 [kcal/mol]     -49.86647652 [kJ/mol]

  Special recipe for scaled SAPT0 (see Manual):
    Electrostatics sSAPT0         -10.07668903 [mEh]      -6.32321783 [kcal/mol]     -26.45634341 [kJ/mol]
    Exchange sSAPT0                 0.00813194 [mEh]       0.00510287 [kcal/mol]       0.02135039 [kJ/mol]
    Induction sSAPT0               -4.85080399 [mEh]      -3.04392546 [kcal/mol]     -12.73578413 [kJ/mol]
    Dispersion sSAPT0              -4.07377675 [mEh]      -2.55633350 [kcal/mol]     -10.69569937 [kJ/mol]
  Total sSAPT0                    -18.99313784 [mEh]     -11.91837393 [kcal/mol]     -49.86647652 [kJ/mol]
  --------------------------------------------------------------------------------------------------------

*** tstop() called on n2cn0668 at Sat Jan 27 08:55:42 2024
Module time:
	user time   =   77996.85 seconds =    1299.95 minutes
	system time =    3854.57 seconds =      64.24 minutes
	total time  =      25721 seconds =     428.68 minutes
Total time:
	user time   =  135258.95 seconds =    2254.32 minutes
	system time =    8249.51 seconds =     137.49 minutes
	total time  =      34501 seconds =     575.02 minutes

    Psi4 stopped on: Saturday, 27 January 2024 08:55AM
    Psi4 wall time for execution: 9:35:01.84

*** Psi4 exiting successfully. Buy a developer a beer!
