
    -----------------------------------------------------------------------
          Psi4: An Open-Source Ab Initio Electronic Structure Package
                               Psi4 1.9 release

                         Git: Rev {} zzzzzzz 


    D. G. A. Smith, L. A. Burns, A. C. Simmonett, R. M. Parrish,
    M. C. Schieber, R. Galvelis, P. Kraus, H. Kruse, R. Di Remigio,
    A. Alenaizan, A. M. James, S. Lehtola, J. P. Misiewicz, M. Scheurer,
    R. A. Shaw, J. B. Schriber, Y. Xie, Z. L. Glick, D. A. Sirianni,
    J. S. O'Brien, J. M. Waldrop, A. Kumar, E. G. Hohenstein,
    B. P. Pritchard, B. R. Brooks, H. F. Schaefer III, A. Yu. Sokolov,
    K. Patkowski, A. E. DePrince III, U. Bozkaya, R. A. King,
    F. A. Evangelista, J. M. Turney, T. D. Crawford, C. D. Sherrill,
    J. Chem. Phys. 152(18) 184108 (2020). https://doi.org/10.1063/5.0006002

                            Additional Code Authors
    E. T. Seidl, C. L. Janssen, E. F. Valeev, M. L. Leininger,
    J. F. Gonthier, R. M. Richard, H. R. McAlexander, M. Saitow, X. Wang,
    P. Verma, M. H. Lechner, A. Jiang, S. Behnle, A. G. Heide,
    M. F. Herbst, and D. L. Poole

             Previous Authors, Complete List of Code Contributors,
                       and Citations for Specific Modules
    https://github.com/psi4/psi4/blob/master/codemeta.json
    https://github.com/psi4/psi4/graphs/contributors
    http://psicode.org/psi4manual/master/introduction.html#citing-psifour

    -----------------------------------------------------------------------


    Psi4 started on: Monday, 22 January 2024 04:39PM

    Process ID: 1103408
    Host:       d-3-8-3
    PSIDATADIR: /home/gridsan/tfroembgen/.conda/envs/psi4test/share/psi4
    Memory:     500.0 MiB
    Threads:    12
    
  ==> Input File <==

--------------------------------------------------------------------------
memory 32 GB # how much memory is available ! Depends on the nodes/cores !

molecule dimer {
# monomer A
+1 1    # Charge and multiplicity
C  0.680067 -1.215929 3.208042
C -0.680504 -1.215545 3.206014
N -1.085635  0.102779 3.205016
C  0.000108  0.884180 3.201740
C -2.477365  0.570758 3.155610
N  1.085222  0.102779 3.205016
H  1.385146 -2.033368 3.215870
H -1.385302 -2.033214 3.206204
H -0.000009  1.965269 3.199993
C  2.478117  0.567877 3.221908
H  2.490592  1.658130 3.194563
H  2.967028  0.220701 4.135354
H  3.001428  0.176405 2.346425
H -2.857359  0.490799 2.133539
H -3.082679 -0.042306 3.825694
H -2.518128  1.610706 3.482594
--
# monomer B
0 1     # Charge and multiplicity
C   1.22531237526482      0.70753866091955      0.00613762728373
C   1.22532433589282     -0.70753852257020     -0.00619318228664
C   -0.00000567409046      1.41496628609039     -0.00672680580738
C   2.45644923379077      1.41832825917820      0.00902448468363
C   0.00001130712078     -1.41497612663474      0.00347275151708
C   -1.22530046906674      0.70754574598412      0.00838914760619
C   2.45643823516184     -1.41832293188077     -0.00843833914343
C   -0.00000085313587      2.83680140328112     -0.00913035594137
C   3.68182717731192      0.70931832800114     -0.00808954934571
C   2.45512052870677      2.83422403348893     -0.00819210630633
C   3.68182158506039     -0.70933346742900      0.00798293467272
C   -1.22531311884624     -0.70752714354401     -0.00512042085974
C   1.22670006104402      3.54346985599427      0.00816696660346
C   0.00000526469929     -2.83678176723568      0.00832091913869
C   -2.45643555300670      1.41831729028492      0.00842454345199
C   2.45512389762097     -2.83422965658853      0.00783102630520
C   -1.22671388474763      3.54346943575023      0.00827029982280
C   4.91451777504333      1.42717324448953     -0.00160886631602
C   3.69315067131765      3.54279566454522     -0.00155906667985
C   -2.45643712022637     -1.41831290883911     -0.00846337726810
C   1.22670532178455     -3.54347386990643     -0.00780316414624
C   -2.45512491866593      2.83421703463423     -0.00818572995999
C   4.91452486062398     -1.42718653794377      0.00136387641845
C   1.22142509354026      4.97013443726031      0.00150231067809
C   4.89300870916237      2.82518837202648     -0.00039219795739
C   -1.22669652864725     -3.54347062507680     -0.00753595973677
C   -3.68181849668397      0.70932533873199     -0.00807686886569
C   3.69314758099218     -3.54280096939050      0.00148176697923
C   -1.22143177215231      4.97012866986289      0.00168580605083
C   6.13477145276790      0.68054831910577     -0.00083909176631
C   3.65678936045204      4.97295361556775     -0.00065042889723
C   -2.45512642789169     -2.83421472106065      0.00758666850712
C   -3.68181869921921     -0.70932533146830      0.00810055625144
C   4.89301309775526     -2.82519973363176      0.00021895393805
C   -0.00000059327114      5.65044773803267      0.00045449734393
C   6.13477559217374     -0.68055448207492      0.00042622874941
C   2.47813196269732      5.65357712333155      0.00063835075260
C   1.22142288457925     -4.97012668293268     -0.00129718634452
C   -3.69316190412301      3.54279732619245     -0.00139355922051
C   -1.22142804110313     -4.97011793159564     -0.00140994817719
C   -4.91452132810043      1.42717581899491     -0.00153192130862
C   3.65678749952045     -4.97295485423912      0.00080007163680
C   -2.47813805026426      5.65357479452875      0.00092287576113
C   -3.69314125872231     -3.54278984697859      0.00136564082345
C   -4.91451200321153     -1.42718062802730      0.00139857359209
C   -0.00000552908399     -5.65043791501335      0.00005899322272
C   -4.89302000425900      2.82518897091939     -0.00040227981744
C   2.47812647313991     -5.65357317188818     -0.00029052915548
C   -3.65679823041642      4.97295655404175     -0.00047374852278
C   -4.89299899901461     -2.82519139505969      0.00006491824035
C   -2.47812801824129     -5.65356579800621     -0.00056571680280
C   -6.13477002348955      0.68054913825639     -0.00086464346868
C   -3.65678835334731     -4.97294365097028      0.00058578382008
C   -6.13476456307132     -0.68055354348201      0.00040575295444
H   5.83528897565761      3.36927626695423      0.00396712770529
H   7.07385965258860      1.22821762089947     -0.00037744837300
H   4.60066374401555      5.51238117445323     -0.00014522814529
H   5.83528386714679     -3.36930568472863     -0.00423551337640
H   -0.00001167146422      6.73853104613662     -0.00389474766392
H   7.07386165167227     -1.22822657074368     -0.00008250934481
H   2.47331421164041      6.74068466339473      0.00017162982210
H   4.60066897122302     -5.51237575717576      0.00039007446835
H   -2.47331820069565      6.74068209160650      0.00047297644710
H   -0.00000978838621     -6.73852780445195      0.00458867820736
H   -5.83530143450167      3.36927132229595      0.00410314985360
H   2.47330840367253     -6.74068500242887      0.00027980126949
H   -4.60067436136587      5.51237839860371      0.00002010017831
H   -5.83527902699321     -3.36928859177951     -0.00451481925734
H   -2.47329986759855     -6.74067870613986     -0.00016951527498
H   -7.07385728692578      1.22822084484047     -0.00046143985387
H   -4.60067330624313     -5.51236229778631      0.00021776644566
H   -7.07385645456741     -1.22822025997701     -0.00017736581114

    units angstrom      # Angstroms are the default
    no_reorient         # Geometry fixed, default
    symmetry c1         # C1 symmetry, default
}

set {
    scf_type DF         # Density fitting, faster than exact integrals
    freeze_core True    # Freeze core electrons
    basis jun-cc-pVDZ   # Jun-cc-pVDZ basis set, recommended for sSAPT0 in https://doi.org/10.1063/1.4867135
}

energy('ssapt0')        # Compute sSAPT0 energy, includes also SAPT0
--------------------------------------------------------------------------

  Memory set to  29.802 GiB by Python driver.

Scratch directory: /state/partition1/slurm_tmp/24798236.4294967291.0/
   => Loading Basis Set <=

    Name: JUN-CC-PVDZ
    Role: ORBITAL
    Keyword: BASIS
    atoms 1-2, 4-5, 10, 17-70 entry C          line   164 file /home/gridsan/tfroembgen/.conda/envs/psi4test/share/psi4/basis/jun-cc-pvdz.gbs 
    atoms 3, 6                entry N          line   198 file /home/gridsan/tfroembgen/.conda/envs/psi4test/share/psi4/basis/jun-cc-pvdz.gbs 
    atoms 7-9, 11-16, 71-88   entry H          line    36 file /home/gridsan/tfroembgen/.conda/envs/psi4test/share/psi4/basis/jun-cc-pvdz.gbs 

   => Loading Basis Set <=

    Name: JUN-CC-PVDZ
    Role: ORBITAL
    Keyword: BASIS
    atoms 1-2, 4-5, 10, 17-70 entry C          line   164 file /home/gridsan/tfroembgen/.conda/envs/psi4test/share/psi4/basis/jun-cc-pvdz.gbs 
    atoms 3, 6                entry N          line   198 file /home/gridsan/tfroembgen/.conda/envs/psi4test/share/psi4/basis/jun-cc-pvdz.gbs 
    atoms 7-9, 11-16, 71-88   entry H          line    36 file /home/gridsan/tfroembgen/.conda/envs/psi4test/share/psi4/basis/jun-cc-pvdz.gbs 


  //>>>>>>>>>>>>>>>>>>>>>>>>>>>>>>>>>>>//
  //              Dimer HF             //
  //<<<<<<<<<<<<<<<<<<<<<<<<<<<<<<<<<<<//

   => Libint2 <=

    Primary   basis highest AM E, G, H:  7, 7, 4
    Auxiliary basis highest AM E, G, H:  7, 7, 5
    Onebody   basis highest AM E, G, H:  7, 7, 5
    Solid Harmonics ordering:            gaussian

*** tstart() called on d-3-8-3
*** at Mon Jan 22 16:39:18 2024

   => Loading Basis Set <=

    Name: JUN-CC-PVDZ
    Role: ORBITAL
    Keyword: BASIS
    atoms 1-2, 4-5, 10, 17-70 entry C          line   164 file /home/gridsan/tfroembgen/.conda/envs/psi4test/share/psi4/basis/jun-cc-pvdz.gbs 
    atoms 3, 6                entry N          line   198 file /home/gridsan/tfroembgen/.conda/envs/psi4test/share/psi4/basis/jun-cc-pvdz.gbs 
    atoms 7-9, 11-16, 71-88   entry H          line    36 file /home/gridsan/tfroembgen/.conda/envs/psi4test/share/psi4/basis/jun-cc-pvdz.gbs 


         ---------------------------------------------------------
                                   SCF
               by Justin Turney, Rob Parrish, Andy Simmonett
                          and Daniel G. A. Smith
                              RHF Reference
                       12 Threads,  30517 MiB Core
         ---------------------------------------------------------

  ==> Geometry <==

    Molecular point group: c1
    Full point group: C1

    Geometry (in Angstrom), charge = 1, multiplicity = 1:

       Center              X                  Y                   Z               Mass       
    ------------   -----------------  -----------------  -----------------  -----------------
         C            0.680066520158    -1.215933861162     2.801023814454    12.000000000000
         C           -0.680504479842    -1.215549861162     2.798995814454    12.000000000000
         N           -1.085635479842     0.102774138838     2.797997814454    14.003074004430
         C            0.000107520158     0.884175138838     2.794721814454    12.000000000000
         C           -2.477365479842     0.570753138838     2.748591814454    12.000000000000
         N            1.085221520158     0.102774138838     2.797997814454    14.003074004430
         H            1.385145520158    -2.033372861162     2.808851814454     1.007825032230
         H           -1.385302479842    -2.033218861162     2.799185814454     1.007825032230
         H           -0.000009479842     1.965264138838     2.792974814454     1.007825032230
         C            2.478116520158     0.567872138838     2.814889814454    12.000000000000
         H            2.490591520158     1.658125138838     2.787544814454     1.007825032230
         H            2.967027520158     0.220696138838     3.728335814454     1.007825032230
         H            3.001427520158     0.176400138838     1.939406814454     1.007825032230
         H           -2.857359479842     0.490794138838     1.726520814454     1.007825032230
         H           -3.082679479842    -0.042310861162     3.418675814454     1.007825032230
         H           -2.518128479842     1.610701138838     3.075575814454     1.007825032230
         C            1.225311895423     0.707533799757    -0.400880558262    12.000000000000
         C            1.225323856051    -0.707543383733    -0.413211367833    12.000000000000
         C           -0.000006153932     1.414961424928    -0.413744991354    12.000000000000
         C            2.456448753949     1.418323398016    -0.397993700863    12.000000000000
         C            0.000010827279    -1.414980987797    -0.403545434029    12.000000000000
         C           -1.225300948908     0.707540884822    -0.398629037940    12.000000000000
         C            2.456437755320    -1.418327793043    -0.415456524690    12.000000000000
         C           -0.000001332978     2.836796542119    -0.416148541488    12.000000000000
         C            3.681826697470     0.709313466839    -0.415107734892    12.000000000000
         C            2.455120048865     2.834219172327    -0.415210291853    12.000000000000
         C            3.681821105219    -0.709338328591    -0.399035250873    12.000000000000
         C           -1.225313598688    -0.707532004706    -0.412138606406    12.000000000000
         C            1.226699581202     3.543464994832    -0.398851218943    12.000000000000
         C            0.000004784858    -2.836786628398    -0.398697266408    12.000000000000
         C           -2.456436032848     1.418312429123    -0.398593642094    12.000000000000
         C            2.455123417779    -2.834234517751    -0.399187159241    12.000000000000
         C           -1.226714364589     3.543464574588    -0.398747885723    12.000000000000
         C            4.914517295202     1.427168383327    -0.408627051862    12.000000000000
         C            3.693150191476     3.542790803383    -0.408577252226    12.000000000000
         C           -2.456437600068    -1.418317770001    -0.415481562814    12.000000000000
         C            1.226704841943    -3.543478731069    -0.414821349692    12.000000000000
         C           -2.455125398508     2.834212173472    -0.415203915506    12.000000000000
         C            4.914524380782    -1.427191399106    -0.405654309128    12.000000000000
         C            1.221424613699     4.970129576098    -0.405515874868    12.000000000000
         C            4.893008229321     2.825183510864    -0.407410383504    12.000000000000
         C           -1.226697008489    -3.543475486239    -0.414554145283    12.000000000000
         C           -3.681818976526     0.709320477570    -0.415095054412    12.000000000000
         C            3.693147101150    -3.542805830553    -0.405536418567    12.000000000000
         C           -1.221432251994     4.970123808701    -0.405332379495    12.000000000000
         C            6.134770972926     0.680543457943    -0.407857277313    12.000000000000
         C            3.656788880610     4.972948754405    -0.407668614443    12.000000000000
         C           -2.455126907733    -2.834219582223    -0.399431517039    12.000000000000
         C           -3.681819179061    -0.709330192631    -0.398917629295    12.000000000000
         C            4.893012617914    -2.825204594794    -0.406799231608    12.000000000000
         C           -0.000001073113     5.650442876870    -0.406563688202    12.000000000000
         C            6.134775112332    -0.680559343237    -0.406591956797    12.000000000000
         C            2.478131482856     5.653572262169    -0.406379834794    12.000000000000
         C            1.221422404738    -4.970131544095    -0.408315371891    12.000000000000
         C           -3.693162383965     3.542792465030    -0.408411744767    12.000000000000
         C           -1.221428520945    -4.970122792758    -0.408428133723    12.000000000000
         C           -4.914521807942     1.427170957833    -0.408550106855    12.000000000000
         C            3.656787019679    -4.972959715401    -0.406218113909    12.000000000000
         C           -2.478138530106     5.653569933366    -0.406095309785    12.000000000000
         C           -3.693141738564    -3.542794708141    -0.405652544723    12.000000000000
         C           -4.914512483053    -1.427185489190    -0.405619611954    12.000000000000
         C           -0.000006008926    -5.650442776176    -0.406959192323    12.000000000000
         C           -4.893020484101     2.825184109757    -0.407420465364    12.000000000000
         C            2.478125993298    -5.653578033051    -0.407308714702    12.000000000000
         C           -3.656798710258     4.972951692879    -0.407491934069    12.000000000000
         C           -4.892999478856    -2.825196256222    -0.406953267306    12.000000000000
         C           -2.478128498083    -5.653570659169    -0.407583902349    12.000000000000
         C           -6.134770503331     0.680544277094    -0.407882829015    12.000000000000
         C           -3.656788833189    -4.972948512133    -0.406432401726    12.000000000000
         C           -6.134765042913    -0.680558404644    -0.406612432592    12.000000000000
         H            5.835288495816     3.369271405792    -0.403051057841     1.007825032230
         H            7.073859172747     1.228212759737    -0.407395633919     1.007825032230
         H            4.600663264174     5.512376313291    -0.407163413692     1.007825032230
         H            5.835283387305    -3.369310545891    -0.411253698923     1.007825032230
         H           -0.000012151306     6.738526184974    -0.410912933210     1.007825032230
         H            7.073861171831    -1.228231431906    -0.407100694891     1.007825032230
         H            2.473313731799     6.740679802232    -0.406846555724     1.007825032230
         H            4.600668491381    -5.512380618338    -0.406628111078     1.007825032230
         H           -2.473318680537     6.740677230444    -0.406545209099     1.007825032230
         H           -0.000010268228    -6.738532665614    -0.402429507339     1.007825032230
         H           -5.835301914343     3.369266461134    -0.402915035693     1.007825032230
         H            2.473307923831    -6.740689863591    -0.406738384277     1.007825032230
         H           -4.600674841208     5.512373537441    -0.406998085368     1.007825032230
         H           -5.835279506835    -3.369293452942    -0.411533004804     1.007825032230
         H           -2.473300347440    -6.740683567302    -0.407187700821     1.007825032230
         H           -7.073857766768     1.228215983678    -0.407479625400     1.007825032230
         H           -4.600673786085    -5.512367158949    -0.406800419101     1.007825032230
         H           -7.073856934409    -1.228225121139    -0.407195551357     1.007825032230

  Running in c1 symmetry.

  Rotational constants: A =      0.00197  B =      0.00193  C =      0.00109 [cm^-1]
  Rotational constants: A =     59.15130  B =     57.98628  C =     32.56832 [MHz]
  Nuclear repulsion = 8501.226760709907467

  Charge       = 1
  Multiplicity = 1
  Electrons    = 394
  Nalpha       = 197
  Nbeta        = 197

  ==> Algorithm <==

  SCF Algorithm Type is DF.
  DIIS enabled.
  MOM disabled.
  Fractional occupation disabled.
  Guess Type is SAD.
  Energy threshold   = 1.00e-08
  Density threshold  = 1.00e-08
  Integral threshold = 1.00e-12

  ==> Primary Basis <==

  Basis Set: JUN-CC-PVDZ
    Blend: JUN-CC-PVDZ
    Number of shells: 569
    Number of basis functions: 1233
    Number of Cartesian functions: 1294
    Spherical Harmonics?: true
    Max angular momentum: 2

   => Loading Basis Set <=

    Name: (JUN-CC-PVDZ AUX)
    Role: JKFIT
    Keyword: DF_BASIS_SCF
    atoms 1-2, 4-5, 10, 17-70 entry C          line   146 file /home/gridsan/tfroembgen/.conda/envs/psi4test/share/psi4/basis/jun-cc-pvdz-jkfit.gbs 
    atoms 3, 6                entry N          line   202 file /home/gridsan/tfroembgen/.conda/envs/psi4test/share/psi4/basis/jun-cc-pvdz-jkfit.gbs 
    atoms 7-9, 11-16, 71-88   entry H          line    70 file /home/gridsan/tfroembgen/.conda/envs/psi4test/share/psi4/basis/jun-cc-pvdz-jkfit.gbs 

  ==> Integral Setup <==

  ==> DiskDFJK: Density-Fitted J/K Matrices <==

    J tasked:                  Yes
    K tasked:                  Yes
    wK tasked:                  No
    OpenMP threads:             12
    Integrals threads:          12
    Memory [MiB]:            22888
    Algorithm:                Disk
    Integral Cache:           SAVE
    Schwarz Cutoff:          1E-12
    Fitting Condition:       1E-10

   => Auxiliary Basis Set <=

  Basis Set: (JUN-CC-PVDZ AUX)
    Blend: JUN-CC-PVDZ-JKFIT
    Number of shells: 1890
    Number of basis functions: 5440
    Number of Cartesian functions: 6226
    Spherical Harmonics?: true
    Max angular momentum: 3

  Minimum eigenvalue in the overlap matrix is 5.1181255505E-10.
  Reciprocal condition number of the overlap matrix is 1.9601057474E-11.
    Using canonical orthogonalization.
  Overall, 14 of 1233 possible MOs eliminated.


  ==> Pre-Iterations <==

  SCF Guess: Superposition of Atomic Densities via on-the-fly atomic UHF (no occupation information).

   -------------------------
    Irrep   Nso     Nmo    
   -------------------------
     A       1233    1219 
   -------------------------
    Total    1233    1219
   -------------------------

  ==> Iterations <==

                           Total Energy        Delta E     RMS |[F,P]|

   @DF-RHF iter SAD: -2366.16034062846484   -2.36616e+03   0.00000e+00 
   @DF-RHF iter   1: -2358.19990372412758    7.96044e+00   9.43429e-04 ADIIS/DIIS
   @DF-RHF iter   2: -2359.08953670348365   -8.89633e-01   3.20237e-04 ADIIS/DIIS
   @DF-RHF iter   3: -2359.17871110506076   -8.91744e-02   1.23063e-04 ADIIS/DIIS
   @DF-RHF iter   4: -2359.19225167713648   -1.35406e-02   4.92495e-05 DIIS
   @DF-RHF iter   5: -2359.19453145798707   -2.27978e-03   1.36766e-05 DIIS
   @DF-RHF iter   6: -2359.19477396775937   -2.42510e-04   5.63763e-06 DIIS
   @DF-RHF iter   7: -2359.19485710997606   -8.31422e-05   2.43451e-06 DIIS
   @DF-RHF iter   8: -2359.19488074751825   -2.36375e-05   1.16626e-06 DIIS
   @DF-RHF iter   9: -2359.19488687989269   -6.13237e-06   3.14577e-07 DIIS
   @DF-RHF iter  10: -2359.19488719675564   -3.16863e-07   1.38891e-07 DIIS
   @DF-RHF iter  11: -2359.19488722681490   -3.00593e-08   5.87681e-08 DIIS
   @DF-RHF iter  12: -2359.19488723387713   -7.06223e-09   2.74410e-08 DIIS
   @DF-RHF iter  13: -2359.19488723647828   -2.60115e-09   1.05840e-08 DIIS
   @DF-RHF iter  14: -2359.19488723690165   -4.23370e-10   6.94991e-09 DIIS
  Energy and wave function converged.


  ==> Post-Iterations <==

    Orbital Energies [Eh]
    ---------------------

    Doubly Occupied:                                                      

       1A    -15.789717     2A    -15.789121     3A    -11.486053  
       4A    -11.416077     5A    -11.414527     6A    -11.406210  
       7A    -11.403094     8A    -11.351648     9A    -11.351159  
      10A    -11.350568    11A    -11.349942    12A    -11.349804  
      13A    -11.348802    14A    -11.347771    15A    -11.347681  
      16A    -11.347520    17A    -11.347357    18A    -11.347301  
      19A    -11.345156    20A    -11.344796    21A    -11.344630  
      22A    -11.344588    23A    -11.344373    24A    -11.343735  
      25A    -11.343683    26A    -11.343561    27A    -11.343470  
      28A    -11.343409    29A    -11.343349    30A    -11.342577  
      31A    -11.342314    32A    -11.342278    33A    -11.342186  
      34A    -11.342110    35A    -11.341982    36A    -11.341843  
      37A    -11.341832    38A    -11.341544    39A    -11.341460  
      40A    -11.341108    41A    -11.341105    42A    -11.339968  
      43A    -11.339885    44A    -11.334738    45A    -11.334453  
      46A    -11.333892    47A    -11.333662    48A    -11.333639  
      49A    -11.332701    50A    -11.331870    51A    -11.331728  
      52A    -11.331444    53A    -11.331295    54A    -11.330415  
      55A    -11.330287    56A    -11.330100    57A    -11.330090  
      58A    -11.329982    59A    -11.329852    60A    -11.328604  
      61A    -11.328592    62A     -1.533739    63A     -1.389539  
      64A     -1.333696    65A     -1.307440    66A     -1.306056  
      67A     -1.274894    68A     -1.274540    69A     -1.267838  
      70A     -1.240912    71A     -1.233537    72A     -1.222276  
      73A     -1.221431    74A     -1.196185    75A     -1.196157  
      76A     -1.194987    77A     -1.168449    78A     -1.167911  
      79A     -1.164099    80A     -1.148426    81A     -1.148371  
      82A     -1.145726    83A     -1.123362    84A     -1.111110  
      85A     -1.108839    86A     -1.107984    87A     -1.100390  
      88A     -1.094607    89A     -1.076650    90A     -1.072066  
      91A     -1.071489    92A     -1.044763    93A     -1.044673  
      94A     -0.979945    95A     -0.978153    96A     -0.977424  
      97A     -0.974360    98A     -0.971720    99A     -0.971613  
     100A     -0.966498   101A     -0.966369   102A     -0.954054  
     103A     -0.944821   104A     -0.918045   105A     -0.902084  
     106A     -0.901643   107A     -0.896969   108A     -0.896513  
     109A     -0.877015   110A     -0.876590   111A     -0.874220  
     112A     -0.832152   113A     -0.829799   114A     -0.818259  
     115A     -0.817915   116A     -0.814366   117A     -0.814322  
     118A     -0.812125   119A     -0.800318   120A     -0.782160  
     121A     -0.781685   122A     -0.777436   123A     -0.777012  
     124A     -0.773906   125A     -0.770229   126A     -0.751718  
     127A     -0.746703   128A     -0.743025   129A     -0.740054  
     130A     -0.736924   131A     -0.736066   132A     -0.731827  
     133A     -0.731773   134A     -0.721993   135A     -0.721659  
     136A     -0.713412   137A     -0.711530   138A     -0.711395  
     139A     -0.696252   140A     -0.688266   141A     -0.686103  
     142A     -0.684935   143A     -0.684179   144A     -0.682423  
     145A     -0.681671   146A     -0.679233   147A     -0.677831  
     148A     -0.676685   149A     -0.676128   150A     -0.665234  
     151A     -0.662773   152A     -0.658703   153A     -0.650464  
     154A     -0.650121   155A     -0.648345   156A     -0.648174  
     157A     -0.642672   158A     -0.636197   159A     -0.635929  
     160A     -0.623540   161A     -0.620516   162A     -0.620168  
     163A     -0.620110   164A     -0.614433   165A     -0.612599  
     166A     -0.605678   167A     -0.605247   168A     -0.581795  
     169A     -0.579521   170A     -0.575057   171A     -0.572336  
     172A     -0.569100   173A     -0.564855   174A     -0.564704  
     175A     -0.559889   176A     -0.556994   177A     -0.553025  
     178A     -0.536420   179A     -0.536078   180A     -0.521535  
     181A     -0.521337   182A     -0.490960   183A     -0.489798  
     184A     -0.489165   185A     -0.480697   186A     -0.456704  
     187A     -0.456636   188A     -0.433032   189A     -0.427491  
     190A     -0.425310   191A     -0.421760   192A     -0.393989  
     193A     -0.378038   194A     -0.371947   195A     -0.371556  
     196A     -0.308383   197A     -0.308212  

    Virtual:                                                              

     198A     -0.070935   199A     -0.070505   200A     -0.044423  
     201A     -0.028753   202A     -0.024997   203A     -0.022169  
     204A     -0.022003   205A     -0.017396   206A     -0.013099  
     207A     -0.012080   208A     -0.009005   209A     -0.006935  
     210A     -0.003898   211A     -0.001589   212A     -0.001258  
     213A      0.000529   214A      0.002873   215A      0.003126  
     216A      0.004839   217A      0.005328   218A      0.008167  
     219A      0.008266   220A      0.012478   221A      0.015400  
     222A      0.015410   223A      0.018851   224A      0.020247  
     225A      0.021306   226A      0.024018   227A      0.027466  
     228A      0.030909   229A      0.031198   230A      0.031597  
     231A      0.032170   232A      0.037402   233A      0.041045  
     234A      0.042751   235A      0.044084   236A      0.044551  
     237A      0.044810   238A      0.051252   239A      0.051421  
     240A      0.053179   241A      0.055612   242A      0.057061  
     243A      0.057923   244A      0.058016   245A      0.061500  
     246A      0.063224   247A      0.067151   248A      0.072197  
     249A      0.073068   250A      0.073484   251A      0.073978  
     252A      0.074339   253A      0.079752   254A      0.081424  
     255A      0.083417   256A      0.085274   257A      0.086503  
     258A      0.089021   259A      0.091814   260A      0.093113  
     261A      0.095157   262A      0.097217   263A      0.097599  
     264A      0.101524   265A      0.104008   266A      0.105177  
     267A      0.105551   268A      0.106512   269A      0.110765  
     270A      0.112594   271A      0.112897   272A      0.115578  
     273A      0.115821   274A      0.116654   275A      0.119662  
     276A      0.120182   277A      0.123419   278A      0.124512  
     279A      0.129966   280A      0.133638   281A      0.136702  
     282A      0.137328   283A      0.140912   284A      0.143321  
     285A      0.144139   286A      0.144910   287A      0.145310  
     288A      0.147058   289A      0.147313   290A      0.148032  
     291A      0.148198   292A      0.148635   293A      0.150441  
     294A      0.152896   295A      0.154003   296A      0.154881  
     297A      0.156010   298A      0.156635   299A      0.158145  
     300A      0.160739   301A      0.163045   302A      0.163586  
     303A      0.165691   304A      0.166685   305A      0.166943  
     306A      0.167845   307A      0.169848   308A      0.171659  
     309A      0.173892   310A      0.176875   311A      0.178772  
     312A      0.181249   313A      0.183785   314A      0.184283  
     315A      0.184658   316A      0.186840   317A      0.187459  
     318A      0.188026   319A      0.188681   320A      0.192492  
     321A      0.192875   322A      0.193607   323A      0.194891  
     324A      0.196373   325A      0.199874   326A      0.200626  
     327A      0.201633   328A      0.203368   329A      0.203628  
     330A      0.204286   331A      0.207146   332A      0.209595  
     333A      0.210691   334A      0.214296   335A      0.217657  
     336A      0.219253   337A      0.221535   338A      0.224487  
     339A      0.226058   340A      0.226645   341A      0.226799  
     342A      0.228735   343A      0.230401   344A      0.233301  
     345A      0.234321   346A      0.236092   347A      0.237165  
     348A      0.237441   349A      0.238189   350A      0.240663  
     351A      0.241611   352A      0.242879   353A      0.243271  
     354A      0.243874   355A      0.246564   356A      0.247289  
     357A      0.248230   358A      0.248831   359A      0.249238  
     360A      0.249681   361A      0.251024   362A      0.254778  
     363A      0.256830   364A      0.258751   365A      0.259258  
     366A      0.260144   367A      0.262803   368A      0.263697  
     369A      0.265284   370A      0.265467   371A      0.269050  
     372A      0.270388   373A      0.271641   374A      0.274228  
     375A      0.277685   376A      0.280071   377A      0.280524  
     378A      0.281155   379A      0.281875   380A      0.284029  
     381A      0.284926   382A      0.286137   383A      0.287939  
     384A      0.288655   385A      0.290455   386A      0.293010  
     387A      0.293662   388A      0.294448   389A      0.295917  
     390A      0.296164   391A      0.298995   392A      0.301927  
     393A      0.303442   394A      0.304724   395A      0.306835  
     396A      0.309532   397A      0.309928   398A      0.313764  
     399A      0.314828   400A      0.316087   401A      0.316877  
     402A      0.318801   403A      0.319860   404A      0.320812  
     405A      0.322570   406A      0.322726   407A      0.324590  
     408A      0.325141   409A      0.327202   410A      0.328872  
     411A      0.330156   412A      0.331314   413A      0.332566  
     414A      0.333758   415A      0.334844   416A      0.335302  
     417A      0.335757   418A      0.336662   419A      0.337757  
     420A      0.339247   421A      0.340403   422A      0.341148  
     423A      0.344310   424A      0.345392   425A      0.345617  
     426A      0.347296   427A      0.350194   428A      0.351731  
     429A      0.353945   430A      0.357002   431A      0.360168  
     432A      0.361737   433A      0.362383   434A      0.362903  
     435A      0.364472   436A      0.366329   437A      0.367107  
     438A      0.371742   439A      0.372230   440A      0.374513  
     441A      0.376581   442A      0.377527   443A      0.377861  
     444A      0.380545   445A      0.381465   446A      0.381607  
     447A      0.382437   448A      0.384237   449A      0.384761  
     450A      0.386775   451A      0.388118   452A      0.389573  
     453A      0.391654   454A      0.395590   455A      0.396419  
     456A      0.401403   457A      0.402054   458A      0.404245  
     459A      0.404890   460A      0.409199   461A      0.410212  
     462A      0.411339   463A      0.412631   464A      0.415346  
     465A      0.417125   466A      0.417464   467A      0.418084  
     468A      0.418791   469A      0.420335   470A      0.421113  
     471A      0.423800   472A      0.426288   473A      0.427752  
     474A      0.428307   475A      0.432864   476A      0.435885  
     477A      0.438307   478A      0.439807   479A      0.440969  
     480A      0.442648   481A      0.445572   482A      0.450257  
     483A      0.451831   484A      0.452176   485A      0.459317  
     486A      0.460679   487A      0.463008   488A      0.464753  
     489A      0.466301   490A      0.468509   491A      0.469384  
     492A      0.472053   493A      0.472535   494A      0.474056  
     495A      0.475386   496A      0.476250   497A      0.479521  
     498A      0.482957   499A      0.483545   500A      0.484972  
     501A      0.486854   502A      0.491626   503A      0.492256  
     504A      0.493786   505A      0.496565   506A      0.506168  
     507A      0.509214   508A      0.512613   509A      0.516545  
     510A      0.517764   511A      0.518938   512A      0.524888  
     513A      0.530296   514A      0.535747   515A      0.541345  
     516A      0.543046   517A      0.545568   518A      0.547299  
     519A      0.548483   520A      0.558241   521A      0.559138  
     522A      0.567511   523A      0.573156   524A      0.575400  
     525A      0.581820   526A      0.588945   527A      0.589974  
     528A      0.593958   529A      0.595955   530A      0.596037  
     531A      0.606466   532A      0.609059   533A      0.634455  
     534A      0.634539   535A      0.659268   536A      0.662475  
     537A      0.663737   538A      0.664431   539A      0.664668  
     540A      0.664967   541A      0.675374   542A      0.675679  
     543A      0.687336   544A      0.692685   545A      0.709292  
     546A      0.718696   547A      0.720459   548A      0.723383  
     549A      0.729907   550A      0.733597   551A      0.738168  
     552A      0.745887   553A      0.747475   554A      0.749007  
     555A      0.753213   556A      0.759375   557A      0.759947  
     558A      0.770817   559A      0.771958   560A      0.777011  
     561A      0.778576   562A      0.780358   563A      0.783674  
     564A      0.785702   565A      0.787838   566A      0.789445  
     567A      0.796119   568A      0.797115   569A      0.797794  
     570A      0.798954   571A      0.801220   572A      0.802872  
     573A      0.806333   574A      0.809164   575A      0.811227  
     576A      0.811500   577A      0.815014   578A      0.817051  
     579A      0.819771   580A      0.822623   581A      0.824854  
     582A      0.826914   583A      0.829256   584A      0.834632  
     585A      0.834706   586A      0.836539   587A      0.838261  
     588A      0.839213   589A      0.841596   590A      0.842398  
     591A      0.843344   592A      0.843784   593A      0.847304  
     594A      0.850660   595A      0.852709   596A      0.854032  
     597A      0.856304   598A      0.863032   599A      0.864901  
     600A      0.866923   601A      0.869198   602A      0.871077  
     603A      0.874017   604A      0.876734   605A      0.877884  
     606A      0.878249   607A      0.881000   608A      0.885305  
     609A      0.887214   610A      0.890003   611A      0.891271  
     612A      0.893229   613A      0.895865   614A      0.897419  
     615A      0.900638   616A      0.901026   617A      0.904756  
     618A      0.905904   619A      0.907386   620A      0.909812  
     621A      0.910519   622A      0.913175   623A      0.915278  
     624A      0.921325   625A      0.923512   626A      0.925081  
     627A      0.926486   628A      0.928529   629A      0.929935  
     630A      0.930984   631A      0.937356   632A      0.938314  
     633A      0.940923   634A      0.942680   635A      0.943871  
     636A      0.947788   637A      0.951682   638A      0.951896  
     639A      0.955160   640A      0.957170   641A      0.959118  
     642A      0.961201   643A      0.962073   644A      0.963209  
     645A      0.966029   646A      0.969032   647A      0.970025  
     648A      0.971214   649A      0.972141   650A      0.974856  
     651A      0.977684   652A      0.978080   653A      0.981345  
     654A      0.981451   655A      0.983004   656A      0.985567  
     657A      0.989228   658A      0.991768   659A      0.992984  
     660A      0.993957   661A      0.995198   662A      0.997963  
     663A      1.002780   664A      1.004458   665A      1.006802  
     666A      1.007769   667A      1.009872   668A      1.011487  
     669A      1.014377   670A      1.016580   671A      1.018948  
     672A      1.019893   673A      1.022173   674A      1.024582  
     675A      1.026100   676A      1.026501   677A      1.029877  
     678A      1.032321   679A      1.033313   680A      1.034698  
     681A      1.039477   682A      1.041848   683A      1.043847  
     684A      1.045686   685A      1.048894   686A      1.050423  
     687A      1.053320   688A      1.058729   689A      1.059486  
     690A      1.061043   691A      1.061720   692A      1.062750  
     693A      1.067270   694A      1.070714   695A      1.073215  
     696A      1.076998   697A      1.081393   698A      1.083932  
     699A      1.088200   700A      1.089380   701A      1.090055  
     702A      1.096759   703A      1.103700   704A      1.105598  
     705A      1.109329   706A      1.110858   707A      1.115039  
     708A      1.117483   709A      1.120223   710A      1.125220  
     711A      1.128330   712A      1.132747   713A      1.134908  
     714A      1.137355   715A      1.137945   716A      1.143374  
     717A      1.145482   718A      1.148491   719A      1.152897  
     720A      1.155203   721A      1.160970   722A      1.161379  
     723A      1.163952   724A      1.170438   725A      1.171871  
     726A      1.175097   727A      1.178322   728A      1.179789  
     729A      1.180485   730A      1.183979   731A      1.184796  
     732A      1.190490   733A      1.193135   734A      1.195700  
     735A      1.200309   736A      1.200816   737A      1.202287  
     738A      1.206038   739A      1.211259   740A      1.214102  
     741A      1.215019   742A      1.218965   743A      1.219982  
     744A      1.220485   745A      1.224077   746A      1.230734  
     747A      1.232673   748A      1.239221   749A      1.241695  
     750A      1.244279   751A      1.247033   752A      1.248251  
     753A      1.251117   754A      1.252642   755A      1.254096  
     756A      1.257708   757A      1.260160   758A      1.262354  
     759A      1.266040   760A      1.269061   761A      1.270246  
     762A      1.271539   763A      1.274023   764A      1.280192  
     765A      1.284698   766A      1.287140   767A      1.294121  
     768A      1.295322   769A      1.302533   770A      1.304924  
     771A      1.307620   772A      1.313363   773A      1.315730  
     774A      1.321514   775A      1.322789   776A      1.324452  
     777A      1.327380   778A      1.328534   779A      1.332876  
     780A      1.337482   781A      1.339124   782A      1.339955  
     783A      1.341919   784A      1.344476   785A      1.345268  
     786A      1.349814   787A      1.353835   788A      1.360010  
     789A      1.361117   790A      1.365683   791A      1.368498  
     792A      1.368714   793A      1.370004   794A      1.373746  
     795A      1.373982   796A      1.382558   797A      1.390467  
     798A      1.392068   799A      1.395401   800A      1.397102  
     801A      1.405475   802A      1.423507   803A      1.427191  
     804A      1.434211   805A      1.435013   806A      1.438291  
     807A      1.439522   808A      1.441635   809A      1.457355  
     810A      1.460903   811A      1.461641   812A      1.471548  
     813A      1.487625   814A      1.496121   815A      1.499677  
     816A      1.506991   817A      1.516710   818A      1.522180  
     819A      1.524973   820A      1.530640   821A      1.533532  
     822A      1.540579   823A      1.542429   824A      1.549371  
     825A      1.552045   826A      1.555832   827A      1.556370  
     828A      1.560126   829A      1.563733   830A      1.564804  
     831A      1.567088   832A      1.569374   833A      1.571754  
     834A      1.574822   835A      1.575750   836A      1.581363  
     837A      1.586969   838A      1.588462   839A      1.589985  
     840A      1.592370   841A      1.597648   842A      1.600161  
     843A      1.604145   844A      1.605843   845A      1.606895  
     846A      1.609585   847A      1.615670   848A      1.616623  
     849A      1.617536   850A      1.621022   851A      1.621728  
     852A      1.623141   853A      1.629773   854A      1.631876  
     855A      1.642670   856A      1.645124   857A      1.647060  
     858A      1.652298   859A      1.662909   860A      1.667713  
     861A      1.673140   862A      1.679159   863A      1.682798  
     864A      1.685289   865A      1.687387   866A      1.690609  
     867A      1.695010   868A      1.697914   869A      1.705666  
     870A      1.711422   871A      1.712827   872A      1.731847  
     873A      1.734769   874A      1.735700   875A      1.737272  
     876A      1.738029   877A      1.739562   878A      1.741721  
     879A      1.746613   880A      1.754092   881A      1.760965  
     882A      1.767062   883A      1.767566   884A      1.771380  
     885A      1.777956   886A      1.780556   887A      1.783823  
     888A      1.786730   889A      1.787820   890A      1.789196  
     891A      1.792656   892A      1.794668   893A      1.796932  
     894A      1.801566   895A      1.805167   896A      1.809694  
     897A      1.814863   898A      1.817899   899A      1.819326  
     900A      1.822419   901A      1.826623   902A      1.827607  
     903A      1.829086   904A      1.829945   905A      1.830877  
     906A      1.834052   907A      1.834214   908A      1.839948  
     909A      1.842392   910A      1.843920   911A      1.846159  
     912A      1.854200   913A      1.862164   914A      1.863041  
     915A      1.866222   916A      1.869523   917A      1.871236  
     918A      1.871641   919A      1.873943   920A      1.875322  
     921A      1.875692   922A      1.879695   923A      1.886967  
     924A      1.891162   925A      1.898165   926A      1.903823  
     927A      1.907255   928A      1.911667   929A      1.912439  
     930A      1.914068   931A      1.915825   932A      1.918097  
     933A      1.922597   934A      1.926193   935A      1.929720  
     936A      1.933366   937A      1.935210   938A      1.937212  
     939A      1.940071   940A      1.946163   941A      1.948282  
     942A      1.948982   943A      1.952493   944A      1.954853  
     945A      1.956615   946A      1.957967   947A      1.960511  
     948A      1.960928   949A      1.962855   950A      1.969373  
     951A      1.973307   952A      1.973778   953A      1.977236  
     954A      1.982786   955A      1.985360   956A      1.987023  
     957A      1.991905   958A      1.994236   959A      1.995533  
     960A      1.996194   961A      2.001396   962A      2.003884  
     963A      2.005087   964A      2.012398   965A      2.013101  
     966A      2.017363   967A      2.018759   968A      2.020884  
     969A      2.022163   970A      2.023416   971A      2.024797  
     972A      2.026790   973A      2.029204   974A      2.031211  
     975A      2.032759   976A      2.034447   977A      2.035014  
     978A      2.036902   979A      2.039094   980A      2.040546  
     981A      2.041849   982A      2.044538   983A      2.048629  
     984A      2.049749   985A      2.051195   986A      2.053401  
     987A      2.055757   988A      2.056736   989A      2.057425  
     990A      2.060839   991A      2.061375   992A      2.063898  
     993A      2.069222   994A      2.072346   995A      2.075025  
     996A      2.077772   997A      2.081287   998A      2.085079  
     999A      2.088388  1000A      2.091392  1001A      2.096353  
    1002A      2.100134  1003A      2.105796  1004A      2.109626  
    1005A      2.111391  1006A      2.114870  1007A      2.116239  
    1008A      2.116567  1009A      2.119042  1010A      2.128427  
    1011A      2.130056  1012A      2.131688  1013A      2.136642  
    1014A      2.139416  1015A      2.142050  1016A      2.149029  
    1017A      2.150365  1018A      2.154937  1019A      2.163047  
    1020A      2.166142  1021A      2.169117  1022A      2.169568  
    1023A      2.170778  1024A      2.172292  1025A      2.179129  
    1026A      2.181474  1027A      2.184209  1028A      2.185989  
    1029A      2.189607  1030A      2.192756  1031A      2.194316  
    1032A      2.199348  1033A      2.202846  1034A      2.211729  
    1035A      2.217532  1036A      2.224221  1037A      2.229480  
    1038A      2.232824  1039A      2.235667  1040A      2.238064  
    1041A      2.244809  1042A      2.250558  1043A      2.254311  
    1044A      2.256415  1045A      2.262798  1046A      2.263992  
    1047A      2.269284  1048A      2.270062  1049A      2.274640  
    1050A      2.282099  1051A      2.285432  1052A      2.287596  
    1053A      2.299325  1054A      2.309286  1055A      2.311834  
    1056A      2.323166  1057A      2.331588  1058A      2.336208  
    1059A      2.340789  1060A      2.341664  1061A      2.341987  
    1062A      2.352080  1063A      2.355097  1064A      2.362585  
    1065A      2.372566  1066A      2.387774  1067A      2.393042  
    1068A      2.405278  1069A      2.406222  1070A      2.409817  
    1071A      2.413230  1072A      2.425449  1073A      2.430327  
    1074A      2.440238  1075A      2.446291  1076A      2.450379  
    1077A      2.461981  1078A      2.467165  1079A      2.468835  
    1080A      2.472581  1081A      2.472945  1082A      2.476207  
    1083A      2.478495  1084A      2.478967  1085A      2.481647  
    1086A      2.484932  1087A      2.490203  1088A      2.490664  
    1089A      2.499364  1090A      2.500170  1091A      2.507249  
    1092A      2.511816  1093A      2.515528  1094A      2.520688  
    1095A      2.524589  1096A      2.533013  1097A      2.538188  
    1098A      2.542925  1099A      2.550372  1100A      2.551644  
    1101A      2.558509  1102A      2.561152  1103A      2.565329  
    1104A      2.568146  1105A      2.574124  1106A      2.575713  
    1107A      2.577633  1108A      2.589552  1109A      2.592567  
    1110A      2.603210  1111A      2.612917  1112A      2.619847  
    1113A      2.625021  1114A      2.627483  1115A      2.629613  
    1116A      2.630750  1117A      2.634093  1118A      2.635372  
    1119A      2.636303  1120A      2.654619  1121A      2.656868  
    1122A      2.673501  1123A      2.679210  1124A      2.681220  
    1125A      2.692909  1126A      2.707087  1127A      2.715086  
    1128A      2.719946  1129A      2.725787  1130A      2.737825  
    1131A      2.744034  1132A      2.746740  1133A      2.750404  
    1134A      2.754558  1135A      2.759637  1136A      2.768435  
    1137A      2.770547  1138A      2.776916  1139A      2.783023  
    1140A      2.786837  1141A      2.796853  1142A      2.798311  
    1143A      2.813001  1144A      2.825552  1145A      2.838734  
    1146A      2.842552  1147A      2.846978  1148A      2.852015  
    1149A      2.859111  1150A      2.864952  1151A      2.873822  
    1152A      2.876679  1153A      2.884996  1154A      2.892782  
    1155A      2.904462  1156A      2.921675  1157A      2.938374  
    1158A      2.947945  1159A      2.953140  1160A      2.963600  
    1161A      2.979403  1162A      2.980260  1163A      2.996045  
    1164A      3.007965  1165A      3.039253  1166A      3.039861  
    1167A      3.042654  1168A      3.055589  1169A      3.056895  
    1170A      3.062949  1171A      3.066007  1172A      3.067509  
    1173A      3.068710  1174A      3.071550  1175A      3.071961  
    1176A      3.076156  1177A      3.086490  1178A      3.089817  
    1179A      3.093581  1180A      3.098480  1181A      3.104060  
    1182A      3.113458  1183A      3.130114  1184A      3.132880  
    1185A      3.137014  1186A      3.152814  1187A      3.166834  
    1188A      3.198014  1189A      3.206193  1190A      3.212921  
    1191A      3.220123  1192A      3.232241  1193A      3.339156  
    1194A      3.339826  1195A      3.405161  1196A      3.410006  
    1197A      3.417507  1198A      3.474054  1199A      3.501449  
    1200A      3.523311  1201A      3.550579  1202A      3.553890  
    1203A      3.560790  1204A      3.566099  1205A      3.586976  
    1206A      3.600104  1207A      3.633775  1208A      3.711114  
    1209A      3.725927  1210A      3.756429  1211A      3.790174  
    1212A      3.791488  1213A      3.832891  1214A      3.833214  
    1215A      3.897977  1216A      3.926221  1217A      4.021448  
    1218A      4.026826  1219A      4.055470  

    Final Occupation by Irrep:
              A 
    DOCC [   197 ]
    NA   [   197 ]
    NB   [   197 ]

  @DF-RHF Final Energy: -2359.19488723690165

   => Energetics <=

    Nuclear Repulsion Energy =           8501.2267607099074667
    One-Electron Energy =              -20100.5842635498665913
    Two-Electron Energy =                9240.1626156030579295
    Total Energy =                      -2359.1948872369011951

Computation Completed


Properties will be evaluated at   0.000000,   0.000000,   0.000000 [a0]

Properties computed using the SCF density matrix


 Multipole Moments:

 ------------------------------------------------------------------------------------
     Multipole            Electronic (a.u.)      Nuclear  (a.u.)        Total (a.u.)
 ------------------------------------------------------------------------------------

 L = 1.  Multiply by 2.5417464519 to convert [e a0] to [Debye]
 Dipole X            :          0.0032990            0.0006313            0.0039303
 Dipole Y            :         -1.6215291            1.8864948            0.2649658
 Dipole Z            :        -13.0422252           16.6246712            3.5824460
 Magnitude           :                                                    3.5922335

 ------------------------------------------------------------------------------------

*** tstop() called on d-3-8-3 at Mon Jan 22 17:01:14 2024
Module time:
	user time   =    4453.01 seconds =      74.22 minutes
	system time =     347.15 seconds =       5.79 minutes
	total time  =       1316 seconds =      21.93 minutes
Total time:
	user time   =    4453.01 seconds =      74.22 minutes
	system time =     347.15 seconds =       5.79 minutes
	total time  =       1316 seconds =      21.93 minutes

  //>>>>>>>>>>>>>>>>>>>>>>>>>>>>>>>>>>>//
  //            Monomer A HF           //
  //<<<<<<<<<<<<<<<<<<<<<<<<<<<<<<<<<<<//

   => Libint2 <=

    Primary   basis highest AM E, G, H:  7, 7, 4
    Auxiliary basis highest AM E, G, H:  7, 7, 5
    Onebody   basis highest AM E, G, H:  7, 7, 5
    Solid Harmonics ordering:            gaussian

*** tstart() called on d-3-8-3
*** at Mon Jan 22 17:01:14 2024

   => Loading Basis Set <=

    Name: JUN-CC-PVDZ
    Role: ORBITAL
    Keyword: BASIS
    atoms 1-2, 4-5, 10, 17-70 entry C          line   164 file /home/gridsan/tfroembgen/.conda/envs/psi4test/share/psi4/basis/jun-cc-pvdz.gbs 
    atoms 3, 6                entry N          line   198 file /home/gridsan/tfroembgen/.conda/envs/psi4test/share/psi4/basis/jun-cc-pvdz.gbs 
    atoms 7-9, 11-16, 71-88   entry H          line    36 file /home/gridsan/tfroembgen/.conda/envs/psi4test/share/psi4/basis/jun-cc-pvdz.gbs 


         ---------------------------------------------------------
                                   SCF
               by Justin Turney, Rob Parrish, Andy Simmonett
                          and Daniel G. A. Smith
                              RHF Reference
                       12 Threads,  30517 MiB Core
         ---------------------------------------------------------

  ==> Geometry <==

    Molecular point group: c1
    Full point group: C1

    Geometry (in Angstrom), charge = 1, multiplicity = 1:

       Center              X                  Y                   Z               Mass       
    ------------   -----------------  -----------------  -----------------  -----------------
         C            0.680066520158    -1.215933861162     2.801023814454    12.000000000000
         C           -0.680504479842    -1.215549861162     2.798995814454    12.000000000000
         N           -1.085635479842     0.102774138838     2.797997814454    14.003074004430
         C            0.000107520158     0.884175138838     2.794721814454    12.000000000000
         C           -2.477365479842     0.570753138838     2.748591814454    12.000000000000
         N            1.085221520158     0.102774138838     2.797997814454    14.003074004430
         H            1.385145520158    -2.033372861162     2.808851814454     1.007825032230
         H           -1.385302479842    -2.033218861162     2.799185814454     1.007825032230
         H           -0.000009479842     1.965264138838     2.792974814454     1.007825032230
         C            2.478116520158     0.567872138838     2.814889814454    12.000000000000
         H            2.490591520158     1.658125138838     2.787544814454     1.007825032230
         H            2.967027520158     0.220696138838     3.728335814454     1.007825032230
         H            3.001427520158     0.176400138838     1.939406814454     1.007825032230
         H           -2.857359479842     0.490794138838     1.726520814454     1.007825032230
         H           -3.082679479842    -0.042310861162     3.418675814454     1.007825032230
         H           -2.518128479842     1.610701138838     3.075575814454     1.007825032230
      Gh(C)           1.225311895423     0.707533799757    -0.400880558262    12.000000000000
      Gh(C)           1.225323856051    -0.707543383733    -0.413211367833    12.000000000000
      Gh(C)          -0.000006153932     1.414961424928    -0.413744991354    12.000000000000
      Gh(C)           2.456448753949     1.418323398016    -0.397993700863    12.000000000000
      Gh(C)           0.000010827279    -1.414980987797    -0.403545434029    12.000000000000
      Gh(C)          -1.225300948908     0.707540884822    -0.398629037940    12.000000000000
      Gh(C)           2.456437755320    -1.418327793043    -0.415456524690    12.000000000000
      Gh(C)          -0.000001332978     2.836796542119    -0.416148541488    12.000000000000
      Gh(C)           3.681826697470     0.709313466839    -0.415107734892    12.000000000000
      Gh(C)           2.455120048865     2.834219172327    -0.415210291853    12.000000000000
      Gh(C)           3.681821105219    -0.709338328591    -0.399035250873    12.000000000000
      Gh(C)          -1.225313598688    -0.707532004706    -0.412138606406    12.000000000000
      Gh(C)           1.226699581202     3.543464994832    -0.398851218943    12.000000000000
      Gh(C)           0.000004784858    -2.836786628398    -0.398697266408    12.000000000000
      Gh(C)          -2.456436032848     1.418312429123    -0.398593642094    12.000000000000
      Gh(C)           2.455123417779    -2.834234517751    -0.399187159241    12.000000000000
      Gh(C)          -1.226714364589     3.543464574588    -0.398747885723    12.000000000000
      Gh(C)           4.914517295202     1.427168383327    -0.408627051862    12.000000000000
      Gh(C)           3.693150191476     3.542790803383    -0.408577252226    12.000000000000
      Gh(C)          -2.456437600068    -1.418317770001    -0.415481562814    12.000000000000
      Gh(C)           1.226704841943    -3.543478731069    -0.414821349692    12.000000000000
      Gh(C)          -2.455125398508     2.834212173472    -0.415203915506    12.000000000000
      Gh(C)           4.914524380782    -1.427191399106    -0.405654309128    12.000000000000
      Gh(C)           1.221424613699     4.970129576098    -0.405515874868    12.000000000000
      Gh(C)           4.893008229321     2.825183510864    -0.407410383504    12.000000000000
      Gh(C)          -1.226697008489    -3.543475486239    -0.414554145283    12.000000000000
      Gh(C)          -3.681818976526     0.709320477570    -0.415095054412    12.000000000000
      Gh(C)           3.693147101150    -3.542805830553    -0.405536418567    12.000000000000
      Gh(C)          -1.221432251994     4.970123808701    -0.405332379495    12.000000000000
      Gh(C)           6.134770972926     0.680543457943    -0.407857277313    12.000000000000
      Gh(C)           3.656788880610     4.972948754405    -0.407668614443    12.000000000000
      Gh(C)          -2.455126907733    -2.834219582223    -0.399431517039    12.000000000000
      Gh(C)          -3.681819179061    -0.709330192631    -0.398917629295    12.000000000000
      Gh(C)           4.893012617914    -2.825204594794    -0.406799231608    12.000000000000
      Gh(C)          -0.000001073113     5.650442876870    -0.406563688202    12.000000000000
      Gh(C)           6.134775112332    -0.680559343237    -0.406591956797    12.000000000000
      Gh(C)           2.478131482856     5.653572262169    -0.406379834794    12.000000000000
      Gh(C)           1.221422404738    -4.970131544095    -0.408315371891    12.000000000000
      Gh(C)          -3.693162383965     3.542792465030    -0.408411744767    12.000000000000
      Gh(C)          -1.221428520945    -4.970122792758    -0.408428133723    12.000000000000
      Gh(C)          -4.914521807942     1.427170957833    -0.408550106855    12.000000000000
      Gh(C)           3.656787019679    -4.972959715401    -0.406218113909    12.000000000000
      Gh(C)          -2.478138530106     5.653569933366    -0.406095309785    12.000000000000
      Gh(C)          -3.693141738564    -3.542794708141    -0.405652544723    12.000000000000
      Gh(C)          -4.914512483053    -1.427185489190    -0.405619611954    12.000000000000
      Gh(C)          -0.000006008926    -5.650442776176    -0.406959192323    12.000000000000
      Gh(C)          -4.893020484101     2.825184109757    -0.407420465364    12.000000000000
      Gh(C)           2.478125993298    -5.653578033051    -0.407308714702    12.000000000000
      Gh(C)          -3.656798710258     4.972951692879    -0.407491934069    12.000000000000
      Gh(C)          -4.892999478856    -2.825196256222    -0.406953267306    12.000000000000
      Gh(C)          -2.478128498083    -5.653570659169    -0.407583902349    12.000000000000
      Gh(C)          -6.134770503331     0.680544277094    -0.407882829015    12.000000000000
      Gh(C)          -3.656788833189    -4.972948512133    -0.406432401726    12.000000000000
      Gh(C)          -6.134765042913    -0.680558404644    -0.406612432592    12.000000000000
      Gh(H)           5.835288495816     3.369271405792    -0.403051057841     1.007825032230
      Gh(H)           7.073859172747     1.228212759737    -0.407395633919     1.007825032230
      Gh(H)           4.600663264174     5.512376313291    -0.407163413692     1.007825032230
      Gh(H)           5.835283387305    -3.369310545891    -0.411253698923     1.007825032230
      Gh(H)          -0.000012151306     6.738526184974    -0.410912933210     1.007825032230
      Gh(H)           7.073861171831    -1.228231431906    -0.407100694891     1.007825032230
      Gh(H)           2.473313731799     6.740679802232    -0.406846555724     1.007825032230
      Gh(H)           4.600668491381    -5.512380618338    -0.406628111078     1.007825032230
      Gh(H)          -2.473318680537     6.740677230444    -0.406545209099     1.007825032230
      Gh(H)          -0.000010268228    -6.738532665614    -0.402429507339     1.007825032230
      Gh(H)          -5.835301914343     3.369266461134    -0.402915035693     1.007825032230
      Gh(H)           2.473307923831    -6.740689863591    -0.406738384277     1.007825032230
      Gh(H)          -4.600674841208     5.512373537441    -0.406998085368     1.007825032230
      Gh(H)          -5.835279506835    -3.369293452942    -0.411533004804     1.007825032230
      Gh(H)          -2.473300347440    -6.740683567302    -0.407187700821     1.007825032230
      Gh(H)          -7.073857766768     1.228215983678    -0.407479625400     1.007825032230
      Gh(H)          -4.600673786085    -5.512367158949    -0.406800419101     1.007825032230
      Gh(H)          -7.073856934409    -1.228225121139    -0.407195551357     1.007825032230

  Running in c1 symmetry.

  Rotational constants: A =      0.00197  B =      0.00193  C =      0.00109 [cm^-1]
  Rotational constants: A =     59.15130  B =     57.98628  C =     32.56832 [MHz]
  Nuclear repulsion =  306.774908447733026

  Charge       = 1
  Multiplicity = 1
  Electrons    = 52
  Nalpha       = 26
  Nbeta        = 26

  ==> Algorithm <==

  SCF Algorithm Type is DF.
  DIIS enabled.
  MOM disabled.
  Fractional occupation disabled.
  Guess Type is SAD.
  Energy threshold   = 1.00e-08
  Density threshold  = 1.00e-08
  Integral threshold = 1.00e-12

  ==> Primary Basis <==

  Basis Set: JUN-CC-PVDZ
    Blend: JUN-CC-PVDZ
    Number of shells: 569
    Number of basis functions: 1233
    Number of Cartesian functions: 1294
    Spherical Harmonics?: true
    Max angular momentum: 2

   => Loading Basis Set <=

    Name: (JUN-CC-PVDZ AUX)
    Role: JKFIT
    Keyword: DF_BASIS_SCF
    atoms 1-2, 4-5, 10, 17-70 entry C          line   146 file /home/gridsan/tfroembgen/.conda/envs/psi4test/share/psi4/basis/jun-cc-pvdz-jkfit.gbs 
    atoms 3, 6                entry N          line   202 file /home/gridsan/tfroembgen/.conda/envs/psi4test/share/psi4/basis/jun-cc-pvdz-jkfit.gbs 
    atoms 7-9, 11-16, 71-88   entry H          line    70 file /home/gridsan/tfroembgen/.conda/envs/psi4test/share/psi4/basis/jun-cc-pvdz-jkfit.gbs 

  ==> Integral Setup <==

  ==> DiskDFJK: Density-Fitted J/K Matrices <==

    J tasked:                  Yes
    K tasked:                  Yes
    wK tasked:                  No
    OpenMP threads:             12
    Integrals threads:          12
    Memory [MiB]:            22888
    Algorithm:                Disk
    Integral Cache:           LOAD
    Schwarz Cutoff:          1E-12
    Fitting Condition:       1E-10

   => Auxiliary Basis Set <=

  Basis Set: (JUN-CC-PVDZ AUX)
    Blend: JUN-CC-PVDZ-JKFIT
    Number of shells: 1890
    Number of basis functions: 5440
    Number of Cartesian functions: 6226
    Spherical Harmonics?: true
    Max angular momentum: 3

  Minimum eigenvalue in the overlap matrix is 5.1181255505E-10.
  Reciprocal condition number of the overlap matrix is 1.9601057474E-11.
    Using canonical orthogonalization.
  Overall, 14 of 1233 possible MOs eliminated.


  ==> Pre-Iterations <==

  SCF Guess: Superposition of Atomic Densities via on-the-fly atomic UHF (no occupation information).

   -------------------------
    Irrep   Nso     Nmo    
   -------------------------
     A       1233    1219 
   -------------------------
    Total    1233    1219
   -------------------------

  ==> Iterations <==

                           Total Energy        Delta E     RMS |[F,P]|

   @DF-RHF iter SAD:  -303.36537858921020   -3.03365e+02   0.00000e+00 
   @DF-RHF iter   1:  -303.17132368628700    1.94055e-01   3.45480e-04 ADIIS/DIIS
   @DF-RHF iter   2:  -303.28579051231907   -1.14467e-01   1.16162e-04 ADIIS/DIIS
   @DF-RHF iter   3:  -303.29731539696519   -1.15249e-02   4.55727e-05 DIIS
   @DF-RHF iter   4:  -303.29924362087763   -1.92822e-03   9.99795e-06 DIIS
   @DF-RHF iter   5:  -303.29935240228929   -1.08781e-04   2.44918e-06 DIIS
   @DF-RHF iter   6:  -303.29936206084045   -9.65855e-06   6.62820e-07 DIIS
   @DF-RHF iter   7:  -303.29936317620331   -1.11536e-06   3.40480e-07 DIIS
   @DF-RHF iter   8:  -303.29936344525913   -2.69056e-07   1.37494e-07 DIIS
   @DF-RHF iter   9:  -303.29936349731969   -5.20606e-08   3.43890e-08 DIIS
   @DF-RHF iter  10:  -303.29936350022780   -2.90811e-09   1.29508e-08 DIIS
   @DF-RHF iter  11:  -303.29936350047694   -2.49145e-10   3.15948e-09 DIIS
  Energy and wave function converged.


  ==> Post-Iterations <==

    Orbital Energies [Eh]
    ---------------------

    Doubly Occupied:                                                      

       1A    -15.834434     2A    -15.833881     3A    -11.529100  
       4A    -11.459648     5A    -11.458082     6A    -11.449448  
       7A    -11.449290     8A     -1.577299     9A     -1.432995  
      10A     -1.237884    11A     -1.188692    12A     -1.118382  
      13A     -1.021751    14A     -0.996215    15A     -0.916413  
      16A     -0.850046    17A     -0.815636    18A     -0.812402  
      19A     -0.789463    20A     -0.785891    21A     -0.781150  
      22A     -0.729264    23A     -0.725377    24A     -0.716863  
      25A     -0.595653    26A     -0.523479  

    Virtual:                                                              

      27A     -0.080090    28A     -0.070962    29A     -0.063602  
      30A     -0.063142    31A     -0.044949    32A     -0.043497  
      33A     -0.042613    34A     -0.039663    35A     -0.035363  
      36A     -0.031516    37A     -0.022321    38A     -0.021620  
      39A     -0.020187    40A     -0.015989    41A     -0.015478  
      42A     -0.014003    43A     -0.010956    44A     -0.008453  
      45A      0.001304    46A      0.001792    47A      0.003137  
      48A      0.003316    49A      0.006653    50A      0.007397  
      51A      0.009247    52A      0.010770    53A      0.013619  
      54A      0.015168    55A      0.025046    56A      0.025639  
      57A      0.026852    58A      0.026981    59A      0.031315  
      60A      0.034337    61A      0.034581    62A      0.035281  
      63A      0.037052    64A      0.038597    65A      0.040552  
      66A      0.042897    67A      0.043912    68A      0.050969  
      69A      0.051604    70A      0.053275    71A      0.053712  
      72A      0.056691    73A      0.057744    74A      0.058566  
      75A      0.060372    76A      0.061736    77A      0.065046  
      78A      0.065682    79A      0.066066    80A      0.068679  
      81A      0.070773    82A      0.074831    83A      0.075980  
      84A      0.077497    85A      0.077900    86A      0.078461  
      87A      0.080079    88A      0.081974    89A      0.082264  
      90A      0.083467    91A      0.086929    92A      0.087285  
      93A      0.091331    94A      0.093141    95A      0.095874  
      96A      0.098363    97A      0.098671    98A      0.099187  
      99A      0.100890   100A      0.105146   101A      0.105872  
     102A      0.107169   103A      0.109284   104A      0.109830  
     105A      0.110613   106A      0.111826   107A      0.112257  
     108A      0.114600   109A      0.115753   110A      0.116829  
     111A      0.117011   112A      0.119120   113A      0.121695  
     114A      0.123941   115A      0.125090   116A      0.126627  
     117A      0.128637   118A      0.129994   119A      0.130855  
     120A      0.131587   121A      0.137094   122A      0.138536  
     123A      0.139506   124A      0.140913   125A      0.143229  
     126A      0.145084   127A      0.145573   128A      0.147025  
     129A      0.150891   130A      0.151463   131A      0.152541  
     132A      0.152855   133A      0.153876   134A      0.154750  
     135A      0.155154   136A      0.157052   137A      0.160665  
     138A      0.161572   139A      0.163816   140A      0.165193  
     141A      0.167505   142A      0.169754   143A      0.170172  
     144A      0.170460   145A      0.171331   146A      0.171535  
     147A      0.172659   148A      0.174042   149A      0.177079  
     150A      0.178103   151A      0.179157   152A      0.180580  
     153A      0.181064   154A      0.182207   155A      0.189301  
     156A      0.194326   157A      0.194581   158A      0.198291  
     159A      0.199221   160A      0.199681   161A      0.200397  
     162A      0.200785   163A      0.201626   164A      0.202339  
     165A      0.204320   166A      0.208692   167A      0.209783  
     168A      0.211993   169A      0.212270   170A      0.214617  
     171A      0.215375   172A      0.218523   173A      0.219966  
     174A      0.220022   175A      0.221603   176A      0.222394  
     177A      0.223644   178A      0.227049   179A      0.227461  
     180A      0.230757   181A      0.231794   182A      0.232413  
     183A      0.232883   184A      0.233230   185A      0.234234  
     186A      0.237834   187A      0.241524   188A      0.247050  
     189A      0.249457   190A      0.251451   191A      0.253084  
     192A      0.256533   193A      0.257437   194A      0.260133  
     195A      0.261247   196A      0.261946   197A      0.263861  
     198A      0.265459   199A      0.266470   200A      0.268341  
     201A      0.270428   202A      0.273052   203A      0.274985  
     204A      0.276129   205A      0.276487   206A      0.277916  
     207A      0.278835   208A      0.280249   209A      0.281297  
     210A      0.282813   211A      0.285512   212A      0.286969  
     213A      0.288592   214A      0.290549   215A      0.291307  
     216A      0.295873   217A      0.298798   218A      0.299711  
     219A      0.300934   220A      0.302153   221A      0.303819  
     222A      0.307797   223A      0.309439   224A      0.310062  
     225A      0.313197   226A      0.314704   227A      0.316682  
     228A      0.318668   229A      0.321283   230A      0.322178  
     231A      0.325459   232A      0.326183   233A      0.331223  
     234A      0.333312   235A      0.335134   236A      0.339426  
     237A      0.341826   238A      0.343188   239A      0.349079  
     240A      0.349896   241A      0.350833   242A      0.352642  
     243A      0.354388   244A      0.356050   245A      0.359082  
     246A      0.359631   247A      0.361399   248A      0.362910  
     249A      0.366740   250A      0.367458   251A      0.370103  
     252A      0.370948   253A      0.373473   254A      0.375888  
     255A      0.376210   256A      0.376640   257A      0.378190  
     258A      0.381039   259A      0.382298   260A      0.382414  
     261A      0.383839   262A      0.385991   263A      0.389634  
     264A      0.391072   265A      0.394024   266A      0.394330  
     267A      0.395981   268A      0.398362   269A      0.400885  
     270A      0.401883   271A      0.402304   272A      0.403851  
     273A      0.405596   274A      0.410815   275A      0.411582  
     276A      0.414228   277A      0.416347   278A      0.418588  
     279A      0.422113   280A      0.423184   281A      0.426650  
     282A      0.427625   283A      0.429645   284A      0.431177  
     285A      0.432430   286A      0.436838   287A      0.441471  
     288A      0.442007   289A      0.443587   290A      0.445816  
     291A      0.446392   292A      0.447081   293A      0.448561  
     294A      0.451329   295A      0.453374   296A      0.454690  
     297A      0.457070   298A      0.458124   299A      0.462123  
     300A      0.463695   301A      0.465470   302A      0.466998  
     303A      0.468476   304A      0.469162   305A      0.476508  
     306A      0.479662   307A      0.482288   308A      0.483450  
     309A      0.490898   310A      0.491946   311A      0.492734  
     312A      0.494525   313A      0.497122   314A      0.498210  
     315A      0.499198   316A      0.500527   317A      0.502349  
     318A      0.503193   319A      0.505921   320A      0.509660  
     321A      0.512144   322A      0.513455   323A      0.516735  
     324A      0.518262   325A      0.520699   326A      0.523883  
     327A      0.526044   328A      0.532340   329A      0.535347  
     330A      0.536195   331A      0.536826   332A      0.537981  
     333A      0.540280   334A      0.543086   335A      0.546146  
     336A      0.547994   337A      0.551068   338A      0.552463  
     339A      0.557701   340A      0.558287   341A      0.560250  
     342A      0.561645   343A      0.562549   344A      0.564914  
     345A      0.568058   346A      0.569124   347A      0.573262  
     348A      0.578470   349A      0.579285   350A      0.582684  
     351A      0.583099   352A      0.586425   353A      0.589378  
     354A      0.593470   355A      0.594399   356A      0.597794  
     357A      0.599325   358A      0.600748   359A      0.601312  
     360A      0.603666   361A      0.604579   362A      0.606062  
     363A      0.607147   364A      0.612044   365A      0.615924  
     366A      0.618149   367A      0.619743   368A      0.623019  
     369A      0.627112   370A      0.627687   371A      0.629269  
     372A      0.633164   373A      0.640162   374A      0.644613  
     375A      0.645190   376A      0.647021   377A      0.651444  
     378A      0.658983   379A      0.668302   380A      0.669134  
     381A      0.670821   382A      0.673179   383A      0.675045  
     384A      0.676933   385A      0.677173   386A      0.677549  
     387A      0.680599   388A      0.682222   389A      0.683030  
     390A      0.684112   391A      0.684961   392A      0.686441  
     393A      0.690389   394A      0.693451   395A      0.695536  
     396A      0.699149   397A      0.700751   398A      0.704110  
     399A      0.707807   400A      0.708170   401A      0.709068  
     402A      0.710641   403A      0.717290   404A      0.724267  
     405A      0.724710   406A      0.725830   407A      0.728845  
     408A      0.735492   409A      0.752012   410A      0.757366  
     411A      0.761844   412A      0.764474   413A      0.766564  
     414A      0.767482   415A      0.768298   416A      0.773020  
     417A      0.783395   418A      0.783883   419A      0.788665  
     420A      0.795752   421A      0.798769   422A      0.801020  
     423A      0.802132   424A      0.808960   425A      0.810127  
     426A      0.810920   427A      0.813173   428A      0.819809  
     429A      0.820939   430A      0.822887   431A      0.828514  
     432A      0.831863   433A      0.836320   434A      0.844459  
     435A      0.857575   436A      0.860328   437A      0.863423  
     438A      0.872530   439A      0.874682   440A      0.876706  
     441A      0.881735   442A      0.882374   443A      0.888758  
     444A      0.902234   445A      0.909510   446A      0.911080  
     447A      0.917657   448A      0.920063   449A      0.920383  
     450A      0.921235   451A      0.930638   452A      0.933174  
     453A      0.936226   454A      0.937270   455A      0.946532  
     456A      0.949589   457A      0.952033   458A      0.966609  
     459A      0.970188   460A      0.973584   461A      0.977303  
     462A      0.977721   463A      0.979453   464A      0.981803  
     465A      0.988170   466A      1.000477   467A      1.003591  
     468A      1.011153   469A      1.015535   470A      1.017363  
     471A      1.019620   472A      1.020436   473A      1.045584  
     474A      1.062490   475A      1.065394   476A      1.070354  
     477A      1.072571   478A      1.082667   479A      1.086014  
     480A      1.088220   481A      1.095828   482A      1.097586  
     483A      1.098141   484A      1.103841   485A      1.106954  
     486A      1.110257   487A      1.118929   488A      1.122625  
     489A      1.130279   490A      1.131360   491A      1.135079  
     492A      1.141974   493A      1.152501   494A      1.175164  
     495A      1.177696   496A      1.188786   497A      1.193369  
     498A      1.205930   499A      1.208486   500A      1.211837  
     501A      1.214385   502A      1.215685   503A      1.219918  
     504A      1.223719   505A      1.235714   506A      1.235851  
     507A      1.236734   508A      1.238816   509A      1.239556  
     510A      1.251183   511A      1.279319   512A      1.280143  
     513A      1.290409   514A      1.338314   515A      1.351558  
     516A      1.357174   517A      1.360302   518A      1.367936  
     519A      1.370703   520A      1.373216   521A      1.374956  
     522A      1.381203   523A      1.392586   524A      1.399884  
     525A      1.405419   526A      1.410997   527A      1.431860  
     528A      1.448316   529A      1.463837   530A      1.468484  
     531A      1.470935   532A      1.473939   533A      1.482913  
     534A      1.492934   535A      1.499134   536A      1.505279  
     537A      1.520017   538A      1.528678   539A      1.536520  
     540A      1.541039   541A      1.559524   542A      1.567009  
     543A      1.572724   544A      1.574794   545A      1.577953  
     546A      1.581862   547A      1.587062   548A      1.596222  
     549A      1.600167   550A      1.605198   551A      1.609054  
     552A      1.615077   553A      1.633295   554A      1.639617  
     555A      1.648196   556A      1.661645   557A      1.663338  
     558A      1.666342   559A      1.669886   560A      1.671209  
     561A      1.677775   562A      1.683842   563A      1.687120  
     564A      1.689339   565A      1.693992   566A      1.697212  
     567A      1.698716   568A      1.707457   569A      1.708921  
     570A      1.711293   571A      1.714959   572A      1.717902  
     573A      1.721317   574A      1.725633   575A      1.730905  
     576A      1.734059   577A      1.738380   578A      1.740236  
     579A      1.740763   580A      1.742212   581A      1.744028  
     582A      1.745823   583A      1.747732   584A      1.748743  
     585A      1.759674   586A      1.762632   587A      1.767028  
     588A      1.770118   589A      1.771299   590A      1.772124  
     591A      1.776998   592A      1.779679   593A      1.786224  
     594A      1.789887   595A      1.791314   596A      1.792257  
     597A      1.796032   598A      1.798066   599A      1.799595  
     600A      1.801312   601A      1.808474   602A      1.810931  
     603A      1.814264   604A      1.817713   605A      1.818218  
     606A      1.818838   607A      1.822559   608A      1.826456  
     609A      1.829664   610A      1.831822   611A      1.835385  
[...]
     814A      1.760845   815A      1.762216   816A      1.763783  
     817A      1.768428   818A      1.775765   819A      1.777890  
     820A      1.780896   821A      1.788185   822A      1.793237  
     823A      1.794143   824A      1.798900   825A      1.807354  
     826A      1.817647   827A      1.818431   828A      1.820807  
     829A      1.824467   830A      1.825578   831A      1.836107  
     832A      1.837423   833A      1.838524   834A      1.838979  
     835A      1.845151   836A      1.848706   837A      1.856408  
     838A      1.859962   839A      1.862401   840A      1.863170  
     841A      1.865583   842A      1.868049   843A      1.875250  
     844A      1.877222   845A      1.879992   846A      1.881805  
     847A      1.884339   848A      1.894078   849A      1.896855  
     850A      1.899800   851A      1.903655   852A      1.908510  
     853A      1.910223   854A      1.911499   855A      1.912775  
     856A      1.913658   857A      1.918477   858A      1.919950  
     859A      1.920813   860A      1.922714   861A      1.924349  
     862A      1.927505   863A      1.928459   864A      1.938325  
     865A      1.943445   866A      1.944549   867A      1.946425  
     868A      1.949522   869A      1.950889   870A      1.952644  
     871A      1.954402   872A      1.957847   873A      1.961308  
     874A      1.964104   875A      1.967411   876A      1.972388  
     877A      1.982585   878A      1.985552   879A      1.989937  
     880A      1.998098   881A      1.999971   882A      2.001839  
     883A      2.003283   884A      2.007131   885A      2.010022  
     886A      2.013557   887A      2.016778   888A      2.017744  
     889A      2.019772   890A      2.029160   891A      2.031428  
     892A      2.033330   893A      2.034458   894A      2.037009  
     895A      2.041203   896A      2.043116   897A      2.044509  
     898A      2.044899   899A      2.049193   900A      2.054128  
     901A      2.055368   902A      2.061276   903A      2.064246  
     904A      2.065180   905A      2.067648   906A      2.072388  
     907A      2.073219   908A      2.076101   909A      2.079536  
     910A      2.081250   911A      2.083791   912A      2.086783  
     913A      2.088917   914A      2.091971   915A      2.094957  
     916A      2.098529   917A      2.100496   918A      2.101084  
     919A      2.103445   920A      2.105964   921A      2.106395  
     922A      2.109428   923A      2.110906   924A      2.111413  
     925A      2.114235   926A      2.117089   927A      2.118913  
     928A      2.121381   929A      2.122432   930A      2.124779  
     931A      2.128420   932A      2.128889   933A      2.130861  
     934A      2.131302   935A      2.132640   936A      2.135668  
     937A      2.137528   938A      2.140115   939A      2.142123  
     940A      2.143480   941A      2.143998   942A      2.149591  
     943A      2.156719   944A      2.157999   945A      2.159246  
     946A      2.164726   947A      2.166396   948A      2.171804  
     949A      2.175484   950A      2.183179   951A      2.184408  
     952A      2.187095   953A      2.192428   954A      2.192666  
     955A      2.195532   956A      2.196382   957A      2.197973  
     958A      2.199360   959A      2.204541   960A      2.215504  
     961A      2.219718   962A      2.219809   963A      2.225288  
     964A      2.229192   965A      2.234072   966A      2.237083  
     967A      2.238748   968A      2.242188   969A      2.244183  
     970A      2.245966   971A      2.247532   972A      2.248870  
     973A      2.250413   974A      2.255346   975A      2.259679  
     976A      2.262518   977A      2.268543   978A      2.270472  
     979A      2.272090   980A      2.273186   981A      2.274905  
     982A      2.279878   983A      2.281418   984A      2.286973  
     985A      2.295064   986A      2.302450   987A      2.304907  
     988A      2.308513   989A      2.314677   990A      2.318844  
     991A      2.321195   992A      2.325930   993A      2.332982  
     994A      2.335553   995A      2.342269   996A      2.343697  
     997A      2.348663   998A      2.353809   999A      2.354498  
    1000A      2.355516  1001A      2.359428  1002A      2.361717  
    1003A      2.371316  1004A      2.373558  1005A      2.377533  
    1006A      2.384782  1007A      2.387981  1008A      2.394809  
    1009A      2.401269  1010A      2.411796  1011A      2.415872  
    1012A      2.419923  1013A      2.424062  1014A      2.425369  
    1015A      2.426055  1016A      2.426979  1017A      2.436826  
    1018A      2.437865  1019A      2.449135  1020A      2.454008  
    1021A      2.472221  1022A      2.473580  1023A      2.480850  
    1024A      2.485440  1025A      2.488758  1026A      2.490928  
    1027A      2.491575  1028A      2.512557  1029A      2.513951  
    1030A      2.524397  1031A      2.525461  1032A      2.532388  
    1033A      2.540769  1034A      2.545977  1035A      2.552024  
    1036A      2.552946  1037A      2.555323  1038A      2.555504  
    1039A      2.557417  1040A      2.560169  1041A      2.561600  
    1042A      2.562917  1043A      2.573519  1044A      2.573883  
    1045A      2.575242  1046A      2.579834  1047A      2.585726  
    1048A      2.586562  1049A      2.592972  1050A      2.594245  
    1051A      2.597673  1052A      2.601587  1053A      2.609628  
    1054A      2.616831  1055A      2.622768  1056A      2.624317  
    1057A      2.628559  1058A      2.631472  1059A      2.642232  
    1060A      2.643925  1061A      2.644960  1062A      2.649264  
    1063A      2.653376  1064A      2.656563  1065A      2.659341  
    1066A      2.663419  1067A      2.669873  1068A      2.677378  
    1069A      2.684209  1070A      2.697899  1071A      2.704900  
    1072A      2.710303  1073A      2.713773  1074A      2.714329  
    1075A      2.714940  1076A      2.716620  1077A      2.720426  
    1078A      2.722256  1079A      2.724583  1080A      2.732605  
    1081A      2.736916  1082A      2.747987  1083A      2.751252  
    1084A      2.765055  1085A      2.766989  1086A      2.777276  
    1087A      2.789636  1088A      2.792035  1089A      2.805762  
    1090A      2.812002  1091A      2.817473  1092A      2.832026  
    1093A      2.834184  1094A      2.840374  1095A      2.853570  
    1096A      2.856518  1097A      2.859040  1098A      2.859934  
    1099A      2.865728  1100A      2.873941  1101A      2.881705  
    1102A      2.894513  1103A      2.903783  1104A      2.918030  
    1105A      2.921614  1106A      2.923254  1107A      2.930961  
    1108A      2.936350  1109A      2.943264  1110A      2.948687  
    1111A      2.958511  1112A      2.962694  1113A      2.966073  
    1114A      2.974030  1115A      2.993680  1116A      3.005268  
    1117A      3.016041  1118A      3.019375  1119A      3.039481  
    1120A      3.040157  1121A      3.050558  1122A      3.061787  
    1123A      3.066608  1124A      3.072035  1125A      3.075402  
    1126A      3.085155  1127A      3.102026  1128A      3.120289  
    1129A      3.122053  1130A      3.132771  1131A      3.134860  
    1132A      3.140515  1133A      3.143187  1134A      3.147877  
    1135A      3.149111  1136A      3.152079  1137A      3.154751  
    1138A      3.156913  1139A      3.160958  1140A      3.166439  
    1141A      3.171352  1142A      3.178272  1143A      3.179653  
    1144A      3.189150  1145A      3.194038  1146A      3.214789  
    1147A      3.232190  1148A      3.247780  1149A      3.263961  
    1150A      3.278635  1151A      3.283604  1152A      3.290029  
    1153A      3.300889  1154A      3.306680  1155A      3.329382  
    1156A      3.337570  1157A      3.354753  1158A      3.394714  
    1159A      3.419865  1160A      3.424325  1161A      3.443144  
    1162A      3.475237  1163A      3.498576  1164A      3.501469  
    1165A      3.552572  1166A      3.567453  1167A      3.615877  
    1168A      3.617795  1169A      3.634797  1170A      3.637801  
    1171A      3.640224  1172A      3.651018  1173A      3.662999  
    1174A      3.669953  1175A      3.683190  1176A      3.692938  
    1177A      3.768515  1178A      3.802462  1179A      3.803833  
    1180A      3.835244  1181A      3.856500  1182A      3.873041  
    1183A      3.873777  1184A      3.897641  1185A      3.917065  
    1186A      3.917408  1187A      3.985361  1188A      4.007838  
    1189A      4.012605  1190A      4.116386  1191A      4.123992  
    1192A      4.160915  1193A      4.296109  1194A      4.297122  
    1195A      4.578269  1196A      4.584092  1197A      4.651713  
    1198A      4.836263  1199A      4.863319  1200A      4.888269  
    1201A      4.941985  1202A      4.993726  1203A      5.096394  
    1204A      5.112190  1205A      5.116272  1206A      5.165805  
    1207A      5.197570  1208A      5.417947  1209A      5.450477  
    1210A      5.784680  1211A      5.787404  1212A      6.085594  
    1213A     18.225051  1214A     18.483301  1215A     18.500074  
    1216A     18.602376  1217A     18.912209  1218A     25.375108  
    1219A     25.413872  

    Final Occupation by Irrep:
              A 
    DOCC [   171 ]
    NA   [   171 ]
    NB   [   171 ]

  @DF-RHF Final Energy: -2055.89641377021417

   => Energetics <=

    Nuclear Repulsion Energy =           6452.5568002797772351
    One-Electron Energy =              -15636.5464327314766706
    Two-Electron Energy =                7128.0932186814852685
    Total Energy =                      -2055.8964137702141670

Computation Completed


Properties will be evaluated at   0.000000,   0.000000,   0.000000 [a0]

Properties computed using the SCF density matrix


 Multipole Moments:

 ------------------------------------------------------------------------------------
     Multipole            Electronic (a.u.)      Nuclear  (a.u.)        Total (a.u.)
 ------------------------------------------------------------------------------------

 L = 1.  Multiply by 2.5417464519 to convert [e a0] to [Debye]
 Dipole X            :          0.0000206           -0.0000085            0.0000121
 Dipole Y            :          0.0019711           -0.0028843           -0.0009132
 Dipole Z            :        263.0510870         -263.0517343           -0.0006474
 Magnitude           :                                                    0.0011194

 ------------------------------------------------------------------------------------

*** tstop() called on d-3-8-3 at Mon Jan 22 17:16:09 2024
Module time:
	user time   =    2928.88 seconds =      48.81 minutes
	system time =     202.17 seconds =       3.37 minutes
	total time  =        470 seconds =       7.83 minutes
Total time:
	user time   =    8984.52 seconds =     149.74 minutes
	system time =     718.06 seconds =      11.97 minutes
	total time  =       2211 seconds =      36.85 minutes
  Constructing Basis Sets for SAPT...

   => Loading Basis Set <=

    Name: (JUN-CC-PVDZ AUX)
    Role: RIFIT
    Keyword: DF_BASIS_SAPT
    atoms 1-2, 4-5, 10, 17-70 entry C          line   100 file /home/gridsan/tfroembgen/.conda/envs/psi4test/share/psi4/basis/jun-cc-pvdz-ri.gbs 
    atoms 3, 6                entry N          line   144 file /home/gridsan/tfroembgen/.conda/envs/psi4test/share/psi4/basis/jun-cc-pvdz-ri.gbs 
    atoms 7-9, 11-16, 71-88   entry H          line    30 file /home/gridsan/tfroembgen/.conda/envs/psi4test/share/psi4/basis/jun-cc-pvdz-ri.gbs 

   => Loading Basis Set <=

    Name: (JUN-CC-PVDZ AUX)
    Role: JKFIT
    Keyword: DF_BASIS_ELST
    atoms 1-2, 4-5, 10, 17-70 entry C          line   146 file /home/gridsan/tfroembgen/.conda/envs/psi4test/share/psi4/basis/jun-cc-pvdz-jkfit.gbs 
    atoms 3, 6                entry N          line   202 file /home/gridsan/tfroembgen/.conda/envs/psi4test/share/psi4/basis/jun-cc-pvdz-jkfit.gbs 
    atoms 7-9, 11-16, 71-88   entry H          line    70 file /home/gridsan/tfroembgen/.conda/envs/psi4test/share/psi4/basis/jun-cc-pvdz-jkfit.gbs 


  //>>>>>>>>>>>>>>>>>>>>>>>>>>>>>>>>>>>//
  //               SSAPT0              //
  //<<<<<<<<<<<<<<<<<<<<<<<<<<<<<<<<<<<//


*** tstart() called on d-3-8-3
*** at Mon Jan 22 17:16:10 2024

        SAPT0  
    Ed Hohenstein
     6 June 2009

      Orbital Information
  --------------------------
    NSO        =      1233
    NMO        =      1219
    NRI        =      4343
    NRI (Elst) =      5440
    NOCC A     =        26
    NOCC B     =       171
    FOCC A     =         7
    FOCC B     =        54
    NVIR A     =      1193
    NVIR B     =      1048

    Elst10,r            =    -0.030719689190 [Eh]
    Exch10              =     0.049844603061 [Eh]
    Exch10 (S^2)        =     0.049558394339 [Eh]

    Iter     Energy [mEh]          dE [mEh]         Residual      Time [s]
       1      -5.52217945       5.522179451      10.680675390           419
       2      -6.94738832       1.425208864       2.230096538           794
       3      -6.97674115       0.029352832       0.717574347          1166
       4      -6.95957104      -0.017170104       0.259975239          1548
       5      -6.95712938      -0.002441663       0.057603657          1918
       6      -6.95810209       0.000972713       0.025192072          2400
       7      -6.95834609       0.000243997       0.008932419          2845
       8      -6.95820070      -0.000145387       0.003004144          3210
       9      -6.95820870       0.000007992       0.001215357          3548
      10      -6.95821935       0.000010658       0.000335717          3895
      11      -6.95821780      -0.000001550       0.000093300          4183
      12      -6.95821736      -0.000000447       0.000031952          4358
      13      -6.95821745       0.000000096       0.000009641          4518
      14      -6.95821749       0.000000042       0.000004336          4668
      15      -6.95821749      -0.000000007       0.000001709          4715
      16      -6.95821748      -0.000000009       0.000000508          4895

    CHF Iterations converged


    Iter     Energy [mEh]          dE [mEh]         Residual      Time [s]
       1     -27.22715116      27.227151157      73.401856800           230
       2     -21.94613895      -5.281012210      12.222376367           576
       3     -23.00614160       1.060002655       5.846271623           854
       4     -23.76354779       0.757406186       0.969077614           896
       5     -23.76606415       0.002516364       0.377447159           938
       6     -23.74623118      -0.019832972       0.163503376           958
       7     -23.74337063      -0.002860551       0.080676143           976
       8     -23.74681853       0.003447900       0.044537288           993
       9     -23.74736348       0.000544956       0.020497457          1015
      10     -23.74680101      -0.000562474       0.011918178          1070
      11     -23.74663733      -0.000163679       0.006300943          1090
      12     -23.74676477       0.000127439       0.003356902          1108
      13     -23.74679997       0.000035201       0.001774543          1393
      14     -23.74678431      -0.000015662       0.001021602          1480
      15     -23.74676555      -0.000018761       0.000581537          1500
      16     -23.74676925       0.000003699       0.000310837          1642
      17     -23.74677539       0.000006143       0.000136215          1666
      18     -23.74677368      -0.000001707       0.000082614          1691
      19     -23.74677261      -0.000001078       0.000042764          1714
      20     -23.74677281       0.000000209       0.000019058          1736
      21     -23.74677316       0.000000345       0.000008734          1756
      22     -23.74677312      -0.000000041       0.000004610          1792
      23     -23.74677305      -0.000000072       0.000002212          1815
      24     -23.74677305       0.000000003       0.000000943          1838

    CHF Iterations converged

    Ind20,r (A<-B)      =    -0.006958217478 [Eh]
    Ind20,r (B<-A)      =    -0.023746773051 [Eh]
    Ind20,r             =    -0.030704990528 [Eh]
    Exch-Ind20,r (A<-B) =     0.006727611985 [Eh]
    Exch-Ind20,r (B<-A) =     0.010124765661 [Eh]
    Exch-Ind20,r        =     0.016852377645 [Eh]
    Disp20              =    -0.052133770273 [Eh]
    Disp20 (SS)         =    -0.026066885136 [Eh]
    Disp20 (OS)         =    -0.026066885136 [Eh]
    Exch-Disp20         =     0.005186736422 [Eh]
    Exch-Disp20 (SS)    =     0.003121222696 [Eh]
    Exch-Disp20 (OS)    =     0.002065513727 [Eh]

    SAPT Results 
  --------------------------------------------------------------------------------------------------------
    Electrostatics                -30.71968919 [mEh]     -19.27689600 [kcal/mol]     -80.65453286 [kJ/mol]
      Elst10,r                    -30.71968919 [mEh]     -19.27689600 [kcal/mol]     -80.65453286 [kJ/mol]

    Exchange                       49.84460306 [mEh]      31.27796064 [kcal/mol]     130.86698731 [kJ/mol]
      Exch10                       49.84460306 [mEh]      31.27796064 [kcal/mol]     130.86698731 [kJ/mol]
      Exch10(S^2)                  49.55839434 [mEh]      31.09836195 [kcal/mol]     130.11554641 [kJ/mol]

    Induction                     -18.23488008 [mEh]     -11.44256000 [kcal/mol]     -47.87567106 [kJ/mol]
      Ind20,r                     -30.70499053 [mEh]     -19.26767245 [kcal/mol]     -80.61594153 [kJ/mol]
      Exch-Ind20,r                 16.85237765 [mEh]      10.57502663 [kcal/mol]      44.24591141 [kJ/mol]
      delta HF,r (2)               -4.38226720 [mEh]      -2.74991418 [kcal/mol]     -11.50564094 [kJ/mol]

    Dispersion                    -46.94703385 [mEh]     -29.45970851 [kcal/mol]    -123.25942039 [kJ/mol]
      Disp20                      -52.13377027 [mEh]     -32.71443475 [kcal/mol]    -136.87719499 [kJ/mol]
      Exch-Disp20                   5.18673642 [mEh]       3.25472624 [kcal/mol]      13.61777460 [kJ/mol]
      Disp20 (SS)                 -26.06688514 [mEh]     -16.35721738 [kcal/mol]     -68.43859750 [kJ/mol]
      Disp20 (OS)                 -26.06688514 [mEh]     -16.35721738 [kcal/mol]     -68.43859750 [kJ/mol]
      Exch-Disp20 (SS)              3.12122270 [mEh]       1.95859681 [kcal/mol]       8.19476906 [kJ/mol]
      Exch-Disp20 (OS)              2.06551373 [mEh]       1.29612943 [kcal/mol]       5.42300554 [kJ/mol]

  Total HF                          0.89003379 [mEh]       0.55850463 [kcal/mol]       2.33678339 [kJ/mol]
  Total SAPT0                     -46.05700006 [mEh]     -28.90120387 [kcal/mol]    -120.92263700 [kJ/mol]

  Special recipe for scaled SAPT0 (see Manual):
    Electrostatics sSAPT0         -30.71968919 [mEh]     -19.27689600 [kcal/mol]     -80.65453286 [kJ/mol]
    Exchange sSAPT0                49.84460306 [mEh]      31.27796064 [kcal/mol]     130.86698731 [kJ/mol]
    Induction sSAPT0              -17.94121400 [mEh]     -11.25828176 [kcal/mol]     -47.10465086 [kJ/mol]
    Dispersion sSAPT0             -46.85665084 [mEh]     -29.40299231 [kcal/mol]    -123.02211984 [kJ/mol]
  Total sSAPT0                    -45.67295097 [mEh]     -28.66020943 [kcal/mol]    -119.91431626 [kJ/mol]
  --------------------------------------------------------------------------------------------------------

*** tstop() called on d-3-8-3 at Mon Jan 22 19:58:03 2024
Module time:
	user time   =    8728.71 seconds =     145.48 minutes
	system time =    1308.94 seconds =      21.82 minutes
	total time  =       9713 seconds =     161.88 minutes
Total time:
	user time   =   17714.07 seconds =     295.23 minutes
	system time =    2027.01 seconds =      33.78 minutes
	total time  =      11925 seconds =     198.75 minutes

    Psi4 stopped on: Monday, 22 January 2024 07:58PM
    Psi4 wall time for execution: 3:18:45.92

*** Psi4 exiting successfully. Buy a developer a beer!
