
    -----------------------------------------------------------------------
          Psi4: An Open-Source Ab Initio Electronic Structure Package
                               Psi4 1.9 release

                         Git: Rev {} zzzzzzz 


    D. G. A. Smith, L. A. Burns, A. C. Simmonett, R. M. Parrish,
    M. C. Schieber, R. Galvelis, P. Kraus, H. Kruse, R. Di Remigio,
    A. Alenaizan, A. M. James, S. Lehtola, J. P. Misiewicz, M. Scheurer,
    R. A. Shaw, J. B. Schriber, Y. Xie, Z. L. Glick, D. A. Sirianni,
    J. S. O'Brien, J. M. Waldrop, A. Kumar, E. G. Hohenstein,
    B. P. Pritchard, B. R. Brooks, H. F. Schaefer III, A. Yu. Sokolov,
    K. Patkowski, A. E. DePrince III, U. Bozkaya, R. A. King,
    F. A. Evangelista, J. M. Turney, T. D. Crawford, C. D. Sherrill,
    J. Chem. Phys. 152(18) 184108 (2020). https://doi.org/10.1063/5.0006002

                            Additional Code Authors
    E. T. Seidl, C. L. Janssen, E. F. Valeev, M. L. Leininger,
    J. F. Gonthier, R. M. Richard, H. R. McAlexander, M. Saitow, X. Wang,
    P. Verma, M. H. Lechner, A. Jiang, S. Behnle, A. G. Heide,
    M. F. Herbst, and D. L. Poole

             Previous Authors, Complete List of Code Contributors,
                       and Citations for Specific Modules
    https://github.com/psi4/psi4/blob/master/codemeta.json
    https://github.com/psi4/psi4/graphs/contributors
    http://psicode.org/psi4manual/master/introduction.html#citing-psifour

    -----------------------------------------------------------------------


    Psi4 started on: Monday, 22 January 2024 05:00PM

    Process ID: 2412167
    Host:       d-16-12-3
    PSIDATADIR: /home/gridsan/tfroembgen/.conda/envs/psi4test/share/psi4
    Memory:     500.0 MiB
    Threads:    12
    
  ==> Input File <==

--------------------------------------------------------------------------
memory 32 GB # how much memory is available ! Depends on the nodes/cores !

molecule dimer {
# monomer A
+1 1    # Charge and multiplicity
C  0.680067 -1.215929 6.208042
C -0.680504 -1.215545 6.206014
N -1.085635  0.102779 6.205016
C  0.000108  0.884180 6.201740
C -2.477365  0.570758 6.155610
N  1.085222  0.102779 6.205016
H  1.385146 -2.033368 6.215870
H -1.385302 -2.033214 6.206204
H -0.000009  1.965269 6.199993
C  2.478117  0.567877 6.221908
H  2.490592  1.658130 6.194563
H  2.967028  0.220701 7.135354
H  3.001428  0.176405 5.346425
H -2.857359  0.490799 5.133539
H -3.082679 -0.042306 6.825694
H -2.518128  1.610706 6.482594
--
# monomer B
0 1     # Charge and multiplicity
C   1.22531237526482      0.70753866091955      0.00613762728373
C   1.22532433589282     -0.70753852257020     -0.00619318228664
C   -0.00000567409046      1.41496628609039     -0.00672680580738
C   2.45644923379077      1.41832825917820      0.00902448468363
C   0.00001130712078     -1.41497612663474      0.00347275151708
C   -1.22530046906674      0.70754574598412      0.00838914760619
C   2.45643823516184     -1.41832293188077     -0.00843833914343
C   -0.00000085313587      2.83680140328112     -0.00913035594137
C   3.68182717731192      0.70931832800114     -0.00808954934571
C   2.45512052870677      2.83422403348893     -0.00819210630633
C   3.68182158506039     -0.70933346742900      0.00798293467272
C   -1.22531311884624     -0.70752714354401     -0.00512042085974
C   1.22670006104402      3.54346985599427      0.00816696660346
C   0.00000526469929     -2.83678176723568      0.00832091913869
C   -2.45643555300670      1.41831729028492      0.00842454345199
C   2.45512389762097     -2.83422965658853      0.00783102630520
C   -1.22671388474763      3.54346943575023      0.00827029982280
C   4.91451777504333      1.42717324448953     -0.00160886631602
C   3.69315067131765      3.54279566454522     -0.00155906667985
C   -2.45643712022637     -1.41831290883911     -0.00846337726810
C   1.22670532178455     -3.54347386990643     -0.00780316414624
C   -2.45512491866593      2.83421703463423     -0.00818572995999
C   4.91452486062398     -1.42718653794377      0.00136387641845
C   1.22142509354026      4.97013443726031      0.00150231067809
C   4.89300870916237      2.82518837202648     -0.00039219795739
C   -1.22669652864725     -3.54347062507680     -0.00753595973677
C   -3.68181849668397      0.70932533873199     -0.00807686886569
C   3.69314758099218     -3.54280096939050      0.00148176697923
C   -1.22143177215231      4.97012866986289      0.00168580605083
C   6.13477145276790      0.68054831910577     -0.00083909176631
C   3.65678936045204      4.97295361556775     -0.00065042889723
C   -2.45512642789169     -2.83421472106065      0.00758666850712
C   -3.68181869921921     -0.70932533146830      0.00810055625144
C   4.89301309775526     -2.82519973363176      0.00021895393805
C   -0.00000059327114      5.65044773803267      0.00045449734393
C   6.13477559217374     -0.68055448207492      0.00042622874941
C   2.47813196269732      5.65357712333155      0.00063835075260
C   1.22142288457925     -4.97012668293268     -0.00129718634452
C   -3.69316190412301      3.54279732619245     -0.00139355922051
C   -1.22142804110313     -4.97011793159564     -0.00140994817719
C   -4.91452132810043      1.42717581899491     -0.00153192130862
C   3.65678749952045     -4.97295485423912      0.00080007163680
C   -2.47813805026426      5.65357479452875      0.00092287576113
C   -3.69314125872231     -3.54278984697859      0.00136564082345
C   -4.91451200321153     -1.42718062802730      0.00139857359209
C   -0.00000552908399     -5.65043791501335      0.00005899322272
C   -4.89302000425900      2.82518897091939     -0.00040227981744
C   2.47812647313991     -5.65357317188818     -0.00029052915548
C   -3.65679823041642      4.97295655404175     -0.00047374852278
C   -4.89299899901461     -2.82519139505969      0.00006491824035
C   -2.47812801824129     -5.65356579800621     -0.00056571680280
C   -6.13477002348955      0.68054913825639     -0.00086464346868
C   -3.65678835334731     -4.97294365097028      0.00058578382008
C   -6.13476456307132     -0.68055354348201      0.00040575295444
H   5.83528897565761      3.36927626695423      0.00396712770529
H   7.07385965258860      1.22821762089947     -0.00037744837300
H   4.60066374401555      5.51238117445323     -0.00014522814529
H   5.83528386714679     -3.36930568472863     -0.00423551337640
H   -0.00001167146422      6.73853104613662     -0.00389474766392
H   7.07386165167227     -1.22822657074368     -0.00008250934481
H   2.47331421164041      6.74068466339473      0.00017162982210
H   4.60066897122302     -5.51237575717576      0.00039007446835
H   -2.47331820069565      6.74068209160650      0.00047297644710
H   -0.00000978838621     -6.73852780445195      0.00458867820736
H   -5.83530143450167      3.36927132229595      0.00410314985360
H   2.47330840367253     -6.74068500242887      0.00027980126949
H   -4.60067436136587      5.51237839860371      0.00002010017831
H   -5.83527902699321     -3.36928859177951     -0.00451481925734
H   -2.47329986759855     -6.74067870613986     -0.00016951527498
H   -7.07385728692578      1.22822084484047     -0.00046143985387
H   -4.60067330624313     -5.51236229778631      0.00021776644566
H   -7.07385645456741     -1.22822025997701     -0.00017736581114

    units angstrom      # Angstroms are the default
    no_reorient         # Geometry fixed, default
    symmetry c1         # C1 symmetry, default
}

set {
    scf_type DF         # Density fitting, faster than exact integrals
    freeze_core True    # Freeze core electrons
    basis jun-cc-pVDZ   # Jun-cc-pVDZ basis set, recommended for sSAPT0 in https://doi.org/10.1063/1.4867135
}

energy('ssapt0')        # Compute sSAPT0 energy, includes also SAPT0
--------------------------------------------------------------------------

  Memory set to  29.802 GiB by Python driver.

Scratch directory: /state/partition1/slurm_tmp/24798251.4294967291.0/
   => Loading Basis Set <=

    Name: JUN-CC-PVDZ
    Role: ORBITAL
    Keyword: BASIS
    atoms 1-2, 4-5, 10, 17-70 entry C          line   164 file /home/gridsan/tfroembgen/.conda/envs/psi4test/share/psi4/basis/jun-cc-pvdz.gbs 
    atoms 3, 6                entry N          line   198 file /home/gridsan/tfroembgen/.conda/envs/psi4test/share/psi4/basis/jun-cc-pvdz.gbs 
    atoms 7-9, 11-16, 71-88   entry H          line    36 file /home/gridsan/tfroembgen/.conda/envs/psi4test/share/psi4/basis/jun-cc-pvdz.gbs 

   => Loading Basis Set <=

    Name: JUN-CC-PVDZ
    Role: ORBITAL
    Keyword: BASIS
    atoms 1-2, 4-5, 10, 17-70 entry C          line   164 file /home/gridsan/tfroembgen/.conda/envs/psi4test/share/psi4/basis/jun-cc-pvdz.gbs 
    atoms 3, 6                entry N          line   198 file /home/gridsan/tfroembgen/.conda/envs/psi4test/share/psi4/basis/jun-cc-pvdz.gbs 
    atoms 7-9, 11-16, 71-88   entry H          line    36 file /home/gridsan/tfroembgen/.conda/envs/psi4test/share/psi4/basis/jun-cc-pvdz.gbs 


  //>>>>>>>>>>>>>>>>>>>>>>>>>>>>>>>>>>>//
  //              Dimer HF             //
  //<<<<<<<<<<<<<<<<<<<<<<<<<<<<<<<<<<<//

   => Libint2 <=

    Primary   basis highest AM E, G, H:  7, 7, 4
    Auxiliary basis highest AM E, G, H:  7, 7, 5
    Onebody   basis highest AM E, G, H:  7, 7, 5
    Solid Harmonics ordering:            gaussian

*** tstart() called on d-16-12-3
*** at Mon Jan 22 17:00:23 2024

   => Loading Basis Set <=

    Name: JUN-CC-PVDZ
    Role: ORBITAL
    Keyword: BASIS
    atoms 1-2, 4-5, 10, 17-70 entry C          line   164 file /home/gridsan/tfroembgen/.conda/envs/psi4test/share/psi4/basis/jun-cc-pvdz.gbs 
    atoms 3, 6                entry N          line   198 file /home/gridsan/tfroembgen/.conda/envs/psi4test/share/psi4/basis/jun-cc-pvdz.gbs 
    atoms 7-9, 11-16, 71-88   entry H          line    36 file /home/gridsan/tfroembgen/.conda/envs/psi4test/share/psi4/basis/jun-cc-pvdz.gbs 


         ---------------------------------------------------------
                                   SCF
               by Justin Turney, Rob Parrish, Andy Simmonett
                          and Daniel G. A. Smith
                              RHF Reference
                       12 Threads,  30517 MiB Core
         ---------------------------------------------------------

  ==> Geometry <==

    Molecular point group: c1
    Full point group: C1

    Geometry (in Angstrom), charge = 1, multiplicity = 1:

       Center              X                  Y                   Z               Mass       
    ------------   -----------------  -----------------  -----------------  -----------------
         C            0.680066520158    -1.215933861162     5.419442222125    12.000000000000
         C           -0.680504479842    -1.215549861162     5.417414222125    12.000000000000
         N           -1.085635479842     0.102774138838     5.416416222125    14.003074004430
         C            0.000107520158     0.884175138838     5.413140222125    12.000000000000
         C           -2.477365479842     0.570753138838     5.367010222125    12.000000000000
         N            1.085221520158     0.102774138838     5.416416222125    14.003074004430
         H            1.385145520158    -2.033372861162     5.427270222125     1.007825032230
         H           -1.385302479842    -2.033218861162     5.417604222125     1.007825032230
         H           -0.000009479842     1.965264138838     5.411393222125     1.007825032230
         C            2.478116520158     0.567872138838     5.433308222125    12.000000000000
         H            2.490591520158     1.658125138838     5.405963222125     1.007825032230
         H            2.967027520158     0.220696138838     6.346754222125     1.007825032230
         H            3.001427520158     0.176400138838     4.557825222125     1.007825032230
         H           -2.857359479842     0.490794138838     4.344939222125     1.007825032230
         H           -3.082679479842    -0.042310861162     6.037094222125     1.007825032230
         H           -2.518128479842     1.610701138838     5.693994222125     1.007825032230
         C            1.225311895423     0.707533799757    -0.782462150591    12.000000000000
         C            1.225323856051    -0.707543383733    -0.794792960162    12.000000000000
         C           -0.000006153932     1.414961424928    -0.795326583682    12.000000000000
         C            2.456448753949     1.418323398016    -0.779575293191    12.000000000000
         C            0.000010827279    -1.414980987797    -0.785127026358    12.000000000000
         C           -1.225300948908     0.707540884822    -0.780210630269    12.000000000000
         C            2.456437755320    -1.418327793043    -0.797038117018    12.000000000000
         C           -0.000001332978     2.836796542119    -0.797730133816    12.000000000000
         C            3.681826697470     0.709313466839    -0.796689327221    12.000000000000
         C            2.455120048865     2.834219172327    -0.796791884181    12.000000000000
         C            3.681821105219    -0.709338328591    -0.780616843202    12.000000000000
         C           -1.225313598688    -0.707532004706    -0.793720198735    12.000000000000
         C            1.226699581202     3.543464994832    -0.780432811271    12.000000000000
         C            0.000004784858    -2.836786628398    -0.780278858736    12.000000000000
         C           -2.456436032848     1.418312429123    -0.780175234423    12.000000000000
         C            2.455123417779    -2.834234517751    -0.780768751570    12.000000000000
         C           -1.226714364589     3.543464574588    -0.780329478052    12.000000000000
         C            4.914517295202     1.427168383327    -0.790208644191    12.000000000000
         C            3.693150191476     3.542790803383    -0.790158844555    12.000000000000
         C           -2.456437600068    -1.418317770001    -0.797063155143    12.000000000000
         C            1.226704841943    -3.543478731069    -0.796402942021    12.000000000000
         C           -2.455125398508     2.834212173472    -0.796785507835    12.000000000000
         C            4.914524380782    -1.427191399106    -0.787235901456    12.000000000000
         C            1.221424613699     4.970129576098    -0.787097467197    12.000000000000
         C            4.893008229321     2.825183510864    -0.788991975832    12.000000000000
         C           -1.226697008489    -3.543475486239    -0.796135737612    12.000000000000
         C           -3.681818976526     0.709320477570    -0.796676646741    12.000000000000
         C            3.693147101150    -3.542805830553    -0.787118010896    12.000000000000
         C           -1.221432251994     4.970123808701    -0.786913971824    12.000000000000
         C            6.134770972926     0.680543457943    -0.789438869641    12.000000000000
         C            3.656788880610     4.972948754405    -0.789250206772    12.000000000000
         C           -2.455126907733    -2.834219582223    -0.781013109368    12.000000000000
         C           -3.681819179061    -0.709330192631    -0.780499221623    12.000000000000
         C            4.893012617914    -2.825204594794    -0.788380823937    12.000000000000
         C           -0.000001073113     5.650442876870    -0.788145280531    12.000000000000
         C            6.134775112332    -0.680559343237    -0.788173549126    12.000000000000
         C            2.478131482856     5.653572262169    -0.787961427122    12.000000000000
         C            1.221422404738    -4.970131544095    -0.789896964219    12.000000000000
         C           -3.693162383965     3.542792465030    -0.789993337095    12.000000000000
         C           -1.221428520945    -4.970122792758    -0.790009726052    12.000000000000
         C           -4.914521807942     1.427170957833    -0.790131699184    12.000000000000
         C            3.656787019679    -4.972959715401    -0.787799706238    12.000000000000
         C           -2.478138530106     5.653569933366    -0.787676902114    12.000000000000
         C           -3.693141738564    -3.542794708141    -0.787234137051    12.000000000000
         C           -4.914512483053    -1.427185489190    -0.787201204283    12.000000000000
         C           -0.000006008926    -5.650442776176    -0.788540784652    12.000000000000
         C           -4.893020484101     2.825184109757    -0.789002057692    12.000000000000
         C            2.478125993298    -5.653578033051    -0.788890307030    12.000000000000
         C           -3.656798710258     4.972951692879    -0.789073526398    12.000000000000
         C           -4.892999478856    -2.825196256222    -0.788534859635    12.000000000000
         C           -2.478128498083    -5.653570659169    -0.789165494678    12.000000000000
         C           -6.134770503331     0.680544277094    -0.789464421344    12.000000000000
         C           -3.656788833189    -4.972948512133    -0.788013994055    12.000000000000
         C           -6.134765042913    -0.680558404644    -0.788194024920    12.000000000000
         H            5.835288495816     3.369271405792    -0.784632650170     1.007825032230
         H            7.073859172747     1.228212759737    -0.788977226248     1.007825032230
         H            4.600663264174     5.512376313291    -0.788745006020     1.007825032230
         H            5.835283387305    -3.369310545891    -0.792835291251     1.007825032230
         H           -0.000012151306     6.738526184974    -0.792494525539     1.007825032230
         H            7.073861171831    -1.228231431906    -0.788682287220     1.007825032230
         H            2.473313731799     6.740679802232    -0.788428148053     1.007825032230
         H            4.600668491381    -5.512380618338    -0.788209703407     1.007825032230
         H           -2.473318680537     6.740677230444    -0.788126801428     1.007825032230
         H           -0.000010268228    -6.738532665614    -0.784011099668     1.007825032230
         H           -5.835301914343     3.369266461134    -0.784496628021     1.007825032230
         H            2.473307923831    -6.740689863591    -0.788319976605     1.007825032230
         H           -4.600674841208     5.512373537441    -0.788579677697     1.007825032230
         H           -5.835279506835    -3.369293452942    -0.793114597132     1.007825032230
         H           -2.473300347440    -6.740683567302    -0.788769293150     1.007825032230
         H           -7.073857766768     1.228215983678    -0.789061217729     1.007825032230
         H           -4.600673786085    -5.512367158949    -0.788382011429     1.007825032230
         H           -7.073856934409    -1.228225121139    -0.788777143686     1.007825032230

  Running in c1 symmetry.

  Rotational constants: A =      0.00154  B =      0.00152  C =      0.00109 [cm^-1]
  Rotational constants: A =     46.22427  B =     45.50975  C =     32.56832 [MHz]
  Nuclear repulsion = 7980.298740072926194

  Charge       = 1
  Multiplicity = 1
  Electrons    = 394
  Nalpha       = 197
  Nbeta        = 197

  ==> Algorithm <==

  SCF Algorithm Type is DF.
  DIIS enabled.
  MOM disabled.
  Fractional occupation disabled.
  Guess Type is SAD.
  Energy threshold   = 1.00e-08
  Density threshold  = 1.00e-08
  Integral threshold = 1.00e-12

  ==> Primary Basis <==

  Basis Set: JUN-CC-PVDZ
    Blend: JUN-CC-PVDZ
    Number of shells: 569
    Number of basis functions: 1233
    Number of Cartesian functions: 1294
    Spherical Harmonics?: true
    Max angular momentum: 2

   => Loading Basis Set <=

    Name: (JUN-CC-PVDZ AUX)
    Role: JKFIT
    Keyword: DF_BASIS_SCF
    atoms 1-2, 4-5, 10, 17-70 entry C          line   146 file /home/gridsan/tfroembgen/.conda/envs/psi4test/share/psi4/basis/jun-cc-pvdz-jkfit.gbs 
    atoms 3, 6                entry N          line   202 file /home/gridsan/tfroembgen/.conda/envs/psi4test/share/psi4/basis/jun-cc-pvdz-jkfit.gbs 
    atoms 7-9, 11-16, 71-88   entry H          line    70 file /home/gridsan/tfroembgen/.conda/envs/psi4test/share/psi4/basis/jun-cc-pvdz-jkfit.gbs 

  ==> Integral Setup <==

  ==> DiskDFJK: Density-Fitted J/K Matrices <==

    J tasked:                  Yes
    K tasked:                  Yes
    wK tasked:                  No
    OpenMP threads:             12
    Integrals threads:          12
    Memory [MiB]:            22888
    Algorithm:                Disk
    Integral Cache:           SAVE
    Schwarz Cutoff:          1E-12
    Fitting Condition:       1E-10

   => Auxiliary Basis Set <=

  Basis Set: (JUN-CC-PVDZ AUX)
    Blend: JUN-CC-PVDZ-JKFIT
    Number of shells: 1890
    Number of basis functions: 5440
    Number of Cartesian functions: 6226
    Spherical Harmonics?: true
    Max angular momentum: 3

  Minimum eigenvalue in the overlap matrix is 8.3618956050E-10.
  Reciprocal condition number of the overlap matrix is 3.7279168288E-11.
    Using canonical orthogonalization.
  Overall, 14 of 1233 possible MOs eliminated.


  ==> Pre-Iterations <==

  SCF Guess: Superposition of Atomic Densities via on-the-fly atomic UHF (no occupation information).

   -------------------------
    Irrep   Nso     Nmo    
   -------------------------
     A       1233    1219 
   -------------------------
    Total    1233    1219
   -------------------------

  ==> Iterations <==

                           Total Energy        Delta E     RMS |[F,P]|

   @DF-RHF iter SAD: -2365.39618038765366   -2.36540e+03   0.00000e+00 
   @DF-RHF iter   1: -2358.19391535190334    7.20227e+00   9.47842e-04 DIIS/ADIIS
   @DF-RHF iter   2: -2359.09169562997295   -8.97780e-01   3.25820e-04 DIIS/ADIIS
   @DF-RHF iter   3: -2359.18458741160157   -9.28918e-02   1.20449e-04 DIIS/ADIIS
   @DF-RHF iter   4: -2359.19813245083651   -1.35450e-02   4.51760e-05 DIIS
   @DF-RHF iter   5: -2359.20012267202719   -1.99022e-03   1.06224e-05 DIIS
   @DF-RHF iter   6: -2359.20030663639318   -1.83964e-04   5.24784e-06 DIIS
   @DF-RHF iter   7: -2359.20037844188664   -7.18055e-05   2.28021e-06 DIIS
   @DF-RHF iter   8: -2359.20039933882617   -2.08969e-05   1.13149e-06 DIIS
   @DF-RHF iter   9: -2359.20040455883827   -5.22001e-06   2.65204e-07 DIIS
   @DF-RHF iter  10: -2359.20040480978741   -2.50949e-07   8.65378e-08 DIIS
   @DF-RHF iter  11: -2359.20040482766854   -1.78811e-08   3.28932e-08 DIIS
   @DF-RHF iter  12: -2359.20040483111006   -3.44153e-09   1.61173e-08 DIIS
   @DF-RHF iter  13: -2359.20040483158300   -4.72937e-10   6.47138e-09 DIIS
  Energy and wave function converged.


  ==> Post-Iterations <==

    Orbital Energies [Eh]
    ---------------------

    Doubly Occupied:                                                      

       1A    -15.820596     2A    -15.820066     3A    -11.515564  
       4A    -11.445909     5A    -11.444356     6A    -11.436183  
       7A    -11.435876     8A    -11.325474     9A    -11.324983  
      10A    -11.324927    11A    -11.323984    12A    -11.323971  
      13A    -11.323487    14A    -11.322869    15A    -11.322774  
      16A    -11.322657    17A    -11.322430    18A    -11.322380  
      19A    -11.321988    20A    -11.321179    21A    -11.321092  
      22A    -11.321005    23A    -11.320941    24A    -11.320668  
      25A    -11.320629    26A    -11.320562    27A    -11.320515  
      28A    -11.320459    29A    -11.320399    30A    -11.320044  
      31A    -11.320002    32A    -11.319997    33A    -11.319958  
      34A    -11.319921    35A    -11.319891    36A    -11.319513  
      37A    -11.319444    38A    -11.319387    39A    -11.319358  
      40A    -11.319337    41A    -11.319295    42A    -11.318813  
      43A    -11.318753    44A    -11.313147    45A    -11.313090  
      46A    -11.312996    47A    -11.312691    48A    -11.312666  
      49A    -11.312458    50A    -11.312435    51A    -11.312429  
      52A    -11.312385    53A    -11.312270    54A    -11.311647  
      55A    -11.311635    56A    -11.311024    57A    -11.311003  
      58A    -11.310995    59A    -11.310953    60A    -11.310210  
      61A    -11.310199    62A     -1.564076    63A     -1.419745  
      64A     -1.308159    65A     -1.283030    66A     -1.282834  
      67A     -1.252038    68A     -1.252020    69A     -1.244190  
      70A     -1.224631    71A     -1.219359    72A     -1.211311  
      73A     -1.198490    74A     -1.198322    75A     -1.175430  
      76A     -1.174892    77A     -1.174868    78A     -1.145060  
      79A     -1.145048    80A     -1.141220    81A     -1.127474  
      82A     -1.127462    83A     -1.105144    84A     -1.101308  
      85A     -1.087409    86A     -1.084882    87A     -1.084799  
      88A     -1.079336    89A     -1.074042    90A     -1.049426  
      91A     -1.049383    92A     -1.023532    93A     -1.023529  
      94A     -1.008555    95A     -0.983014    96A     -0.956091  
      97A     -0.956028    98A     -0.950946    99A     -0.949158  
     100A     -0.949017   101A     -0.943878   102A     -0.943805  
     103A     -0.923491   104A     -0.903255   105A     -0.898130  
     106A     -0.880004   107A     -0.879257   108A     -0.874465  
     109A     -0.874372   110A     -0.855895   111A     -0.855893  
     112A     -0.836385   113A     -0.809298   114A     -0.807275  
     115A     -0.802495   116A     -0.799260   117A     -0.795802  
     118A     -0.795676   119A     -0.793470   120A     -0.793400  
     121A     -0.778445   122A     -0.776292   123A     -0.772359  
     124A     -0.767982   125A     -0.760634   126A     -0.760509  
     127A     -0.755550   128A     -0.755424   129A     -0.722357  
     130A     -0.716186   131A     -0.715069   132A     -0.713583  
     133A     -0.712319   134A     -0.711305   135A     -0.711269  
     136A     -0.703216   137A     -0.700831   138A     -0.700768  
     139A     -0.691712   140A     -0.689514   141A     -0.689491  
     142A     -0.671125   143A     -0.665516   144A     -0.663961  
     145A     -0.661086   146A     -0.660936   147A     -0.655834  
     148A     -0.653908   149A     -0.653799   150A     -0.645650  
     151A     -0.639978   152A     -0.639669   153A     -0.628229  
     154A     -0.628168   155A     -0.628164   156A     -0.628057  
     157A     -0.620809   158A     -0.615819   159A     -0.615691  
     160A     -0.600882   161A     -0.600848   162A     -0.599648  
     163A     -0.599624   164A     -0.591717   165A     -0.591322  
     166A     -0.584499   167A     -0.584365   168A     -0.582230  
     169A     -0.561395   170A     -0.557377   171A     -0.554396  
     172A     -0.550216   173A     -0.547216   174A     -0.543461  
     175A     -0.543414   176A     -0.533641   177A     -0.533400  
     178A     -0.513726   179A     -0.513570   180A     -0.509668  
     181A     -0.500646   182A     -0.500624   183A     -0.467663  
     184A     -0.467653   185A     -0.466300   186A     -0.436712  
     187A     -0.436680   188A     -0.411247   189A     -0.401650  
     190A     -0.400553   191A     -0.400428   192A     -0.372955  
     193A     -0.358807   194A     -0.347420   195A     -0.347395  
     196A     -0.286952   197A     -0.286907  

    Virtual:                                                              

     198A     -0.057227   199A     -0.050686   200A     -0.048086  
     201A     -0.047914   202A     -0.044495   203A     -0.038657  
     204A     -0.021737   205A     -0.019356   206A     -0.017852  
     207A     -0.013865   208A     -0.003535   209A     -0.002238  
     210A     -0.000181   211A      0.001890   212A      0.001988  
     213A      0.002465   214A      0.003005   215A      0.005225  
     216A      0.005674   217A      0.007184   218A      0.012078  
     219A      0.013382   220A      0.015121   221A      0.015775  
     222A      0.023172   223A      0.023809   224A      0.023934  
     225A      0.025483   226A      0.025819   227A      0.027496  
     228A      0.028023   229A      0.029877   230A      0.034216  
     231A      0.036232   232A      0.038778   233A      0.040196  
     234A      0.040395   235A      0.040429   236A      0.047004  
     237A      0.047552   238A      0.050031   239A      0.052795  
     240A      0.055039   241A      0.057018   242A      0.057972  
     243A      0.059728   244A      0.060188   245A      0.061947  
     246A      0.064740   247A      0.067603   248A      0.067847  
     249A      0.068711   250A      0.073881   251A      0.074312  
     252A      0.077011   253A      0.080235   254A      0.082073  
     255A      0.083083   256A      0.083199   257A      0.083273  
     258A      0.086705   259A      0.087839   260A      0.089844  
     261A      0.094295   262A      0.095972   263A      0.098584  
     264A      0.099030   265A      0.100628   266A      0.102457  
     267A      0.102703   268A      0.106453   269A      0.108044  
     270A      0.109132   271A      0.114942   272A      0.116699  
     273A      0.119933   274A      0.121514   275A      0.121998  
     276A      0.122298   277A      0.124413   278A      0.125166  
     279A      0.127322   280A      0.128137   281A      0.129448  
     282A      0.130781   283A      0.132441   284A      0.133170  
     285A      0.135579   286A      0.135725   287A      0.136140  
     288A      0.140017   289A      0.141624   290A      0.144179  
     291A      0.147746   292A      0.151634   293A      0.153047  
     294A      0.153549   295A      0.156032   296A      0.157498  
     297A      0.157733   298A      0.158192   299A      0.158522  
     300A      0.159008   301A      0.159511   302A      0.163071  
     303A      0.164012   304A      0.166502   305A      0.167834  
     306A      0.168635   307A      0.171095   308A      0.172240  
     309A      0.173888   310A      0.175191   311A      0.175407  
     312A      0.176227   313A      0.177877   314A      0.178795  
     315A      0.179539   316A      0.180398   317A      0.181411  
     318A      0.184258   319A      0.184994   320A      0.186919  
     321A      0.189350   322A      0.190287   323A      0.194799  
     324A      0.196307   325A      0.197525   326A      0.198233  
     327A      0.199215   328A      0.201160   329A      0.201228  
     330A      0.202424   331A      0.205327   332A      0.208134  
     333A      0.209422   334A      0.209573   335A      0.210046  
     336A      0.212237   337A      0.213806   338A      0.213946  
     339A      0.214136   340A      0.214937   341A      0.215986  
     342A      0.217751   343A      0.218567   344A      0.224859  
     345A      0.225719   346A      0.227781   347A      0.229543  
     348A      0.231162   349A      0.238478   350A      0.239085  
     351A      0.239946   352A      0.242011   353A      0.244572  
     354A      0.245448   355A      0.247056   356A      0.247660  
     357A      0.250204   358A      0.251725   359A      0.252070  
     360A      0.252855   361A      0.253099   362A      0.254824  
     363A      0.255101   364A      0.256416   365A      0.257134  
     366A      0.257506   367A      0.260022   368A      0.262574  
     369A      0.263313   370A      0.264150   371A      0.264445  
     372A      0.265306   373A      0.266541   374A      0.268103  
     375A      0.270128   376A      0.271352   377A      0.278607  
     378A      0.280457   379A      0.281869   380A      0.282649  
     381A      0.283371   382A      0.285036   383A      0.286202  
     384A      0.287751   385A      0.289652   386A      0.291365  
     387A      0.293913   388A      0.294795   389A      0.294847  
     390A      0.295645   391A      0.295976   392A      0.297648  
     393A      0.298999   394A      0.300056   395A      0.300817  
     396A      0.304781   397A      0.306834   398A      0.307814  
     399A      0.309271   400A      0.312575   401A      0.315052  
     402A      0.315878   403A      0.316122   404A      0.319680  
     405A      0.322976   406A      0.325062   407A      0.325722  
     408A      0.329567   409A      0.329955   410A      0.330321  
     411A      0.330996   412A      0.331733   413A      0.333485  
     414A      0.334913   415A      0.336382   416A      0.337164  
     417A      0.338182   418A      0.339462   419A      0.341902  
     420A      0.343618   421A      0.344849   422A      0.346458  
     423A      0.347460   424A      0.347916   425A      0.348228  
     426A      0.348691   427A      0.351733   428A      0.352160  
     429A      0.354814   430A      0.356731   431A      0.358469  
     432A      0.359202   433A      0.360390   434A      0.363761  
     435A      0.364448   436A      0.366954   437A      0.370405  
     438A      0.371653   439A      0.376514   440A      0.376870  
     441A      0.377532   442A      0.379462   443A      0.381649  
     444A      0.383707   445A      0.384750   446A      0.385585  
     447A      0.385741   448A      0.390695   449A      0.391627  
     450A      0.393250   451A      0.394331   452A      0.396629  
     453A      0.398958   454A      0.399551   455A      0.400616  
     456A      0.402101   457A      0.402888   458A      0.405609  
     459A      0.408063   460A      0.410758   461A      0.414605  
     462A      0.415474   463A      0.417185   464A      0.420477  
     465A      0.421340   466A      0.421736   467A      0.423391  
     468A      0.427243   469A      0.429712   470A      0.433872  
     471A      0.434639   472A      0.435866   473A      0.436728  
     474A      0.437724   475A      0.439086   476A      0.440488  
     477A      0.441172   478A      0.446594   479A      0.447391  
     480A      0.451656   481A      0.452164   482A      0.452785  
     483A      0.454927   484A      0.457957   485A      0.458255  
     486A      0.461057   487A      0.464290   488A      0.467256  
     489A      0.467934   490A      0.476485   491A      0.477456  
     492A      0.478119   493A      0.482490   494A      0.484059  
     495A      0.486826   496A      0.488675   497A      0.489467  
     498A      0.490093   499A      0.490966   500A      0.491491  
     501A      0.493419   502A      0.495730   503A      0.496113  
     504A      0.499200   505A      0.501555   506A      0.501833  
     507A      0.509048   508A      0.509776   509A      0.511808  
     510A      0.524624   511A      0.527011   512A      0.529284  
     513A      0.535646   514A      0.536565   515A      0.537242  
     516A      0.544271   517A      0.553548   518A      0.553917  
     519A      0.560472   520A      0.561207   521A      0.566079  
     522A      0.566180   523A      0.582663   524A      0.588011  
     525A      0.588935   526A      0.592778   527A      0.605653  
     528A      0.606453   529A      0.607090   530A      0.608720  
     531A      0.616426   532A      0.616441   533A      0.622844  
     534A      0.641910   535A      0.655090   536A      0.655167  
     537A      0.663463   538A      0.673142   539A      0.675951  
     540A      0.678134   541A      0.679643   542A      0.680765  
     543A      0.683301   544A      0.684250   545A      0.686847  
     546A      0.690138   547A      0.695145   548A      0.696521  
     549A      0.696774   550A      0.702832   551A      0.710368  
     552A      0.714785   553A      0.717619   554A      0.724068  
     555A      0.725934   556A      0.730217   557A      0.736570  
     558A      0.740564   559A      0.745657   560A      0.747973  
     561A      0.749682   562A      0.750031   563A      0.755138  
     564A      0.757057   565A      0.761319   566A      0.763997  
     567A      0.766484   568A      0.767922   569A      0.768417  
     570A      0.769298   571A      0.773072   572A      0.776842  
     573A      0.780968   574A      0.785193   575A      0.792908  
     576A      0.796878   577A      0.798018   578A      0.800431  
     579A      0.803099   580A      0.803642   581A      0.804687  
     582A      0.805709   583A      0.813306   584A      0.816670  
     585A      0.817780   586A      0.817844   587A      0.822714  
     588A      0.828118   589A      0.828378   590A      0.830322  
     591A      0.834551   592A      0.837565   593A      0.839748  
     594A      0.840411   595A      0.841146   596A      0.845043  
     597A      0.847471   598A      0.848382   599A      0.849665  
     600A      0.850244   601A      0.851393   602A      0.854937  
     603A      0.855253   604A      0.857896   605A      0.859836  
     606A      0.861689   607A      0.863469   608A      0.864547  
     609A      0.866684   610A      0.868132   611A      0.871958  
     612A      0.873093   613A      0.873543   614A      0.877335  
     615A      0.877666   616A      0.881741   617A      0.883092  
     618A      0.885291   619A      0.886163   620A      0.888178  
     621A      0.892698   622A      0.894282   623A      0.897985  
     624A      0.900243   625A      0.909628   626A      0.910420  
     627A      0.910636   628A      0.911391   629A      0.911860  
     630A      0.914397   631A      0.916298   632A      0.916559  
     633A      0.920161   634A      0.921504   635A      0.924010  
     636A      0.927036   637A      0.927156   638A      0.933538  
     639A      0.937858   640A      0.938813   641A      0.944743  
     642A      0.955887   643A      0.956229   644A      0.956956  
     645A      0.958212   646A      0.958873   647A      0.969099  
     648A      0.970593   649A      0.971588   650A      0.974546  
     651A      0.975288   652A      0.977996   653A      0.978742  
     654A      0.980594   655A      0.981626   656A      0.982452  
     657A      0.983693   658A      0.984361   659A      0.984719  
     660A      0.985483   661A      0.987150   662A      0.988772  
     663A      0.991292   664A      0.995264   665A      0.997750  
     666A      0.999823   667A      1.000101   668A      1.001073  
     669A      1.001544   670A      1.003025   671A      1.007275  
     672A      1.010609   673A      1.012961   674A      1.015073  
     675A      1.017832   676A      1.019196   677A      1.022708  
     678A      1.023135   679A      1.023704   680A      1.027072  
     681A      1.030771   682A      1.032899   683A      1.036837  
     684A      1.041305   685A      1.043251   686A      1.043931  
     687A      1.044355   688A      1.049898   689A      1.050435  
     690A      1.053968   691A      1.055833   692A      1.056675  
     693A      1.057148   694A      1.059700   695A      1.061588  
     696A      1.062944   697A      1.065294   698A      1.068853  
     699A      1.071896   700A      1.073070   701A      1.074281  
     702A      1.075093   703A      1.078797   704A      1.078986  
     705A      1.079854   706A      1.081745   707A      1.083552  
     708A      1.087006   709A      1.093200   710A      1.106631  
     711A      1.112294   712A      1.115776   713A      1.116501  
     714A      1.117718   715A      1.121314   716A      1.122240  
     717A      1.123606   718A      1.127189   719A      1.135456  
     720A      1.136710   721A      1.137848   722A      1.139595  
     723A      1.146715   724A      1.149780   725A      1.155401  
     726A      1.157384   727A      1.157634   728A      1.159585  
     729A      1.162116   730A      1.162260   731A      1.168013  
     732A      1.174065   733A      1.177427   734A      1.180331  
     735A      1.181538   736A      1.185878   737A      1.199389  
     738A      1.200924   739A      1.201639   740A      1.202010  
     741A      1.203438   742A      1.205006   743A      1.207206  
     744A      1.207671   745A      1.208181   746A      1.217761  
     747A      1.229274   748A      1.233964   749A      1.235945  
     750A      1.237397   751A      1.238219   752A      1.242836  
     753A      1.244162   754A      1.249165   755A      1.249593  
     756A      1.251039   757A      1.252804   758A      1.259485  
     759A      1.260093   760A      1.264518   761A      1.265182  
     762A      1.268524   763A      1.268710   764A      1.274169  
     765A      1.282149   766A      1.282430   767A      1.284003  
     768A      1.286911   769A      1.290291   770A      1.292355  
     771A      1.292377   772A      1.299018   773A      1.299212  
     774A      1.300108   775A      1.300546   776A      1.309994  
     777A      1.311766   778A      1.319673   779A      1.320186  
     780A      1.329392   781A      1.331688   782A      1.340152  
     783A      1.343424   784A      1.344962   785A      1.346885  
     786A      1.346980   787A      1.352237   788A      1.353610  
     789A      1.357639   790A      1.357773   791A      1.363036  
     792A      1.366536   793A      1.366810   794A      1.371091  
     795A      1.371947   796A      1.376041   797A      1.377131  
     798A      1.378632   799A      1.379317   800A      1.381424  
     801A      1.384211   802A      1.388578   803A      1.389049  
     804A      1.389918   805A      1.390687   806A      1.402132  
     807A      1.402436   808A      1.414121   809A      1.415753  
     810A      1.449125   811A      1.456102   812A      1.457837  
     813A      1.459212   814A      1.459378   815A      1.473291  
     816A      1.488285   817A      1.489866   818A      1.498767  
     819A      1.514922   820A      1.521059   821A      1.535918  
     822A      1.536873   823A      1.537821   824A      1.539346  
     825A      1.546017   826A      1.546585   827A      1.547011  
     828A      1.549106   829A      1.549240   830A      1.553753  
     831A      1.560222   832A      1.560555   833A      1.568137  
     834A      1.569095   835A      1.578418   836A      1.578846  
     837A      1.580695   838A      1.581116   839A      1.581476  
     840A      1.581740   841A      1.585369   842A      1.589693  
     843A      1.599486   844A      1.599623   845A      1.606092  
     846A      1.613016   847A      1.613096   848A      1.614361  
     849A      1.615553   850A      1.615600   851A      1.622408  
     852A      1.624423   853A      1.624701   854A      1.627856  
     855A      1.634571   856A      1.636262   857A      1.637716  
     858A      1.638134   859A      1.638835   860A      1.640526  
     861A      1.641414   862A      1.641597   863A      1.654854  
     864A      1.654917   865A      1.679683   866A      1.684278  
     867A      1.688851   868A      1.692437   869A      1.700014  
     870A      1.700321   871A      1.700425   872A      1.701415  
     873A      1.706076   874A      1.707848   875A      1.715348  
     876A      1.715608   877A      1.730003   878A      1.730337  
     879A      1.749872   880A      1.755816   881A      1.756104  
     882A      1.756537   883A      1.757650   884A      1.761934  
     885A      1.761971   886A      1.765325   887A      1.769100  
     888A      1.769795   889A      1.775260   890A      1.776890  
     891A      1.779853   892A      1.780990   893A      1.781919  
     894A      1.796231   895A      1.800836   896A      1.801461  
     897A      1.801810   898A      1.803213   899A      1.803927  
     900A      1.808345   901A      1.811028   902A      1.817604  
     903A      1.817712   904A      1.827674   905A      1.834550  
     906A      1.834778   907A      1.835021   908A      1.837039  
     909A      1.840223   910A      1.842915   911A      1.842967  
     912A      1.846533   913A      1.846973   914A      1.854601  
     915A      1.855058   916A      1.855936   917A      1.856383  
     918A      1.857080   919A      1.859533   920A      1.860184  
     921A      1.864478   922A      1.880456   923A      1.880743  
     924A      1.881826   925A      1.882369   926A      1.884597  
     927A      1.887471   928A      1.888128   929A      1.891877  
     930A      1.892669   931A      1.893406   932A      1.894433  
     933A      1.895502   934A      1.896195   935A      1.909848  
     936A      1.913704   937A      1.916592   938A      1.921198  
     939A      1.921476   940A      1.930118   941A      1.935570  
     942A      1.937988   943A      1.938624   944A      1.945758  
     945A      1.948858   946A      1.952213   947A      1.952787  
     948A      1.964564   949A      1.965501   950A      1.968001  
     951A      1.969458   952A      1.969978   953A      1.970281  
     954A      1.970770   955A      1.971491   956A      1.985300  
     957A      1.988056   958A      1.991093   959A      1.991594  
     960A      1.996295   961A      1.997182   962A      2.000853  
     963A      2.001721   964A      2.007380   965A      2.009271  
     966A      2.009652   967A      2.010787   968A      2.016976  
     969A      2.017111   970A      2.020473   971A      2.022459  
     972A      2.024135   973A      2.029498   974A      2.032963  
     975A      2.034127   976A      2.036138   977A      2.036576  
     978A      2.039318   979A      2.039384   980A      2.046807  
     981A      2.047458   982A      2.047864   983A      2.050135  
     984A      2.050254   985A      2.051764   986A      2.054573  
     987A      2.057780   988A      2.058506   989A      2.058863  
     990A      2.058986   991A      2.060206   992A      2.065805  
     993A      2.066527   994A      2.072618   995A      2.073163  
     996A      2.075328   997A      2.075393   998A      2.081915  
     999A      2.082176  1000A      2.090440  1001A      2.095150  
    1002A      2.097891  1003A      2.098040  1004A      2.100963  
    1005A      2.101469  1006A      2.107678  1007A      2.109017  
    1008A      2.118187  1009A      2.118295  1010A      2.130098  
    1011A      2.130457  1012A      2.131006  1013A      2.132395  
    1014A      2.132453  1015A      2.134189  1016A      2.136668  
    1017A      2.154579  1018A      2.157312  1019A      2.157842  
    1020A      2.158073  1021A      2.162660  1022A      2.165345  
    1023A      2.166863  1024A      2.167340  1025A      2.167835  
    1026A      2.179645  1027A      2.183750  1028A      2.184109  
    1029A      2.184480  1030A      2.184675  1031A      2.187297  
    1032A      2.200127  1033A      2.200341  1034A      2.208998  
    1035A      2.209058  1036A      2.211509  1037A      2.211676  
    1038A      2.216842  1039A      2.221565  1040A      2.238668  
    1041A      2.240137  1042A      2.245650  1043A      2.248538  
    1044A      2.250662  1045A      2.259357  1046A      2.259931  
    1047A      2.265701  1048A      2.267749  1049A      2.267818  
    1050A      2.268850  1051A      2.271646  1052A      2.288628  
    1053A      2.289261  1054A      2.290916  1055A      2.291288  
    1056A      2.304064  1057A      2.304189  1058A      2.311430  
    1059A      2.313663  1060A      2.318622  1061A      2.338585  
    1062A      2.348425  1063A      2.355147  1064A      2.362079  
    1065A      2.362751  1066A      2.362899  1067A      2.375478  
    1068A      2.379229  1069A      2.379528  1070A      2.408301  
    1071A      2.412007  1072A      2.412472  1073A      2.424536  
    1074A      2.424668  1075A      2.440632  1076A      2.453746  
    1077A      2.458764  1078A      2.468054  1079A      2.468706  
    1080A      2.474973  1081A      2.484129  1082A      2.484931  
    1083A      2.485243  1084A      2.491899  1085A      2.494788  
    1086A      2.495048  1087A      2.498231  1088A      2.498406  
    1089A      2.511104  1090A      2.511142  1091A      2.514703  
    1092A      2.515267  1093A      2.516485  1094A      2.525170  
    1095A      2.525310  1096A      2.525375  1097A      2.528525  
    1098A      2.531712  1099A      2.546407  1100A      2.563027  
    1101A      2.563346  1102A      2.564412  1103A      2.569396  
    1104A      2.570007  1105A      2.580588  1106A      2.580681  
    1107A      2.589409  1108A      2.590823  1109A      2.591062  
    1110A      2.595957  1111A      2.619084  1112A      2.620426  
    1113A      2.621722  1114A      2.622890  1115A      2.627155  
    1116A      2.639233  1117A      2.639505  1118A      2.650530  
    1119A      2.650655  1120A      2.652661  1121A      2.656454  
    1122A      2.656708  1123A      2.661678  1124A      2.661833  
    1125A      2.675697  1126A      2.676898  1127A      2.688090  
    1128A      2.692403  1129A      2.692852  1130A      2.694924  
    1131A      2.706318  1132A      2.715338  1133A      2.724064  
    1134A      2.732777  1135A      2.732989  1136A      2.753233  
    1137A      2.756242  1138A      2.762086  1139A      2.764753  
    1140A      2.768373  1141A      2.790556  1142A      2.791962  
    1143A      2.792640  1144A      2.794981  1145A      2.798053  
    1146A      2.798425  1147A      2.801276  1148A      2.807821  
    1149A      2.857526  1150A      2.857938  1151A      2.863571  
    1152A      2.873063  1153A      2.873342  1154A      2.888491  
    1155A      2.888698  1156A      2.902678  1157A      2.940032  
    1158A      2.947178  1159A      2.948999  1160A      2.951847  
    1161A      2.969152  1162A      2.992302  1163A      3.001718  
    1164A      3.001898  1165A      3.008967  1166A      3.009286  
    1167A      3.048739  1168A      3.049632  1169A      3.058076  
    1170A      3.068677  1171A      3.068961  1172A      3.069096  
    1173A      3.075190  1174A      3.076367  1175A      3.085551  
    1176A      3.086181  1177A      3.086226  1178A      3.088888  
    1179A      3.089084  1180A      3.097464  1181A      3.097937  
    1182A      3.105320  1183A      3.105869  1184A      3.131524  
    1185A      3.150849  1186A      3.156877  1187A      3.176469  
    1188A      3.211623  1189A      3.215217  1190A      3.215259  
    1191A      3.220321  1192A      3.220651  1193A      3.354060  
    1194A      3.354590  1195A      3.377251  1196A      3.418727  
    1197A      3.421257  1198A      3.453609  1199A      3.486392  
    1200A      3.514105  1201A      3.515977  1202A      3.530624  
    1203A      3.543896  1204A      3.564699  1205A      3.566672  
    1206A      3.601189  1207A      3.607804  1208A      3.706888  
    1209A      3.720141  1210A      3.720991  1211A      3.809706  
    1212A      3.809917  1213A      3.851608  1214A      3.851853  
    1215A      3.914183  1216A      3.948061  1217A      3.970139  
    1218A      3.981204  1219A      4.017814  

    Final Occupation by Irrep:
              A 
    DOCC [   197 ]
    NA   [   197 ]
    NB   [   197 ]

  @DF-RHF Final Energy: -2359.20040483158300

   => Energetics <=

    Nuclear Repulsion Energy =           7980.2987400729261935
    One-Electron Energy =              -19064.7681779690901749
    Two-Electron Energy =                8725.2690330645818904
    Total Energy =                      -2359.2004048315830005

Computation Completed


Properties will be evaluated at   0.000000,   0.000000,   0.000000 [a0]

Properties computed using the SCF density matrix


 Multipole Moments:

 ------------------------------------------------------------------------------------
     Multipole            Electronic (a.u.)      Nuclear  (a.u.)        Total (a.u.)
 ------------------------------------------------------------------------------------

 L = 1.  Multiply by 2.5417464519 to convert [e a0] to [Debye]
 Dipole X            :          0.0033863            0.0006313            0.0040176
 Dipole Y            :         -1.5259490            1.8864948            0.3605459
 Dipole Z            :        -22.9639012           32.2626670            9.2987659
 Magnitude           :                                                    9.3057539

 ------------------------------------------------------------------------------------

*** tstop() called on d-16-12-3 at Mon Jan 22 17:19:44 2024
Module time:
	user time   =    4408.22 seconds =      73.47 minutes
	system time =     358.30 seconds =       5.97 minutes
	total time  =       1161 seconds =      19.35 minutes
Total time:
	user time   =    4408.22 seconds =      73.47 minutes
	system time =     358.30 seconds =       5.97 minutes
	total time  =       1161 seconds =      19.35 minutes

  //>>>>>>>>>>>>>>>>>>>>>>>>>>>>>>>>>>>//
  //            Monomer A HF           //
  //<<<<<<<<<<<<<<<<<<<<<<<<<<<<<<<<<<<//

   => Libint2 <=

    Primary   basis highest AM E, G, H:  7, 7, 4
    Auxiliary basis highest AM E, G, H:  7, 7, 5
    Onebody   basis highest AM E, G, H:  7, 7, 5
    Solid Harmonics ordering:            gaussian

*** tstart() called on d-16-12-3
*** at Mon Jan 22 17:19:44 2024

   => Loading Basis Set <=

    Name: JUN-CC-PVDZ
    Role: ORBITAL
    Keyword: BASIS
    atoms 1-2, 4-5, 10, 17-70 entry C          line   164 file /home/gridsan/tfroembgen/.conda/envs/psi4test/share/psi4/basis/jun-cc-pvdz.gbs 
    atoms 3, 6                entry N          line   198 file /home/gridsan/tfroembgen/.conda/envs/psi4test/share/psi4/basis/jun-cc-pvdz.gbs 
    atoms 7-9, 11-16, 71-88   entry H          line    36 file /home/gridsan/tfroembgen/.conda/envs/psi4test/share/psi4/basis/jun-cc-pvdz.gbs 


         ---------------------------------------------------------
                                   SCF
               by Justin Turney, Rob Parrish, Andy Simmonett
                          and Daniel G. A. Smith
                              RHF Reference
                       12 Threads,  30517 MiB Core
         ---------------------------------------------------------

  ==> Geometry <==

    Molecular point group: c1
    Full point group: C1

    Geometry (in Angstrom), charge = 1, multiplicity = 1:

       Center              X                  Y                   Z               Mass       
    ------------   -----------------  -----------------  -----------------  -----------------
         C            0.680066520158    -1.215933861162     5.419442222125    12.000000000000
         C           -0.680504479842    -1.215549861162     5.417414222125    12.000000000000
         N           -1.085635479842     0.102774138838     5.416416222125    14.003074004430
         C            0.000107520158     0.884175138838     5.413140222125    12.000000000000
         C           -2.477365479842     0.570753138838     5.367010222125    12.000000000000
         N            1.085221520158     0.102774138838     5.416416222125    14.003074004430
         H            1.385145520158    -2.033372861162     5.427270222125     1.007825032230
         H           -1.385302479842    -2.033218861162     5.417604222125     1.007825032230
         H           -0.000009479842     1.965264138838     5.411393222125     1.007825032230
         C            2.478116520158     0.567872138838     5.433308222125    12.000000000000
         H            2.490591520158     1.658125138838     5.405963222125     1.007825032230
         H            2.967027520158     0.220696138838     6.346754222125     1.007825032230
         H            3.001427520158     0.176400138838     4.557825222125     1.007825032230
         H           -2.857359479842     0.490794138838     4.344939222125     1.007825032230
         H           -3.082679479842    -0.042310861162     6.037094222125     1.007825032230
         H           -2.518128479842     1.610701138838     5.693994222125     1.007825032230
      Gh(C)           1.225311895423     0.707533799757    -0.782462150591    12.000000000000
      Gh(C)           1.225323856051    -0.707543383733    -0.794792960162    12.000000000000
      Gh(C)          -0.000006153932     1.414961424928    -0.795326583682    12.000000000000
      Gh(C)           2.456448753949     1.418323398016    -0.779575293191    12.000000000000
      Gh(C)           0.000010827279    -1.414980987797    -0.785127026358    12.000000000000
      Gh(C)          -1.225300948908     0.707540884822    -0.780210630269    12.000000000000
      Gh(C)           2.456437755320    -1.418327793043    -0.797038117018    12.000000000000
      Gh(C)          -0.000001332978     2.836796542119    -0.797730133816    12.000000000000
      Gh(C)           3.681826697470     0.709313466839    -0.796689327221    12.000000000000
      Gh(C)           2.455120048865     2.834219172327    -0.796791884181    12.000000000000
      Gh(C)           3.681821105219    -0.709338328591    -0.780616843202    12.000000000000
      Gh(C)          -1.225313598688    -0.707532004706    -0.793720198735    12.000000000000
      Gh(C)           1.226699581202     3.543464994832    -0.780432811271    12.000000000000
      Gh(C)           0.000004784858    -2.836786628398    -0.780278858736    12.000000000000
      Gh(C)          -2.456436032848     1.418312429123    -0.780175234423    12.000000000000
      Gh(C)           2.455123417779    -2.834234517751    -0.780768751570    12.000000000000
      Gh(C)          -1.226714364589     3.543464574588    -0.780329478052    12.000000000000
      Gh(C)           4.914517295202     1.427168383327    -0.790208644191    12.000000000000
      Gh(C)           3.693150191476     3.542790803383    -0.790158844555    12.000000000000
      Gh(C)          -2.456437600068    -1.418317770001    -0.797063155143    12.000000000000
      Gh(C)           1.226704841943    -3.543478731069    -0.796402942021    12.000000000000
      Gh(C)          -2.455125398508     2.834212173472    -0.796785507835    12.000000000000
      Gh(C)           4.914524380782    -1.427191399106    -0.787235901456    12.000000000000
      Gh(C)           1.221424613699     4.970129576098    -0.787097467197    12.000000000000
      Gh(C)           4.893008229321     2.825183510864    -0.788991975832    12.000000000000
      Gh(C)          -1.226697008489    -3.543475486239    -0.796135737612    12.000000000000
      Gh(C)          -3.681818976526     0.709320477570    -0.796676646741    12.000000000000
      Gh(C)           3.693147101150    -3.542805830553    -0.787118010896    12.000000000000
      Gh(C)          -1.221432251994     4.970123808701    -0.786913971824    12.000000000000
      Gh(C)           6.134770972926     0.680543457943    -0.789438869641    12.000000000000
      Gh(C)           3.656788880610     4.972948754405    -0.789250206772    12.000000000000
      Gh(C)          -2.455126907733    -2.834219582223    -0.781013109368    12.000000000000
      Gh(C)          -3.681819179061    -0.709330192631    -0.780499221623    12.000000000000
      Gh(C)           4.893012617914    -2.825204594794    -0.788380823937    12.000000000000
      Gh(C)          -0.000001073113     5.650442876870    -0.788145280531    12.000000000000
      Gh(C)           6.134775112332    -0.680559343237    -0.788173549126    12.000000000000
      Gh(C)           2.478131482856     5.653572262169    -0.787961427122    12.000000000000
      Gh(C)           1.221422404738    -4.970131544095    -0.789896964219    12.000000000000
      Gh(C)          -3.693162383965     3.542792465030    -0.789993337095    12.000000000000
      Gh(C)          -1.221428520945    -4.970122792758    -0.790009726052    12.000000000000
      Gh(C)          -4.914521807942     1.427170957833    -0.790131699184    12.000000000000
      Gh(C)           3.656787019679    -4.972959715401    -0.787799706238    12.000000000000
      Gh(C)          -2.478138530106     5.653569933366    -0.787676902114    12.000000000000
      Gh(C)          -3.693141738564    -3.542794708141    -0.787234137051    12.000000000000
      Gh(C)          -4.914512483053    -1.427185489190    -0.787201204283    12.000000000000
      Gh(C)          -0.000006008926    -5.650442776176    -0.788540784652    12.000000000000
      Gh(C)          -4.893020484101     2.825184109757    -0.789002057692    12.000000000000
      Gh(C)           2.478125993298    -5.653578033051    -0.788890307030    12.000000000000
      Gh(C)          -3.656798710258     4.972951692879    -0.789073526398    12.000000000000
      Gh(C)          -4.892999478856    -2.825196256222    -0.788534859635    12.000000000000
      Gh(C)          -2.478128498083    -5.653570659169    -0.789165494678    12.000000000000
      Gh(C)          -6.134770503331     0.680544277094    -0.789464421344    12.000000000000
      Gh(C)          -3.656788833189    -4.972948512133    -0.788013994055    12.000000000000
      Gh(C)          -6.134765042913    -0.680558404644    -0.788194024920    12.000000000000
      Gh(H)           5.835288495816     3.369271405792    -0.784632650170     1.007825032230
      Gh(H)           7.073859172747     1.228212759737    -0.788977226248     1.007825032230
      Gh(H)           4.600663264174     5.512376313291    -0.788745006020     1.007825032230
      Gh(H)           5.835283387305    -3.369310545891    -0.792835291251     1.007825032230
      Gh(H)          -0.000012151306     6.738526184974    -0.792494525539     1.007825032230
      Gh(H)           7.073861171831    -1.228231431906    -0.788682287220     1.007825032230
      Gh(H)           2.473313731799     6.740679802232    -0.788428148053     1.007825032230
      Gh(H)           4.600668491381    -5.512380618338    -0.788209703407     1.007825032230
      Gh(H)          -2.473318680537     6.740677230444    -0.788126801428     1.007825032230
      Gh(H)          -0.000010268228    -6.738532665614    -0.784011099668     1.007825032230
      Gh(H)          -5.835301914343     3.369266461134    -0.784496628021     1.007825032230
      Gh(H)           2.473307923831    -6.740689863591    -0.788319976605     1.007825032230
      Gh(H)          -4.600674841208     5.512373537441    -0.788579677697     1.007825032230
      Gh(H)          -5.835279506835    -3.369293452942    -0.793114597132     1.007825032230
      Gh(H)          -2.473300347440    -6.740683567302    -0.788769293150     1.007825032230
      Gh(H)          -7.073857766768     1.228215983678    -0.789061217729     1.007825032230
      Gh(H)          -4.600673786085    -5.512367158949    -0.788382011429     1.007825032230
      Gh(H)          -7.073856934409    -1.228225121139    -0.788777143686     1.007825032230

  Running in c1 symmetry.

  Rotational constants: A =      0.00154  B =      0.00152  C =      0.00109 [cm^-1]
  Rotational constants: A =     46.22427  B =     45.50975  C =     32.56832 [MHz]
  Nuclear repulsion =  306.774908447733026

  Charge       = 1
  Multiplicity = 1
  Electrons    = 52
  Nalpha       = 26
  Nbeta        = 26

  ==> Algorithm <==

  SCF Algorithm Type is DF.
  DIIS enabled.
  MOM disabled.
  Fractional occupation disabled.
  Guess Type is SAD.
  Energy threshold   = 1.00e-08
  Density threshold  = 1.00e-08
  Integral threshold = 1.00e-12

  ==> Primary Basis <==

  Basis Set: JUN-CC-PVDZ
    Blend: JUN-CC-PVDZ
    Number of shells: 569
    Number of basis functions: 1233
    Number of Cartesian functions: 1294
    Spherical Harmonics?: true
    Max angular momentum: 2

   => Loading Basis Set <=

    Name: (JUN-CC-PVDZ AUX)
    Role: JKFIT
    Keyword: DF_BASIS_SCF
    atoms 1-2, 4-5, 10, 17-70 entry C          line   146 file /home/gridsan/tfroembgen/.conda/envs/psi4test/share/psi4/basis/jun-cc-pvdz-jkfit.gbs 
    atoms 3, 6                entry N          line   202 file /home/gridsan/tfroembgen/.conda/envs/psi4test/share/psi4/basis/jun-cc-pvdz-jkfit.gbs 
    atoms 7-9, 11-16, 71-88   entry H          line    70 file /home/gridsan/tfroembgen/.conda/envs/psi4test/share/psi4/basis/jun-cc-pvdz-jkfit.gbs 

  ==> Integral Setup <==

  ==> DiskDFJK: Density-Fitted J/K Matrices <==

    J tasked:                  Yes
    K tasked:                  Yes
    wK tasked:                  No
    OpenMP threads:             12
    Integrals threads:          12
    Memory [MiB]:            22888
    Algorithm:                Disk
    Integral Cache:           LOAD
    Schwarz Cutoff:          1E-12
    Fitting Condition:       1E-10

   => Auxiliary Basis Set <=

  Basis Set: (JUN-CC-PVDZ AUX)
    Blend: JUN-CC-PVDZ-JKFIT
    Number of shells: 1890
    Number of basis functions: 5440
    Number of Cartesian functions: 6226
    Spherical Harmonics?: true
    Max angular momentum: 3

  Minimum eigenvalue in the overlap matrix is 8.3618956050E-10.
  Reciprocal condition number of the overlap matrix is 3.7279168288E-11.
    Using canonical orthogonalization.
  Overall, 14 of 1233 possible MOs eliminated.


  ==> Pre-Iterations <==

  SCF Guess: Superposition of Atomic Densities via on-the-fly atomic UHF (no occupation information).

   -------------------------
    Irrep   Nso     Nmo    
   -------------------------
     A       1233    1219 
   -------------------------
    Total    1233    1219
   -------------------------

  ==> Iterations <==

                           Total Energy        Delta E     RMS |[F,P]|

   @DF-RHF iter SAD:  -303.36534399288962   -3.03365e+02   0.00000e+00 
   @DF-RHF iter   1:  -303.16955442373552    1.95790e-01   3.44134e-04 DIIS/ADIIS
   @DF-RHF iter   2:  -303.28389651321214   -1.14342e-01   1.15890e-04 DIIS/ADIIS
   @DF-RHF iter   3:  -303.29535186078397   -1.14553e-02   4.53421e-05 DIIS
   @DF-RHF iter   4:  -303.29725621533379   -1.90435e-03   9.89957e-06 DIIS
   @DF-RHF iter   5:  -303.29736200637097   -1.05791e-04   2.41603e-06 DIIS
   @DF-RHF iter   6:  -303.29737130465043   -9.29828e-06   6.55026e-07 DIIS
   @DF-RHF iter   7:  -303.29737238131349   -1.07666e-06   3.32820e-07 DIIS
   @DF-RHF iter   8:  -303.29737263476869   -2.53455e-07   1.33909e-07 DIIS
   @DF-RHF iter   9:  -303.29737268347259   -4.87039e-08   3.38361e-08 DIIS
   @DF-RHF iter  10:  -303.29737268632050   -2.84791e-09   1.27146e-08 DIIS
   @DF-RHF iter  11:  -303.29737268656828   -2.47780e-10   3.00369e-09 DIIS
  Energy and wave function converged.


  ==> Post-Iterations <==

    Orbital Energies [Eh]
    ---------------------

    Doubly Occupied:                                                      

       1A    -15.834627     2A    -15.834100     3A    -11.529502  
       4A    -11.459828     5A    -11.458274     6A    -11.449638  
       7A    -11.449527     8A     -1.578163     9A     -1.433755  
      10A     -1.238594    11A     -1.189255    12A     -1.118822  
      13A     -1.022469    14A     -0.996899    15A     -0.916989  
      16A     -0.850484    17A     -0.816205    18A     -0.813134  
      19A     -0.790072    20A     -0.786193    21A     -0.781719  
      22A     -0.729659    23A     -0.725741    24A     -0.717078  
      25A     -0.596239    26A     -0.523817  

    Virtual:                                                              

      27A     -0.075863    28A     -0.067679    29A     -0.059700  
      30A     -0.056187    31A     -0.039492    32A     -0.038924  
      33A     -0.035517    34A     -0.034074    35A     -0.031895  
      36A     -0.031194    37A     -0.023449    38A     -0.016191  
      39A     -0.014518    40A     -0.012278    41A     -0.010193  
      42A     -0.009546    43A     -0.008474    44A     -0.006169  
      45A     -0.004730    46A      0.000565    47A      0.004803  
      48A      0.007373    49A      0.007960    50A      0.014449  
      51A      0.014608    52A      0.015315    53A      0.020316  
      54A      0.021627    55A      0.022886    56A      0.027944  
      57A      0.029188    58A      0.030721    59A      0.031751  
      60A      0.036003    61A      0.036253    62A      0.036659  
      63A      0.040038    64A      0.044886    65A      0.045681  
      66A      0.047452    67A      0.049661    68A      0.050204  
      69A      0.052268    70A      0.054992    71A      0.055267  
      72A      0.059145    73A      0.059555    74A      0.061283  
      75A      0.065771    76A      0.067554    77A      0.068366  
      78A      0.069806    79A      0.070882    80A      0.074826  
      81A      0.074919    82A      0.075689    83A      0.077032  
      84A      0.079458    85A      0.079823    86A      0.082332  
      87A      0.085733    88A      0.086019    89A      0.088654  
      90A      0.089197    91A      0.089376    92A      0.091245  
      93A      0.093815    94A      0.094260    95A      0.095745  
      96A      0.096854    97A      0.100014    98A      0.100529  
      99A      0.101705   100A      0.103775   101A      0.105155  
     102A      0.106679   103A      0.109692   104A      0.112414  
     105A      0.112482   106A      0.114292   107A      0.114547  
     108A      0.116678   109A      0.118353   110A      0.118428  
     111A      0.121398   112A      0.121763   113A      0.121987  
     114A      0.124809   115A      0.126568   116A      0.127712  
     117A      0.128581   118A      0.134478   119A      0.137011  
     120A      0.137631   121A      0.137830   122A      0.137952  
     123A      0.143617   124A      0.144454   125A      0.144828  
     126A      0.145924   127A      0.147415   128A      0.149836  
     129A      0.150113   130A      0.152395   131A      0.153404  
     132A      0.154393   133A      0.157332   134A      0.157769  
     135A      0.159603   136A      0.163940   137A      0.164594  
     138A      0.164990   139A      0.165564   140A      0.166124  
     141A      0.166796   142A      0.167755   143A      0.170546  
     144A      0.171271   145A      0.172291   146A      0.174905  
     147A      0.177895   148A      0.180916   149A      0.181138  
     150A      0.183316   151A      0.183378   152A      0.183975  
     153A      0.184821   154A      0.185425   155A      0.188807  
     156A      0.190416   157A      0.192146   158A      0.192432  
     159A      0.194281   160A      0.195760   161A      0.196694  
     162A      0.197938   163A      0.204224   164A      0.208865  
     165A      0.210793   166A      0.211440   167A      0.212360  
     168A      0.214012   169A      0.216585   170A      0.217994  
     171A      0.219373   172A      0.219624   173A      0.220132  
     174A      0.220890   175A      0.221789   176A      0.222527  
     177A      0.223795   178A      0.225265   179A      0.227438  
     180A      0.229734   181A      0.229838   182A      0.231191  
     183A      0.233125   184A      0.234765   185A      0.236194  
     186A      0.236850   187A      0.240529   188A      0.241648  
     189A      0.244466   190A      0.245005   191A      0.247722  
     192A      0.250015   193A      0.250283   194A      0.251090  
     195A      0.254637   196A      0.258650   197A      0.265338  
     198A      0.267385   199A      0.267649   200A      0.269351  
     201A      0.271244   202A      0.271317   203A      0.273315  
     204A      0.275749   205A      0.277262   206A      0.280051  
     207A      0.281572   208A      0.283875   209A      0.287065  
     210A      0.288580   211A      0.289394   212A      0.294057  
     213A      0.294159   214A      0.294676   215A      0.295290  
     216A      0.297511   217A      0.299758   218A      0.300231  
     219A      0.302632   220A      0.303638   221A      0.303977  
     222A      0.304084   223A      0.307585   224A      0.310203  
     225A      0.312376   226A      0.314210   227A      0.315176  
     228A      0.317981   229A      0.321554   230A      0.322277  
     231A      0.324699   232A      0.330487   233A      0.332574  
     234A      0.335986   235A      0.336618   236A      0.342021  
     237A      0.342436   238A      0.346862   239A      0.348120  
     240A      0.351259   241A      0.353444   242A      0.356362  
     243A      0.356780   244A      0.357724   245A      0.359487  
     246A      0.365616   247A      0.367432   248A      0.368085  
     249A      0.369271   250A      0.369347   251A      0.371947  
     252A      0.372650   253A      0.373909   254A      0.374967  
     255A      0.377908   256A      0.379998   257A      0.382081  
     258A      0.385690   259A      0.386444   260A      0.388071  
     261A      0.389042   262A      0.390404   263A      0.394764  
     264A      0.394925   265A      0.395905   266A      0.396824  
     267A      0.399268   268A      0.403161   269A      0.406716  
     270A      0.406991   271A      0.407287   272A      0.408887  
     273A      0.412072   274A      0.413304   275A      0.413923  
     276A      0.416072   277A      0.416644   278A      0.417737  
     279A      0.417945   280A      0.420470   281A      0.421214  
     282A      0.424403   283A      0.426549   284A      0.429510  
     285A      0.432488   286A      0.433995   287A      0.435017  
     288A      0.435661   289A      0.437087   290A      0.440483  
     291A      0.445811   292A      0.449088   293A      0.450865  
     294A      0.456540   295A      0.457642   296A      0.460618  
     297A      0.460955   298A      0.462586   299A      0.464694  
     300A      0.466393   301A      0.467765   302A      0.468311  
     303A      0.470564   304A      0.471411   305A      0.471464  
     306A      0.472475   307A      0.473859   308A      0.477610  
     309A      0.483175   310A      0.484284   311A      0.485364  
     312A      0.485476   313A      0.490590   314A      0.493942  
     315A      0.498053   316A      0.506354   317A      0.507431  
     318A      0.508404   319A      0.508953   320A      0.512417  
     321A      0.512488   322A      0.514201   323A      0.515635  
     324A      0.516530   325A      0.521007   326A      0.522241  
     327A      0.523326   328A      0.525658   329A      0.526710  
     330A      0.534998   331A      0.536637   332A      0.537343  
     333A      0.538470   334A      0.540357   335A      0.543682  
     336A      0.547353   337A      0.547627   338A      0.555144  
     339A      0.555527   340A      0.556235   341A      0.558615  
     342A      0.559274   343A      0.561807   344A      0.569300  
     345A      0.570159   346A      0.571003   347A      0.575225  
     348A      0.582783   349A      0.583083   350A      0.583855  
     351A      0.584550   352A      0.589251   353A      0.592163  
     354A      0.598746   355A      0.600702   356A      0.608806  
     357A      0.613770   358A      0.614627   359A      0.614813  
     360A      0.616687   361A      0.616978   362A      0.618806  
     363A      0.621289   364A      0.624666   365A      0.627065  
     366A      0.628408   367A      0.628554   368A      0.630325  
     369A      0.633927   370A      0.638114   371A      0.639088  
     372A      0.642061   373A      0.642424   374A      0.643474  
     375A      0.645102   376A      0.646045   377A      0.658293  
     378A      0.658581   379A      0.660348   380A      0.660793  
     381A      0.661842   382A      0.668904   383A      0.676617  
     384A      0.677300   385A      0.680405   386A      0.684695  
     387A      0.687992   388A      0.690218   389A      0.696874  
     390A      0.698339   391A      0.698755   392A      0.700851  
     393A      0.702538   394A      0.702965   395A      0.703579  
     396A      0.704580   397A      0.705078   398A      0.708114  
     399A      0.709847   400A      0.711190   401A      0.711541  
     402A      0.712780   403A      0.713180   404A      0.716570  
     405A      0.723228   406A      0.723931   407A      0.725088  
     408A      0.728070   409A      0.732137   410A      0.732283  
     411A      0.734295   412A      0.737323   413A      0.739663  
     414A      0.742855   415A      0.744194   416A      0.744733  
     417A      0.745619   418A      0.749592   419A      0.755264  
     420A      0.759284   421A      0.767872   422A      0.772152  
     423A      0.779895   424A      0.783421   425A      0.783810  
     426A      0.786747   427A      0.787643   428A      0.792080  
     429A      0.795527   430A      0.798054   431A      0.800198  
     432A      0.805548   433A      0.817559   434A      0.817904  
     435A      0.820855   436A      0.823467   437A      0.827810  
     438A      0.829238   439A      0.831621   440A      0.835466  
     441A      0.835910   442A      0.836836   443A      0.842869  
     444A      0.857569   445A      0.859498   446A      0.860060  
     447A      0.860628   448A      0.884686   449A      0.896205  
     450A      0.897017   451A      0.897161   452A      0.905296  
     453A      0.905360   454A      0.908388   455A      0.914765  
     456A      0.928329   457A      0.937712   458A      0.937832  
     459A      0.941727   460A      0.945853   461A      0.962409  
     462A      0.963159   463A      0.967881   464A      0.976618  
     465A      0.977916   466A      0.978292   467A      0.989233  
     468A      0.993843   469A      0.997408   470A      1.002774  
     471A      1.002833   472A      1.004320   473A      1.004441  
     474A      1.034270   475A      1.037467   476A      1.039556  
     477A      1.040342   478A      1.040882   479A      1.042269  
     480A      1.068607   481A      1.090678   482A      1.090888  
     483A      1.097594   484A      1.097755   485A      1.108248  
     486A      1.111565   487A      1.114602   488A      1.119855  
     489A      1.120083   490A      1.129765   491A      1.132896  
     492A      1.133013   493A      1.136020   494A      1.141161  
     495A      1.151754   496A      1.156345   497A      1.156463  
     498A      1.160242   499A      1.164622   500A      1.165047  
     501A      1.165530   502A      1.223518   503A      1.231796  
     504A      1.231819   505A      1.240445   506A      1.242189  
     507A      1.242441   508A      1.258421   509A      1.258803  
     510A      1.263097   511A      1.265149   512A      1.299536  
     513A      1.300658   514A      1.306253   515A      1.306513  
     516A      1.306950   517A      1.340202   518A      1.357122  
     519A      1.359199   520A      1.378760   521A      1.379434  
     522A      1.397023   523A      1.397604   524A      1.399218  
     525A      1.402622   526A      1.402942   527A      1.404904  
     528A      1.418840   529A      1.419585   530A      1.432790  
     531A      1.470736   532A      1.479473   533A      1.482851  
     534A      1.490804   535A      1.491092   536A      1.493478  
     537A      1.495368   538A      1.505363   539A      1.505529  
     540A      1.522337   541A      1.560397   542A      1.569310  
     543A      1.571540   544A      1.574223   545A      1.583050  
     546A      1.586573   547A      1.595077   548A      1.598381  
     549A      1.599832   550A      1.612137   551A      1.619161  
     552A      1.620606   553A      1.622622   554A      1.627673  
     555A      1.629529   556A      1.640191   557A      1.668946  
     558A      1.675237   559A      1.682059   560A      1.683414  
     561A      1.684442   562A      1.685580   563A      1.685928  
     564A      1.687075   565A      1.688708   566A      1.690677  
     567A      1.697113   568A      1.699931   569A      1.700858  
     570A      1.716390   571A      1.721330   572A      1.727009  
     573A      1.729022   574A      1.729552   575A      1.730235  
     576A      1.735389   577A      1.745637   578A      1.746629  
     579A      1.748853   580A      1.750771   581A      1.754722  
     582A      1.761389   583A      1.762147   584A      1.763112  
     585A      1.765490   586A      1.765941   587A      1.767453  
     588A      1.768078   589A      1.769158   590A      1.770848  
     591A      1.781211   592A      1.783746   593A      1.785057  
     594A      1.785350   595A      1.786503   596A      1.791476  
     597A      1.795496   598A      1.797073   599A      1.797333  
     600A      1.811134   601A      1.816181   602A      1.817559  
     603A      1.818419   604A      1.820415   605A      1.821582  
     606A      1.823360   607A      1.824141   608A      1.825485  
     609A      1.827655   610A      1.835253   611A      1.836629  
     612A      1.842344   613A      1.842930   614A      1.843156  
[...]
     799A      1.676507   800A      1.676694   801A      1.676995  
     802A      1.677030   803A      1.677145   804A      1.683287  
     805A      1.686790   806A      1.687093   807A      1.696230  
     808A      1.697686   809A      1.698972   810A      1.699252  
     811A      1.700272   812A      1.704843   813A      1.704975  
     814A      1.708669   815A      1.716126   816A      1.716702  
     817A      1.741775   818A      1.751485   819A      1.760684  
     820A      1.760715   821A      1.761067   822A      1.761786  
     823A      1.765279   824A      1.776823   825A      1.776932  
     826A      1.791477   827A      1.791839   828A      1.803148  
     829A      1.805481   830A      1.816465   831A      1.816935  
     832A      1.817520   833A      1.823848   834A      1.824833  
     835A      1.824894   836A      1.827768   837A      1.830921  
     838A      1.833140   839A      1.834647   840A      1.839380  
     841A      1.842505   842A      1.846463   843A      1.848665  
     844A      1.861750   845A      1.862011   846A      1.862467  
     847A      1.863501   848A      1.864849   849A      1.870363  
     850A      1.872820   851A      1.880308   852A      1.880404  
     853A      1.896247   854A      1.896762   855A      1.897638  
     856A      1.899668   857A      1.902042   858A      1.903123  
     859A      1.903605   860A      1.908983   861A      1.909389  
     862A      1.910718   863A      1.916556   864A      1.917988  
     865A      1.918050   866A      1.919422   867A      1.919697  
     868A      1.922263   869A      1.922431   870A      1.932017  
     871A      1.940990   872A      1.941692   873A      1.943390  
     874A      1.945007   875A      1.947812   876A      1.948211  
     877A      1.950797   878A      1.954746   879A      1.955924  
     880A      1.956201   881A      1.958088   882A      1.960147  
     883A      1.972284   884A      1.983909   885A      1.984306  
     886A      1.991137   887A      1.997251   888A      1.999170  
     889A      1.999262   890A      2.001104   891A      2.006053  
     892A      2.009094   893A      2.013345   894A      2.013944  
     895A      2.027868   896A      2.028468   897A      2.029185  
     898A      2.030488   899A      2.031363   900A      2.031426  
     901A      2.031881   902A      2.043636   903A      2.049331  
     904A      2.049803   905A      2.051541   906A      2.052467  
     907A      2.054550   908A      2.057864   909A      2.058844  
     910A      2.061094   911A      2.062865   912A      2.064116  
     913A      2.068039   914A      2.071254   915A      2.072492  
     916A      2.073562   917A      2.077483   918A      2.079505  
     919A      2.081889   920A      2.084248   921A      2.086143  
     922A      2.087623   923A      2.094331   924A      2.095113  
     925A      2.096653   926A      2.098266   927A      2.100229  
     928A      2.100948   929A      2.101615   930A      2.107935  
     931A      2.108191   932A      2.109604   933A      2.111601  
     934A      2.112599   935A      2.114607   936A      2.116724  
     937A      2.117639   938A      2.119219   939A      2.119922  
     940A      2.120917   941A      2.121996   942A      2.125326  
     943A      2.128285   944A      2.129799   945A      2.133929  
     946A      2.135120   947A      2.135764   948A      2.136904  
     949A      2.139806   950A      2.143488   951A      2.143859  
     952A      2.145125   953A      2.152749   954A      2.156812  
     955A      2.160513   956A      2.160663   957A      2.163305  
     958A      2.163676   959A      2.171519   960A      2.176538  
     961A      2.179226   962A      2.183959   963A      2.190740  
     964A      2.190811   965A      2.192561   966A      2.194031  
     967A      2.195995   968A      2.196078   969A      2.200999  
     970A      2.206124   971A      2.219671   972A      2.219881  
     973A      2.220503   974A      2.220798   975A      2.228256  
     976A      2.228448   977A      2.229637   978A      2.232007  
     979A      2.235200   980A      2.243602   981A      2.244230  
     982A      2.244861   983A      2.245534   984A      2.247450  
     985A      2.260301   986A      2.260505   987A      2.270295  
     988A      2.270374   989A      2.272160   990A      2.272305  
     991A      2.273702   992A      2.281152   993A      2.282166  
     994A      2.297680   995A      2.300828   996A      2.306729  
     997A      2.311005   998A      2.312168   999A      2.313233  
    1000A      2.322306  1001A      2.322458  1002A      2.328644  
    1003A      2.331182  1004A      2.331344  1005A      2.331597  
    1006A      2.334444  1007A      2.343185  1008A      2.351179  
    1009A      2.351797  1010A      2.352020  1011A      2.352753  
    1012A      2.361194  1013A      2.366600  1014A      2.366867  
    1015A      2.375213  1016A      2.380059  1017A      2.396925  
    1018A      2.416043  1019A      2.424081  1020A      2.424453  
    1021A      2.424504  1022A      2.436500  1023A      2.441303  
    1024A      2.441920  1025A      2.455391  1026A      2.457796  
    1027A      2.468927  1028A      2.470569  1029A      2.473483  
    1030A      2.473993  1031A      2.482001  1032A      2.485582  
    1033A      2.487322  1034A      2.491956  1035A      2.502340  
    1036A      2.517188  1037A      2.519866  1038A      2.529962  
    1039A      2.530462  1040A      2.544666  1041A      2.545951  
    1042A      2.546269  1043A      2.554883  1044A      2.555041  
    1045A      2.555164  1046A      2.559932  1047A      2.560058  
    1048A      2.573078  1049A      2.573098  1050A      2.574837  
    1051A      2.575457  1052A      2.583269  1053A      2.586379  
    1054A      2.586565  1055A      2.587907  1056A      2.590043  
    1057A      2.591590  1058A      2.607279  1059A      2.623714  
    1060A      2.624243  1061A      2.625981  1062A      2.631798  
    1063A      2.632418  1064A      2.641299  1065A      2.641385  
    1066A      2.643152  1067A      2.651250  1068A      2.651569  
    1069A      2.655178  1070A      2.657126  1071A      2.661695  
    1072A      2.673459  1073A      2.682924  1074A      2.683666  
    1075A      2.684159  1076A      2.687393  1077A      2.692755  
    1078A      2.702557  1079A      2.702730  1080A      2.713109  
    1081A      2.713127  1082A      2.718853  1083A      2.718884  
    1084A      2.723501  1085A      2.723833  1086A      2.739090  
    1087A      2.744475  1088A      2.753024  1089A      2.753651  
    1090A      2.759687  1091A      2.776871  1092A      2.781701  
    1093A      2.795127  1094A      2.795470  1095A      2.816193  
    1096A      2.826738  1097A      2.827498  1098A      2.829303  
    1099A      2.842961  1100A      2.852900  1101A      2.853859  
    1102A      2.856112  1103A      2.858407  1104A      2.860471  
    1105A      2.861083  1106A      2.868594  1107A      2.881883  
    1108A      2.900934  1109A      2.917817  1110A      2.918602  
    1111A      2.924222  1112A      2.925334  1113A      2.929826  
    1114A      2.934155  1115A      2.934477  1116A      2.949656  
    1117A      2.950100  1118A      2.956368  1119A      2.963570  
    1120A      2.984507  1121A      3.006883  1122A      3.010038  
    1123A      3.011931  1124A      3.014229  1125A      3.029730  
    1126A      3.034850  1127A      3.051590  1128A      3.064601  
    1129A      3.064741  1130A      3.071309  1131A      3.071612  
    1132A      3.109712  1133A      3.110721  1134A      3.129659  
    1135A      3.130155  1136A      3.130359  1137A      3.137517  
    1138A      3.146866  1139A      3.147307  1140A      3.147380  
    1141A      3.148831  1142A      3.149998  1143A      3.156776  
    1144A      3.158942  1145A      3.160582  1146A      3.166585  
    1147A      3.167159  1148A      3.192010  1149A      3.211290  
    1150A      3.219401  1151A      3.237907  1152A      3.274527  
    1153A      3.277195  1154A      3.277265  1155A      3.281901  
    1156A      3.282583  1157A      3.292594  1158A      3.310150  
    1159A      3.324083  1160A      3.403622  1161A      3.416806  
    1162A      3.417389  1163A      3.443186  1164A      3.481910  
    1165A      3.484542  1166A      3.527758  1167A      3.549850  
    1168A      3.576944  1169A      3.577633  1170A      3.580550  
    1171A      3.594139  1172A      3.626853  1173A      3.628761  
    1174A      3.646705  1175A      3.663187  1176A      3.669725  
    1177A      3.759539  1178A      3.769346  1179A      3.783094  
    1180A      3.784115  1181A      3.818735  1182A      3.869628  
    1183A      3.871017  1184A      3.871068  1185A      3.913377  
    1186A      3.913523  1187A      3.961013  1188A      3.976982  
    1189A      4.010973  1190A      4.034723  1191A      4.045851  
    1192A      4.082425  1193A      4.213132  1194A      4.213600  
    1195A      4.362239  1196A      4.382045  1197A      4.489176  
    1198A      4.738582  1199A      4.781332  1200A      4.834145  
    1201A      4.853953  1202A      4.941472  1203A      5.052836  
    1204A      5.060675  1205A      5.069170  1206A      5.114552  
    1207A      5.129403  1208A      5.392639  1209A      5.424620  
    1210A      5.738993  1211A      5.753486  1212A      6.069098  
    1213A     18.204122  1214A     18.455771  1215A     18.473865  
    1216A     18.562231  1217A     18.837715  1218A     25.345734  
    1219A     25.378914  

    Final Occupation by Irrep:
              A 
    DOCC [   171 ]
    NA   [   171 ]
    NB   [   171 ]

  @DF-RHF Final Energy: -2055.89219762861558

   => Energetics <=

    Nuclear Repulsion Energy =           6452.5568002797772351
    One-Electron Energy =              -15636.4460855989636912
    Two-Electron Energy =                7127.9970876905708792
    Total Energy =                      -2055.8921976286155768

Computation Completed


Properties will be evaluated at   0.000000,   0.000000,   0.000000 [a0]

Properties computed using the SCF density matrix


 Multipole Moments:

 ------------------------------------------------------------------------------------
     Multipole            Electronic (a.u.)      Nuclear  (a.u.)        Total (a.u.)
 ------------------------------------------------------------------------------------

 L = 1.  Multiply by 2.5417464519 to convert [e a0] to [Debye]
 Dipole X            :          0.0000830           -0.0000085            0.0000744
 Dipole Y            :          0.0028722           -0.0028843           -0.0000121
 Dipole Z            :        509.6552527         -509.6627031           -0.0074504
 Magnitude           :                                                    0.0074508

 ------------------------------------------------------------------------------------

*** tstop() called on d-16-12-3 at Mon Jan 22 17:37:20 2024
Module time:
	user time   =    2854.24 seconds =      47.57 minutes
	system time =     200.93 seconds =       3.35 minutes
	total time  =        617 seconds =      10.28 minutes
Total time:
	user time   =    9030.78 seconds =     150.51 minutes
	system time =     798.38 seconds =      13.31 minutes
	total time  =       2217 seconds =      36.95 minutes
  Constructing Basis Sets for SAPT...

   => Loading Basis Set <=

    Name: (JUN-CC-PVDZ AUX)
    Role: RIFIT
    Keyword: DF_BASIS_SAPT
    atoms 1-2, 4-5, 10, 17-70 entry C          line   100 file /home/gridsan/tfroembgen/.conda/envs/psi4test/share/psi4/basis/jun-cc-pvdz-ri.gbs 
    atoms 3, 6                entry N          line   144 file /home/gridsan/tfroembgen/.conda/envs/psi4test/share/psi4/basis/jun-cc-pvdz-ri.gbs 
    atoms 7-9, 11-16, 71-88   entry H          line    30 file /home/gridsan/tfroembgen/.conda/envs/psi4test/share/psi4/basis/jun-cc-pvdz-ri.gbs 

   => Loading Basis Set <=

    Name: (JUN-CC-PVDZ AUX)
    Role: JKFIT
    Keyword: DF_BASIS_ELST
    atoms 1-2, 4-5, 10, 17-70 entry C          line   146 file /home/gridsan/tfroembgen/.conda/envs/psi4test/share/psi4/basis/jun-cc-pvdz-jkfit.gbs 
    atoms 3, 6                entry N          line   202 file /home/gridsan/tfroembgen/.conda/envs/psi4test/share/psi4/basis/jun-cc-pvdz-jkfit.gbs 
    atoms 7-9, 11-16, 71-88   entry H          line    70 file /home/gridsan/tfroembgen/.conda/envs/psi4test/share/psi4/basis/jun-cc-pvdz-jkfit.gbs 


  //>>>>>>>>>>>>>>>>>>>>>>>>>>>>>>>>>>>//
  //               SSAPT0              //
  //<<<<<<<<<<<<<<<<<<<<<<<<<<<<<<<<<<<//


*** tstart() called on d-16-12-3
*** at Mon Jan 22 17:37:21 2024

        SAPT0  
    Ed Hohenstein
     6 June 2009

      Orbital Information
  --------------------------
    NSO        =      1233
    NMO        =      1219
    NRI        =      4343
    NRI (Elst) =      5440
    NOCC A     =        26
    NOCC B     =       171
    FOCC A     =         7
    FOCC B     =        54
    NVIR A     =      1193
    NVIR B     =      1048

    Elst10,r            =    -0.008183427065 [Eh]
    Exch10              =    -0.000000352000 [Eh]
    Exch10 (S^2)        =    -0.000000351999 [Eh]

    Iter     Energy [mEh]          dE [mEh]         Residual      Time [s]
       1      -0.02213849       0.022138491       1.282330145           223
       2      -0.02021444      -0.001924046       0.268751129           422
       3      -0.02180557       0.001591123       0.060130112           621
       4      -0.02182630       0.000020730       0.020278539           815
       5      -0.02178632      -0.000039981       0.004838388          1031
       6      -0.02178723       0.000000911       0.002634440          1221
       7      -0.02178908       0.000001856       0.001091510          1424
       8      -0.02178908      -0.000000006       0.000401343          1645
       9      -0.02178888      -0.000000199       0.000113131          1807
      10      -0.02178885      -0.000000032       0.000025227          1888
      11      -0.02178886       0.000000015       0.000008924          2056
      12      -0.02178887       0.000000003       0.000002828          2119
      13      -0.02178886      -0.000000002       0.000001070          2202
      14      -0.02178886      -0.000000000       0.000000379          2249

    CHF Iterations converged


    Iter     Energy [mEh]          dE [mEh]         Residual      Time [s]
       1      -3.67963224       3.679632240      31.571512579           231
       2      -2.51163762      -1.167994623       3.943359981           430
       3      -2.51639383       0.004756215       1.447915189           572
       4      -2.57671923       0.060325402       0.330219125           625
       5      -2.57959211       0.002872872       0.090539281           671
       6      -2.57845742      -0.001134681       0.043019427           739
       7      -2.57803396      -0.000423469       0.018847163           790
       8      -2.57822298       0.000189029       0.012910100           821
       9      -2.57830420       0.000081217       0.007475091           885
      10      -2.57826113      -0.000043069       0.005277102           920
      11      -2.57823664      -0.000024494       0.002395248           953
      12      -2.57824377       0.000007133       0.001031790          1015
      13      -2.57824865       0.000004883       0.000439275          1037
      14      -2.57824844      -0.000000214       0.000216350          1061
      15      -2.57824738      -0.000001058       0.000126688          1096
      16      -2.57824705      -0.000000331       0.000055275          1238
      17      -2.57824745       0.000000399       0.000020136          1264
      18      -2.57824745       0.000000001       0.000008254          1371
      19      -2.57824741      -0.000000040       0.000004322          1418
      20      -2.57824740      -0.000000008       0.000001604          1456
      21      -2.57824741       0.000000008       0.000000709          1483

    CHF Iterations converged

    Ind20,r (A<-B)      =    -0.000021788864 [Eh]
    Ind20,r (B<-A)      =    -0.002578247411 [Eh]
    Ind20,r             =    -0.002600036274 [Eh]
    Exch-Ind20,r (A<-B) =     0.000000266401 [Eh]
    Exch-Ind20,r (B<-A) =     0.000001027776 [Eh]
    Exch-Ind20,r        =     0.000001294178 [Eh]
    Disp20              =    -0.002175725411 [Eh]
    Disp20 (SS)         =    -0.001087862706 [Eh]
    Disp20 (OS)         =    -0.001087862706 [Eh]
    Exch-Disp20         =     0.000000751188 [Eh]
    Exch-Disp20 (SS)    =     0.000000570333 [Eh]
    Exch-Disp20 (OS)    =     0.000000180856 [Eh]

    SAPT Results 
  --------------------------------------------------------------------------------------------------------
    Electrostatics                 -8.18342707 [mEh]      -5.13517801 [kcal/mol]     -21.48558480 [kJ/mol]
      Elst10,r                     -8.18342707 [mEh]      -5.13517801 [kcal/mol]     -21.48558480 [kJ/mol]

    Exchange                       -0.00035200 [mEh]      -0.00022088 [kcal/mol]      -0.00092418 [kJ/mol]
      Exch10                       -0.00035200 [mEh]      -0.00022088 [kcal/mol]      -0.00092418 [kJ/mol]
      Exch10(S^2)                  -0.00035200 [mEh]      -0.00022088 [kcal/mol]      -0.00092417 [kJ/mol]

    Induction                      -2.65073733 [mEh]      -1.66336279 [kcal/mol]      -6.95950991 [kJ/mol]
      Ind20,r                      -2.60003627 [mEh]      -1.63154739 [kcal/mol]      -6.82639430 [kJ/mol]
      Exch-Ind20,r                  0.00129418 [mEh]       0.00081211 [kcal/mol]       0.00339786 [kJ/mol]
      delta HF,r (2)               -0.05199524 [mEh]      -0.03262750 [kcal/mol]      -0.13651348 [kJ/mol]

    Dispersion                     -2.17497422 [mEh]      -1.36481693 [kcal/mol]      -5.71039404 [kJ/mol]
      Disp20                       -2.17572541 [mEh]      -1.36528831 [kcal/mol]      -5.71236628 [kJ/mol]
      Exch-Disp20                   0.00075119 [mEh]       0.00047138 [kcal/mol]       0.00197224 [kJ/mol]
      Disp20 (SS)                  -1.08786271 [mEh]      -0.68264415 [kcal/mol]      -2.85618314 [kJ/mol]
      Disp20 (OS)                  -1.08786271 [mEh]      -0.68264415 [kcal/mol]      -2.85618314 [kJ/mol]
      Exch-Disp20 (SS)              0.00057033 [mEh]       0.00035789 [kcal/mol]       0.00149741 [kJ/mol]
      Exch-Disp20 (OS)              0.00018086 [mEh]       0.00011349 [kcal/mol]       0.00047484 [kJ/mol]

  Total HF                        -10.83451640 [mEh]      -6.79876168 [kcal/mol]     -28.44601889 [kJ/mol]
  Total SAPT0                     -13.00949062 [mEh]      -8.16357861 [kcal/mol]     -34.15641292 [kJ/mol]

  Special recipe for scaled SAPT0 (see Manual):
    Electrostatics sSAPT0          -8.18342707 [mEh]      -5.13517801 [kcal/mol]     -21.48558480 [kJ/mol]
    Exchange sSAPT0                -0.00035200 [mEh]      -0.00022088 [kcal/mol]      -0.00092418 [kJ/mol]
    Induction sSAPT0               -2.65073733 [mEh]      -1.66336279 [kcal/mol]      -6.95950991 [kJ/mol]
    Dispersion sSAPT0              -2.17497422 [mEh]      -1.36481693 [kcal/mol]      -5.71039404 [kJ/mol]
  Total sSAPT0                    -13.00949062 [mEh]      -8.16357861 [kcal/mol]     -34.15641292 [kJ/mol]
  --------------------------------------------------------------------------------------------------------

*** tstop() called on d-16-12-3 at Mon Jan 22 19:35:44 2024
Module time:
	user time   =    9990.86 seconds =     166.51 minutes
	system time =    1236.64 seconds =      20.61 minutes
	total time  =       7103 seconds =     118.38 minutes
Total time:
	user time   =   19022.62 seconds =     317.04 minutes
	system time =    2035.06 seconds =      33.92 minutes
	total time  =       9321 seconds =     155.35 minutes

    Psi4 stopped on: Monday, 22 January 2024 07:35PM
    Psi4 wall time for execution: 2:35:21.29

*** Psi4 exiting successfully. Buy a developer a beer!
