
    -----------------------------------------------------------------------
          Psi4: An Open-Source Ab Initio Electronic Structure Package
                               Psi4 1.9 release

                         Git: Rev {} zzzzzzz 


    D. G. A. Smith, L. A. Burns, A. C. Simmonett, R. M. Parrish,
    M. C. Schieber, R. Galvelis, P. Kraus, H. Kruse, R. Di Remigio,
    A. Alenaizan, A. M. James, S. Lehtola, J. P. Misiewicz, M. Scheurer,
    R. A. Shaw, J. B. Schriber, Y. Xie, Z. L. Glick, D. A. Sirianni,
    J. S. O'Brien, J. M. Waldrop, A. Kumar, E. G. Hohenstein,
    B. P. Pritchard, B. R. Brooks, H. F. Schaefer III, A. Yu. Sokolov,
    K. Patkowski, A. E. DePrince III, U. Bozkaya, R. A. King,
    F. A. Evangelista, J. M. Turney, T. D. Crawford, C. D. Sherrill,
    J. Chem. Phys. 152(18) 184108 (2020). https://doi.org/10.1063/5.0006002

                            Additional Code Authors
    E. T. Seidl, C. L. Janssen, E. F. Valeev, M. L. Leininger,
    J. F. Gonthier, R. M. Richard, H. R. McAlexander, M. Saitow, X. Wang,
    P. Verma, M. H. Lechner, A. Jiang, S. Behnle, A. G. Heide,
    M. F. Herbst, and D. L. Poole

             Previous Authors, Complete List of Code Contributors,
                       and Citations for Specific Modules
    https://github.com/psi4/psi4/blob/master/codemeta.json
    https://github.com/psi4/psi4/graphs/contributors
    http://psicode.org/psi4manual/master/introduction.html#citing-psifour

    -----------------------------------------------------------------------


    Psi4 started on: Thursday, 25 January 2024 10:58AM

    Process ID: 3546694
    Host:       n2cn0241
    PSIDATADIR: /opt/software/pc2/EB-SW/software/PSI4/1.9-foss-2022a/share/psi4
    Memory:     500.0 MiB
    Threads:    16
    
  ==> Input File <==

--------------------------------------------------------------------------
memory 47 GB # how much memory is available ! Depends on the nodes/cores !

molecule dimer {
# monomer A
+1 1    # Charge and multiplicity
C  0.680067 -0.008042 -10.615929
C -0.680504 -0.006014 -10.615545
N -1.085635 -0.005016  -9.297221
C  0.000108 -0.001740  -8.515820
C -2.477365  0.044390  -8.829242
N  1.085222 -0.005016  -9.297221
H  1.385146 -0.015870 -11.433368
H -1.385302 -0.006204 -11.433214
H -0.000009  0.000007  -7.434731
C  2.478117 -0.021908  -8.832123
H  2.490592  0.005437  -7.741870
H  2.967028 -0.935354  -9.179299
H  3.001428  0.853575  -9.223595
H -2.857359  1.066461  -8.909201
H -3.082679 -0.625694  -9.442306
H -2.518128 -0.282594  -7.789294
--
# monomer B
0 1     # Charge and multiplicity
C   -3.66844126402057      7.80375217008252      0.00190004133558
C   -4.84759871934653      7.13124183134024     -0.00046653359696
C   -4.89495929917518      5.69633040353158     -0.00103944469517
C   -3.65374067877320      4.98073034095895      0.00662099703436
C   -2.40942512149445      7.11398103667468      0.00209438359570
C   -2.42547734410473      5.68112195090346     -0.00491050527438
C   -1.19474401643570      7.78614419430947      0.00356656413763
C   0.03795902893699      7.09942164575698      0.00139585983271
C   0.03033258741920      5.66948955970466     -0.00408752508301
C   -1.20098450790502      4.96927034791531      0.00488220885047
C   1.27795782581485      7.77285944319479      0.00277170839332
C   2.48535808472416      7.08769688523756      0.00049722048857
C   2.48612868491717      5.65477081024076     -0.00644052849921
C   1.25408291964399      4.95607811366431      0.00518741308898
C   3.75171459140595      7.76391215098033      0.00062407186893
C   4.92356605618520      7.07878077698995     -0.00143240883900
C   4.95560727132542      5.64344746336949     -0.00159282164606
C   3.70680153420475      4.94121020833308      0.00349873852374
H   -3.65852113775815      8.89082741913536      0.00358502958574
H   -1.18921332975660      8.87412108735996      0.00753844057883
H   1.28429423888630      8.86083343548850      0.00693053253426
H   3.75354208679975      8.85103527897216      0.00214659618464
H   5.86995870320703      7.61379483465560     -0.00235777588134
H   -5.78823170750226      7.67630221293400     -0.00202638095293
C   -6.09197395869619      4.99326001364347     -0.00291168518608
C   -6.12866148031747      3.58258016879823     -0.00171050815740
C   -3.66457974004527      3.56418217974434     -0.00463560277484
C   -4.89429820469869      2.86108077590057      0.00453338221034
C   -2.43733499489796      2.84761165708481      0.00719617576166
C   -1.20922785759670      3.54788693497833     -0.00648285103018
C   1.24714157216223      3.53468075142962     -0.00729145743546
C   0.01517603956900      2.83311183930540      0.00439272578912
C   2.46764517244071      2.82128997725533      0.00449278391269
C   3.70254947457969      3.52466015442405     -0.00899517692985
C   6.14498038638375      4.92757236613191     -0.00282626685777
C   6.16658835886151      3.51658447594213     -0.00065971342101
C   4.92460995845939      2.80840792535402      0.00587903281610
H   7.08990550964105      5.46688776622306     -0.00658814770723
H   -7.03104175110130      5.54268795285765     -0.00714490013730
C   -7.33969804112295      2.85841153457957     -0.00333767559888
C   -7.36488195805880      1.47032337158330     -0.00157213747140
C   -4.90350460894690      1.44442681216000     -0.00628840166334
C   -6.13225715261081      0.73993935705394      0.00600164231964
C   -3.67687480051673      0.72669714267312      0.00433931473643
C   -2.44565658606518      1.42964113326212     -0.00597039546461
C   -1.22360068130162      0.71532450163492      0.00545886906656
C   0.00763786931376      1.41738314923765      0.00392452278437
C   1.23121980774686      0.70211669058719     -0.01490206287210
C   2.46082110053113      1.40329203612573      0.00460244601878
C   3.68443025419614      0.68719842821222      0.00377365974158
C   4.91870890153864      1.39173456118907     -0.00862816189375
C   7.36980207796101      2.77948220318441     -0.00242013321349
C   7.38016266612146      1.39121750785509     -0.00087345036788
C   6.13979953912259      0.67411862320065      0.00545489144369
H   -8.27919079934664      3.40711804112415     -0.00763522772059
H   8.31511347147953      3.31811809662368     -0.00663070901292
C   -8.59175593758115      0.72483255304480     -0.00123170985383
C   -8.59902460370342     -0.63263980622873      0.00089141472904
C   -6.13981313911873     -0.67413663715361     -0.00609792660607
C   -7.38018411213749     -1.39126618958160      0.00131813493501
C   -4.91868448025621     -1.39175501803000      0.00624257154343
C   -3.68443829568458     -0.68723731573599     -0.00478966852105
C   -2.46081704024768     -1.40334517882457      0.00575341766833
C   -1.23116201232071     -0.70217386488055     -0.00636696112346
C   -0.00756962538737     -1.41741884941102      0.00108956317991
C   1.22364771588843     -0.71527537726392      0.01109518512883
C   2.44567064933149     -1.42964328900682     -0.00065482763106
C   3.67686670284649     -0.72670743155550     -0.00479541202602
C   6.13224884641929     -0.73997883984993     -0.00632338623858
C   4.90351914550401     -1.44445752054090      0.00751768830159
C   8.59901484869081      0.63260386666793     -0.00101133422380
C   8.59174548810050     -0.72485086719319      0.00072504603735
C   7.36486276438985     -1.47033266560598      0.00049486934466
H   -9.52830597181814      1.27684744919284     -0.00270163681798
H   9.54141097460619      1.17457248844457     -0.00206336648518
C   -7.36983790976868     -2.77954514593389      0.00312634335708
C   -4.92459910905015     -2.80843725734101     -0.00460528907921
C   -6.16662249566744     -3.51665219282533      0.00169655107992
C   -3.70251035970491     -3.52468154912026      0.00571878010666
C   -2.46764698511392     -2.82132596280400     -0.00632585824990
C   -0.01513347410770     -2.83314164539971     -0.00604426974092
C   -1.24712184122656     -3.53473217556300      0.00551968366725
C   1.20924506964357     -3.54791467864352      0.00805871345849
C   2.43733602215464     -2.84764173817541     -0.00608104485234
C   4.89430234377080     -2.86112296828604     -0.00526030478103
C   3.66461525504104     -3.56421984553201      0.00761911515957
C   6.12863901474565     -3.58258405771778      0.00096495711699
C   7.33967266469532     -2.85841330737039      0.00248018319869
H   -9.54144911125902     -1.17456346666430      0.00226083090216
H   9.52826186807155     -1.27691907390448      0.00197485379837
H   -8.31516504384864     -3.31814985321231      0.00729857188773
H   8.27915514249207     -3.40714078989363      0.00681973918158
C   -6.14499418870218     -4.92764727278338      0.00302254913999
C   -3.70678334799751     -4.94126171411716     -0.00679841894792
C   -4.95559005800169     -5.64349397349412      0.00116871569699
C   -2.48612132622665     -5.65478557440947      0.00614125209662
C   -1.25405833548005     -4.95612205000132     -0.00503435388927
C   1.20101257386816     -4.96928038819302     -0.00385322963129
C   -0.03033667441341     -5.66952030313900      0.00398997003238
C   3.65375010132847     -4.98074377541453     -0.00309522988330
C   2.42549269587528     -5.68117463552727      0.00628170066869
C   6.09196561781097     -4.99325796338655      0.00325918379042
C   4.89497644461045     -5.69634842095790      0.00202298796027
H   -7.08989238804069     -5.46699984223871      0.00742531082125
H   7.03105520920009     -5.54265853633254      0.00683896355417
C   -4.92354532219813     -7.07882109967734      0.00061394679214
C   -2.48534208823777     -7.08772807792913     -0.00189594564379
C   -3.75168589177895     -7.76394715763627     -0.00170126671874
C   -0.03794895698805     -7.09946487446944     -0.00168022049625
C   -1.27795610040136     -7.77290438466689     -0.00366491325785
C   2.40944432072629     -7.11402201200282     -0.00081701968533
C   1.19474993715296     -7.78618536556242     -0.00296931056689
C   4.84762105249800     -7.13126211057943      0.00168979497423
C   3.66847160587561     -7.80378799294376     -0.00065863938960
H   -5.86994035041618     -7.61383059804164      0.00215798365757
H   5.78824962538815     -7.67633218931421      0.00281691445618
H   -3.75352693944918     -8.85107156923607     -0.00353718114765
H   -1.28430440589466     -8.86087539249706     -0.00809229711623
H   1.18922157469537     -8.87416062058945     -0.00706194725726
H   3.65854661482387     -8.89086063405326     -0.00231318081200

    units angstrom      # Angstroms are the default
    no_reorient         # Geometry fixed, default
    symmetry c1         # C1 symmetry, default
}

set {
    scf_type DF         # Density fitting, faster than exact integrals
    freeze_core True    # Freeze core electrons
    basis jun-cc-pVDZ   # Jun-cc-pVDZ basis set, recommended for sSAPT0 in https://doi.org/10.1063/1.4867135
}

energy('ssapt0')        # Compute sSAPT0 energy, includes also SAPT0
--------------------------------------------------------------------------

  Memory set to  43.772 GiB by Python driver.

Scratch directory: /tmp/
   => Loading Basis Set <=

    Name: JUN-CC-PVDZ
    Role: ORBITAL
    Keyword: BASIS
    atoms 1-2, 4-5, 10, 17-34, 41-53, 56-70, 73-89, 92-104, 109-119, 122-130 entry C          line   164 file /opt/software/pc2/EB-SW/software/PSI4/1.9-foss-2022a/share/psi4/basis/jun-cc-pvdz.gbs 
    atoms 3, 6                                                               entry N          line   198 file /opt/software/pc2/EB-SW/software/PSI4/1.9-foss-2022a/share/psi4/basis/jun-cc-pvdz.gbs 
    atoms 7-9, 11-16, 35-40, 54-55, 71-72, 90-91, 105-108, 120-121, 131-136  entry H          line    36 file /opt/software/pc2/EB-SW/software/PSI4/1.9-foss-2022a/share/psi4/basis/jun-cc-pvdz.gbs 

   => Loading Basis Set <=

    Name: JUN-CC-PVDZ
    Role: ORBITAL
    Keyword: BASIS
    atoms 1-2, 4-5, 10, 17-34, 41-53, 56-70, 73-89, 92-104, 109-119, 122-130 entry C          line   164 file /opt/software/pc2/EB-SW/software/PSI4/1.9-foss-2022a/share/psi4/basis/jun-cc-pvdz.gbs 
    atoms 3, 6                                                               entry N          line   198 file /opt/software/pc2/EB-SW/software/PSI4/1.9-foss-2022a/share/psi4/basis/jun-cc-pvdz.gbs 
    atoms 7-9, 11-16, 35-40, 54-55, 71-72, 90-91, 105-108, 120-121, 131-136  entry H          line    36 file /opt/software/pc2/EB-SW/software/PSI4/1.9-foss-2022a/share/psi4/basis/jun-cc-pvdz.gbs 


  //>>>>>>>>>>>>>>>>>>>>>>>>>>>>>>>>>>>//
  //              Dimer HF             //
  //<<<<<<<<<<<<<<<<<<<<<<<<<<<<<<<<<<<//

   => Libint2 <=

    Primary   basis highest AM E, G, H:  5, 4, 3
    Auxiliary basis highest AM E, G, H:  6, 5, 4
    Onebody   basis highest AM E, G, H:  6, 5, 4
    Solid Harmonics ordering:            gaussian

*** tstart() called on n2cn0241
*** at Thu Jan 25 10:58:57 2024

   => Loading Basis Set <=

    Name: JUN-CC-PVDZ
    Role: ORBITAL
    Keyword: BASIS
    atoms 1-2, 4-5, 10, 17-34, 41-53, 56-70, 73-89, 92-104, 109-119, 122-130 entry C          line   164 file /opt/software/pc2/EB-SW/software/PSI4/1.9-foss-2022a/share/psi4/basis/jun-cc-pvdz.gbs 
    atoms 3, 6                                                               entry N          line   198 file /opt/software/pc2/EB-SW/software/PSI4/1.9-foss-2022a/share/psi4/basis/jun-cc-pvdz.gbs 
    atoms 7-9, 11-16, 35-40, 54-55, 71-72, 90-91, 105-108, 120-121, 131-136  entry H          line    36 file /opt/software/pc2/EB-SW/software/PSI4/1.9-foss-2022a/share/psi4/basis/jun-cc-pvdz.gbs 


         ---------------------------------------------------------
                                   SCF
               by Justin Turney, Rob Parrish, Andy Simmonett
                          and Daniel G. A. Smith
                              RHF Reference
                       16 Threads,  44822 MiB Core
         ---------------------------------------------------------

  ==> Geometry <==

    Molecular point group: c1
    Full point group: C1

    Geometry (in Angstrom), charge = 1, multiplicity = 1:

       Center              X                  Y                   Z               Mass       
    ------------   -----------------  -----------------  -----------------  -----------------
         C            0.680062820275    -0.008027535675    -9.899257387296    12.000000000000
         C           -0.680508179725    -0.005999535675    -9.898873387296    12.000000000000
         N           -1.085639179725    -0.005001535675    -8.580549387296    14.003074004430
         C            0.000103820275    -0.001725535675    -7.799148387296    12.000000000000
         C           -2.477369179725     0.044404464325    -8.112570387296    12.000000000000
         N            1.085217820275    -0.005001535675    -8.580549387296    14.003074004430
         H            1.385141820275    -0.015855535675   -10.716696387296     1.007825032230
         H           -1.385306179725    -0.006189535675   -10.716542387296     1.007825032230
         H           -0.000013179725     0.000021464325    -6.718059387296     1.007825032230
         C            2.478112820275    -0.021893535675    -8.115451387296    12.000000000000
         H            2.490587820275     0.005451464325    -7.025198387296     1.007825032230
         H            2.967023820275    -0.935339535675    -8.462627387296     1.007825032230
         H            3.001423820275     0.853589464325    -8.506923387296     1.007825032230
         H           -2.857363179725     1.066475464325    -8.192529387296     1.007825032230
         H           -3.082683179725    -0.625679535675    -8.725634387296     1.007825032230
         H           -2.518132179725    -0.282579535675    -7.072622387296     1.007825032230
         C           -3.668445443746     7.803766634408     0.718571654040    12.000000000000
         C           -4.847602899072     7.131256295665     0.716205079107    12.000000000000
         C           -4.894963478901     5.696344867857     0.715632168009    12.000000000000
         C           -3.653744858499     4.980744805284     0.723292609739    12.000000000000
         C           -2.409429301220     7.113995501000     0.718765996300    12.000000000000
         C           -2.425481523830     5.681136415228     0.711761107430    12.000000000000
         C           -1.194748196161     7.786158658634     0.720238176842    12.000000000000
         C            0.037954849212     7.099436110082     0.718067472537    12.000000000000
         C            0.030328407694     5.669504024030     0.712584087621    12.000000000000
         C           -1.200988687630     4.969284812240     0.721553821555    12.000000000000
         C            1.277953646089     7.772873907520     0.719443321098    12.000000000000
         C            2.485353904999     7.087711349563     0.717168833193    12.000000000000
         C            2.486124505192     5.654785274566     0.710231084205    12.000000000000
         C            1.254078739919     4.956092577989     0.721859025793    12.000000000000
         C            3.751710411681     7.763926615305     0.717295684573    12.000000000000
         C            4.923561876460     7.078795241315     0.715239203865    12.000000000000
         C            4.955603091600     5.643461927694     0.715078791058    12.000000000000
         C            3.706797354479     4.941224672658     0.720170351228    12.000000000000
         H           -3.658525317484     8.890841883460     0.720256642290     1.007825032230
         H           -1.189217509482     8.874135551685     0.724210053283     1.007825032230
         H            1.284290059161     8.860847899813     0.723602145238     1.007825032230
         H            3.753537907074     8.851049743297     0.718818208889     1.007825032230
         H            5.869954523482     7.613809298981     0.714313836823     1.007825032230
         H           -5.788235887228     7.676316677259     0.714645231751     1.007825032230
         C           -6.091978138422     4.993274477968     0.713759927518    12.000000000000
         C           -6.128665660043     3.582594633123     0.714961104547    12.000000000000
         C           -3.664583919771     3.564196644069     0.712036009929    12.000000000000
         C           -4.894302384424     2.861095240226     0.721204994915    12.000000000000
         C           -2.437339174623     2.847626121410     0.723867788466    12.000000000000
         C           -1.209232037322     3.547901399303     0.710188761674    12.000000000000
         C            1.247137392437     3.534695215755     0.709380155269    12.000000000000
         C            0.015171859844     2.833126303630     0.721064338493    12.000000000000
         C            2.467640992715     2.821304441580     0.721164396617    12.000000000000
         C            3.702545294854     3.524674618749     0.707676435774    12.000000000000
         C            6.144976206658     4.927586830457     0.713845345846    12.000000000000
         C            6.166584179136     3.516598940267     0.716011899283    12.000000000000
         C            4.924605778734     2.808422389679     0.722550645520    12.000000000000
         H            7.089901329916     5.466902230548     0.710083464997     1.007825032230
         H           -7.031045930827     5.542702417183     0.709526712567     1.007825032230
         C           -7.339702220848     2.858425998905     0.713333937105    12.000000000000
         C           -7.364886137784     1.470337835908     0.715099475233    12.000000000000
         C           -4.903508788672     1.444441276485     0.710383211041    12.000000000000
         C           -6.132261332336     0.739953821379     0.722673255024    12.000000000000
         C           -3.676878980242     0.726711606998     0.721010927441    12.000000000000
         C           -2.445660765791     1.429655597587     0.710701217240    12.000000000000
         C           -1.223604861027     0.715338965960     0.722130481771    12.000000000000
         C            0.007633689588     1.417397613563     0.720596135489    12.000000000000
         C            1.231215628021     0.702131154912     0.701769549832    12.000000000000
         C            2.460816920806     1.403306500451     0.721274058723    12.000000000000
         C            3.684426074471     0.687212892537     0.720445272446    12.000000000000
         C            4.918704721813     1.391749025514     0.708043450810    12.000000000000
         C            7.369797898236     2.779496667509     0.714251479491    12.000000000000
         C            7.380158486396     1.391231972180     0.715798162336    12.000000000000
         C            6.139795359397     0.674133087526     0.722126504148    12.000000000000
         H           -8.279194979072     3.407132505449     0.709036384984     1.007825032230
         H            8.315109291754     3.318132560949     0.710040903691     1.007825032230
         C           -8.591760117307     0.724847017370     0.715439902850    12.000000000000
         C           -8.599028783429    -0.632625341904     0.717563027433    12.000000000000
         C           -6.139817318844    -0.674122172829     0.710573686098    12.000000000000
         C           -7.380188291863    -1.391251725257     0.717989747639    12.000000000000
         C           -4.918688659982    -1.391740553705     0.722914184248    12.000000000000
         C           -3.684442475410    -0.687222851411     0.711881944183    12.000000000000
         C           -2.460821219973    -1.403330714500     0.722425030373    12.000000000000
         C           -1.231166192046    -0.702159400556     0.710304651581    12.000000000000
         C           -0.007573805113    -1.417404385086     0.717761175884    12.000000000000
         C            1.223643536163    -0.715260912939     0.727766797833    12.000000000000
         C            2.445666469606    -1.429628824682     0.716016785073    12.000000000000
         C            3.676862523121    -0.726692967231     0.711876200678    12.000000000000
         C            6.132244666694    -0.739964375525     0.710348226466    12.000000000000
         C            4.903514965779    -1.444443056216     0.724189301006    12.000000000000
         C            8.599010668965     0.632618330993     0.715660278480    12.000000000000
         C            8.591741308375    -0.724836402868     0.717396658742    12.000000000000
         C            7.364858584664    -1.470318201281     0.717166482049    12.000000000000
         H           -9.528310151544     1.276861913518     0.713969975886     1.007825032230
         H            9.541406794881     1.174586952770     0.714608246219     1.007825032230
         C           -7.369842089494    -2.779530681609     0.719797956061    12.000000000000
         C           -4.924603288776    -2.808422793016     0.712066323625    12.000000000000
         C           -6.166626675393    -3.516637728500     0.718368163784    12.000000000000
         C           -3.702514539430    -3.524667084795     0.722390392811    12.000000000000
         C           -2.467651164839    -2.821311498479     0.710345754454    12.000000000000
         C           -0.015137653833    -2.833127181075     0.710627342963    12.000000000000
         C           -1.247126020952    -3.534717711238     0.722191296371    12.000000000000
         C            1.209240889918    -3.547900214319     0.724730326163    12.000000000000
         C            2.437331842429    -2.847627273850     0.710590567852    12.000000000000
         C            4.894298164045    -2.861108503961     0.711411307923    12.000000000000
         C            3.664611075316    -3.564205381207     0.724290727864    12.000000000000
         C            6.128634835020    -3.582569593393     0.717636569821    12.000000000000
         C            7.339668484970    -2.858398843045     0.719151795903    12.000000000000
         H           -9.541453290984    -1.174549002339     0.718932443606     1.007825032230
         H            9.528257688346    -1.276904609579     0.718646466503     1.007825032230
         H           -8.315169223574    -3.318135388887     0.723970184592     1.007825032230
         H            8.279150962767    -3.407126325569     0.723491351886     1.007825032230
         C           -6.144998368428    -4.927632808458     0.719694161844    12.000000000000
         C           -3.706787527723    -4.941247249792     0.709873193756    12.000000000000
         C           -4.955594237727    -5.643479509169     0.717840328401    12.000000000000
         C           -2.486125505952    -5.654771110084     0.722812864801    12.000000000000
         C           -1.254062515205    -4.956107585676     0.711637258815    12.000000000000
         C            1.201008394143    -4.969265923868     0.712818383073    12.000000000000
         C           -0.030340854139    -5.669505838814     0.720661582737    12.000000000000
         C            3.653745921603    -4.980729311090     0.713576382821    12.000000000000
         C            2.425488516150    -5.681160171202     0.722953313373    12.000000000000
         C            6.091961438086    -4.993243499062     0.719930796495    12.000000000000
         C            4.894972264885    -5.696333956633     0.718694600664    12.000000000000
         H           -7.089896567766    -5.466985377914     0.724096923525     1.007825032230
         H            7.031051029475    -5.542644072008     0.723510576258     1.007825032230
         C           -4.923549501924    -7.078806635352     0.717285559496    12.000000000000
         C           -2.485346267963    -7.087713613604     0.714775667060    12.000000000000
         C           -3.751690071504    -7.763932693311     0.714970345985    12.000000000000
         C           -0.037953136713    -7.099450410144     0.714991392208    12.000000000000
         C           -1.277960280127    -7.772889920342     0.713006699446    12.000000000000
         C            2.409440141001    -7.114007547678     0.715854593019    12.000000000000
         C            1.194745757428    -7.786170901237     0.713702302137    12.000000000000
         C            4.847616872773    -7.131247646254     0.718361407678    12.000000000000
         C            3.668467426150    -7.803773528619     0.716012973315    12.000000000000
         H           -5.869944530142    -7.613816133717     0.718829596362     1.007825032230
         H            5.788245445663    -7.676317724989     0.719488527160     1.007825032230
         H           -3.753531119175    -8.851057104911     0.713134431557     1.007825032230
         H           -1.284308585620    -8.860860928172     0.708579315588     1.007825032230
         H            1.189217394970    -8.874146156264     0.709609665447     1.007825032230
         H            3.658542435098    -8.890846169728     0.714358431892     1.007825032230

  Running in c1 symmetry.

  Rotational constants: A =      0.00053  B =      0.00052  C =      0.00035 [cm^-1]
  Rotational constants: A =     15.84346  B =     15.72696  C =     10.51914 [MHz]
  Nuclear repulsion = 17411.514099488504144

  Charge       = 1
  Multiplicity = 1
  Electrons    = 652
  Nalpha       = 326
  Nbeta        = 326

  ==> Algorithm <==

  SCF Algorithm Type is DF.
  DIIS enabled.
  MOM disabled.
  Fractional occupation disabled.
  Guess Type is SAD.
  Energy threshold   = 1.00e-08
  Density threshold  = 1.00e-08
  Integral threshold = 1.00e-12

  ==> Primary Basis <==

  Basis Set: JUN-CC-PVDZ
    Blend: JUN-CC-PVDZ
    Number of shells: 923
    Number of basis functions: 2019
    Number of Cartesian functions: 2122
    Spherical Harmonics?: true
    Max angular momentum: 2

   => Loading Basis Set <=

    Name: (JUN-CC-PVDZ AUX)
    Role: JKFIT
    Keyword: DF_BASIS_SCF
    atoms 1-2, 4-5, 10, 17-34, 41-53, 56-70, 73-89, 92-104, 109-119, 122-130 entry C          line   146 file /opt/software/pc2/EB-SW/software/PSI4/1.9-foss-2022a/share/psi4/basis/jun-cc-pvdz-jkfit.gbs 
    atoms 3, 6                                                               entry N          line   202 file /opt/software/pc2/EB-SW/software/PSI4/1.9-foss-2022a/share/psi4/basis/jun-cc-pvdz-jkfit.gbs 
    atoms 7-9, 11-16, 35-40, 54-55, 71-72, 90-91, 105-108, 120-121, 131-136  entry H          line    70 file /opt/software/pc2/EB-SW/software/PSI4/1.9-foss-2022a/share/psi4/basis/jun-cc-pvdz-jkfit.gbs 

  ==> Integral Setup <==

  ==> DiskDFJK: Density-Fitted J/K Matrices <==

    J tasked:                  Yes
    K tasked:                  Yes
    wK tasked:                  No
    OpenMP threads:             16
    Integrals threads:          16
    Memory [MiB]:            33617
    Algorithm:                Disk
    Integral Cache:           SAVE
    Schwarz Cutoff:          1E-12
    Fitting Condition:       1E-10

   => Auxiliary Basis Set <=

  Basis Set: (JUN-CC-PVDZ AUX)
    Blend: JUN-CC-PVDZ-JKFIT
    Number of shells: 3078
    Number of basis functions: 8896
    Number of Cartesian functions: 10198
    Spherical Harmonics?: true
    Max angular momentum: 3

  Minimum eigenvalue in the overlap matrix is 9.0510270268E-11.
  Reciprocal condition number of the overlap matrix is 3.9695044859E-12.
    Using canonical orthogonalization.
  Overall, 37 of 2019 possible MOs eliminated.


  ==> Pre-Iterations <==

  SCF Guess: Superposition of Atomic Densities via on-the-fly atomic UHF (no occupation information).

   -------------------------
    Irrep   Nso     Nmo    
   -------------------------
     A       2019    1982 
   -------------------------
    Total    2019    1982
   -------------------------

  ==> Iterations <==

                           Total Energy        Delta E     RMS |[F,P]|

   @DF-RHF iter SAD: -3967.13312632833004   -3.96713e+03   0.00000e+00 
   @DF-RHF iter   1: -3952.09282243784128    1.50403e+01   7.16377e-04 DIIS/ADIIS
   @DF-RHF iter   2: -3953.49076648869686   -1.39794e+00   2.33021e-04 DIIS/ADIIS
   @DF-RHF iter   3: -3953.61539599231401   -1.24630e-01   9.87952e-05 DIIS
   @DF-RHF iter   4: -3953.63744747778173   -2.20515e-02   4.07932e-05 DIIS
   @DF-RHF iter   5: -3953.64162790896080   -4.18043e-03   9.95325e-06 DIIS
   @DF-RHF iter   6: -3953.64204507693375   -4.17168e-04   4.57416e-06 DIIS
   @DF-RHF iter   7: -3953.64222497107448   -1.79894e-04   2.20073e-06 DIIS
   @DF-RHF iter   8: -3953.64228544554953   -6.04745e-05   1.11107e-06 DIIS
   @DF-RHF iter   9: -3953.64230272528766   -1.72797e-05   3.54774e-07 DIIS
   @DF-RHF iter  10: -3953.64230389797285   -1.17269e-06   1.45896e-07 DIIS
   @DF-RHF iter  11: -3953.64230404894533   -1.50972e-07   5.94910e-08 DIIS
   @DF-RHF iter  12: -3953.64230408251660   -3.35713e-08   2.95199e-08 DIIS
   @DF-RHF iter  13: -3953.64230408815365   -5.63705e-09   9.57608e-09 DIIS
  Energy and wave function converged.


  ==> Post-Iterations <==

    Orbital Energies [Eh]
    ---------------------

    Doubly Occupied:                                                      

       1A    -15.826276     2A    -15.825750     3A    -11.521061  
       4A    -11.452196     5A    -11.450642     6A    -11.441069  
       7A    -11.440959     8A    -11.311407     9A    -11.311006  
      10A    -11.310986    11A    -11.310420    12A    -11.310394  
      13A    -11.310244    14A    -11.310180    15A    -11.310088  
      16A    -11.310039    17A    -11.309611    18A    -11.309576  
      19A    -11.309545    20A    -11.309209    21A    -11.309204  
      22A    -11.309032    23A    -11.309010    24A    -11.308972  
      25A    -11.308820    26A    -11.308575    27A    -11.308451  
      28A    -11.308406    29A    -11.308306    30A    -11.308243  
      31A    -11.308203    32A    -11.307516    33A    -11.307509  
      34A    -11.307417    35A    -11.307388    36A    -11.307353  
      37A    -11.307291    38A    -11.307288    39A    -11.307235  
      40A    -11.307197    41A    -11.307179    42A    -11.307101  
      43A    -11.307083    44A    -11.306533    45A    -11.306526  
      46A    -11.306523    47A    -11.306513    48A    -11.306367  
      49A    -11.306360    50A    -11.306025    51A    -11.306018  
      52A    -11.305867    53A    -11.305863    54A    -11.305854  
      55A    -11.305851    56A    -11.305795    57A    -11.305785  
      58A    -11.305612    59A    -11.305611    60A    -11.305601  
      61A    -11.305600    62A    -11.305101    63A    -11.305094  
      64A    -11.304941    65A    -11.304934    66A    -11.304931  
      67A    -11.304925    68A    -11.304714    69A    -11.304709  
      70A    -11.304675    71A    -11.304670    72A    -11.304555  
      73A    -11.304537    74A    -11.304296    75A    -11.304293  
      76A    -11.304144    77A    -11.304141    78A    -11.304126  
      79A    -11.304125    80A    -11.298059    81A    -11.298042  
      82A    -11.298006    83A    -11.298003    84A    -11.297907  
      85A    -11.297892    86A    -11.297884    87A    -11.297853  
      88A    -11.297851    89A    -11.297841    90A    -11.297802  
      91A    -11.297760    92A    -11.297671    93A    -11.297658  
      94A    -11.297414    95A    -11.297406    96A    -11.297403  
      97A    -11.297400    98A    -11.296208    99A    -11.296194  
     100A    -11.295949   101A    -11.295940   102A    -11.295938  
     103A    -11.295935   104A     -1.569994   105A     -1.425514  
     106A     -1.300779   107A     -1.285098   108A     -1.284995  
     109A     -1.266015   110A     -1.266001   111A     -1.261554  
     112A     -1.246125   113A     -1.240943   114A     -1.234119  
     115A     -1.234024   116A     -1.230579   117A     -1.218715  
     118A     -1.218700   119A     -1.201391   120A     -1.201386  
     121A     -1.198529   122A     -1.189511   123A     -1.189505  
     124A     -1.180899   125A     -1.173897   126A     -1.160433  
     127A     -1.158215   128A     -1.158148   129A     -1.157883  
     130A     -1.156286   131A     -1.133686   132A     -1.133640  
     133A     -1.121620   134A     -1.121610   135A     -1.113122  
     136A     -1.113098   137A     -1.110645   138A     -1.110419  
     139A     -1.091886   140A     -1.091870   141A     -1.085532  
     142A     -1.083393   143A     -1.083369   144A     -1.071000  
     145A     -1.067533   146A     -1.067526   147A     -1.052274  
     148A     -1.051996   149A     -1.048846   150A     -1.045898  
     151A     -1.045886   152A     -1.035509   153A     -1.016259  
     154A     -1.016252   155A     -1.014459   156A     -1.000669  
     157A     -1.000652   158A     -0.988643   159A     -0.951575  
     160A     -0.951501   161A     -0.950512   162A     -0.949926  
     163A     -0.949865   164A     -0.938386   165A     -0.938291  
     166A     -0.936042   167A     -0.935953   168A     -0.934921  
     169A     -0.916832   170A     -0.913048   171A     -0.908691  
     172A     -0.896343   173A     -0.893432   174A     -0.893347  
     175A     -0.891204   176A     -0.888396   177A     -0.879536  
     178A     -0.879510   179A     -0.872481   180A     -0.872477  
     181A     -0.842216   182A     -0.829896   183A     -0.829809  
     184A     -0.828331   185A     -0.828288   186A     -0.827511  
     187A     -0.827392   188A     -0.827323   189A     -0.812169  
     190A     -0.808232   191A     -0.806559   192A     -0.804643  
     193A     -0.795882   194A     -0.781982   195A     -0.777940  
     196A     -0.777819   197A     -0.773914   198A     -0.772183  
     199A     -0.772101   200A     -0.770165   201A     -0.769655  
     202A     -0.769600   203A     -0.764014   204A     -0.759168  
     205A     -0.759127   206A     -0.744234   207A     -0.744223  
     208A     -0.731533   209A     -0.730676   210A     -0.730652  
     211A     -0.727081   212A     -0.727076   213A     -0.723745  
     214A     -0.721077   215A     -0.717199   216A     -0.708727  
     217A     -0.698158   218A     -0.695608   219A     -0.695577  
     220A     -0.695222   221A     -0.695145   222A     -0.694202  
     223A     -0.686188   224A     -0.686151   225A     -0.684894  
     226A     -0.683879   227A     -0.681121   228A     -0.681101  
     229A     -0.674091   230A     -0.664843   231A     -0.659711  
     232A     -0.659675   233A     -0.653649   234A     -0.653619  
     235A     -0.645311   236A     -0.645204   237A     -0.643955  
     238A     -0.643915   239A     -0.643581   240A     -0.643525  
     241A     -0.639791   242A     -0.639788   243A     -0.639740  
     244A     -0.639451   245A     -0.636737   246A     -0.636723  
     247A     -0.633028   248A     -0.621844   249A     -0.621804  
     250A     -0.621260   251A     -0.621241   252A     -0.618095  
     253A     -0.615746   254A     -0.613523   255A     -0.613505  
     256A     -0.611454   257A     -0.611398   258A     -0.604893  
     259A     -0.603838   260A     -0.603758   261A     -0.602670  
     262A     -0.599375   263A     -0.595607   264A     -0.591258  
     265A     -0.589607   266A     -0.588095   267A     -0.581033  
     268A     -0.580934   269A     -0.578260   270A     -0.578206  
     271A     -0.573306   272A     -0.572706   273A     -0.572693  
     274A     -0.562100   275A     -0.561975   276A     -0.560229  
     277A     -0.560209   278A     -0.554073   279A     -0.554067  
     280A     -0.542950   281A     -0.541483   282A     -0.541425  
     283A     -0.539581   284A     -0.539565   285A     -0.535321  
     286A     -0.525863   287A     -0.522084   288A     -0.522078  
     289A     -0.518685   290A     -0.516026   291A     -0.514890  
     292A     -0.511590   293A     -0.511559   294A     -0.504112  
     295A     -0.492558   296A     -0.492454   297A     -0.486798  
     298A     -0.486587   299A     -0.486457   300A     -0.479180  
     301A     -0.478469   302A     -0.452626   303A     -0.452575  
     304A     -0.432089   305A     -0.432062   306A     -0.430175  
     307A     -0.430166   308A     -0.429563   309A     -0.399465  
     310A     -0.399435   311A     -0.395792   312A     -0.384589  
     313A     -0.382258   314A     -0.382239   315A     -0.377203  
     316A     -0.377132   317A     -0.352971   318A     -0.347667  
     319A     -0.347653   320A     -0.345721   321A     -0.331124  
     322A     -0.300424   323A     -0.299134   324A     -0.299124  
     325A     -0.249221   326A     -0.249218  

    Virtual:                                                              

     327A     -0.060263   328A     -0.056468   329A     -0.056298  
     330A     -0.054571   331A     -0.046658   332A     -0.041862  
     333A     -0.024177   334A     -0.021320   335A     -0.019847  
     336A     -0.018325   337A     -0.010461   338A     -0.010344  
     339A     -0.004259   340A      0.002239   341A      0.004428  
     342A      0.005788   343A      0.005910   344A      0.007002  
     345A      0.008784   346A      0.008980   347A      0.010403  
     348A      0.010865   349A      0.013989   350A      0.014190  
     351A      0.017473   352A      0.018485   353A      0.021388  
     354A      0.021549   355A      0.024120   356A      0.024233  
     357A      0.024681   358A      0.024789   359A      0.029014  
     360A      0.029136   361A      0.034173   362A      0.034315  
     363A      0.034979   364A      0.035453   365A      0.035466  
     366A      0.037339   367A      0.039180   368A      0.041425  
     369A      0.042364   370A      0.042867   371A      0.043001  
     372A      0.045255   373A      0.045303   374A      0.047001  
     375A      0.047305   376A      0.050769   377A      0.053719  
     378A      0.058359   379A      0.059803   380A      0.059874  
     381A      0.061150   382A      0.061543   383A      0.062058  
     384A      0.062339   385A      0.063188   386A      0.065333  
     387A      0.066285   388A      0.068840   389A      0.068876  
     390A      0.069781   391A      0.069849   392A      0.069904  
     393A      0.074710   394A      0.074848   395A      0.075768  
     396A      0.077147   397A      0.077600   398A      0.078803  
     399A      0.079272   400A      0.079636   401A      0.084134  
     402A      0.086329   403A      0.088334   404A      0.089727  
     405A      0.089909   406A      0.090790   407A      0.091275  
     408A      0.093114   409A      0.094885   410A      0.095407  
     411A      0.099613   412A      0.099655   413A      0.101343  
     414A      0.101883   415A      0.103259   416A      0.104513  
     417A      0.106868   418A      0.107866   419A      0.110523  
     420A      0.111511   421A      0.111755   422A      0.112027  
     423A      0.112090   424A      0.112672   425A      0.114417  
     426A      0.116400   427A      0.116424   428A      0.117425  
     429A      0.119890   430A      0.120344   431A      0.125039  
     432A      0.125660   433A      0.126225   434A      0.126357  
     435A      0.126948   436A      0.128590   437A      0.131447  
     438A      0.133974   439A      0.134017   440A      0.135339  
     441A      0.136994   442A      0.137048   443A      0.137302  
     444A      0.137342   445A      0.137866   446A      0.141106  
     447A      0.143466   448A      0.144551   449A      0.145461  
     450A      0.147044   451A      0.147201   452A      0.147586  
     453A      0.147846   454A      0.148003   455A      0.150359  
     456A      0.156507   457A      0.157830   458A      0.158372  
     459A      0.159677   460A      0.159928   461A      0.160721  
     462A      0.161107   463A      0.161374   464A      0.161636  
     465A      0.163145   466A      0.164104   467A      0.164623  
     468A      0.165098   469A      0.165191   470A      0.165658  
     471A      0.167119   472A      0.167308   473A      0.167424  
     474A      0.168837   475A      0.170860   476A      0.171402  
     477A      0.172484   478A      0.173504   479A      0.173588  
     480A      0.174991   481A      0.178340   482A      0.178671  
     483A      0.179050   484A      0.179782   485A      0.181469  
     486A      0.181516   487A      0.181692   488A      0.183708  
     489A      0.185454   490A      0.185516   491A      0.186889  
     492A      0.187930   493A      0.188849   494A      0.189880  
     495A      0.190944   496A      0.192028   497A      0.193431  
     498A      0.193672   499A      0.193780   500A      0.196197  
     501A      0.196677   502A      0.196785   503A      0.198765  
     504A      0.199041   505A      0.199369   506A      0.199878  
     507A      0.200631   508A      0.201179   509A      0.203279  
     510A      0.203396   511A      0.204311   512A      0.207474  
     513A      0.208824   514A      0.212383   515A      0.213443  
     516A      0.215289   517A      0.216277   518A      0.216437  
     519A      0.216745   520A      0.216994   521A      0.217851  
     522A      0.218766   523A      0.219480   524A      0.219923  
     525A      0.222860   526A      0.223025   527A      0.223965  
     528A      0.224029   529A      0.226563   530A      0.226888  
     531A      0.229267   532A      0.231487   533A      0.232432  
     534A      0.233544   535A      0.234326   536A      0.234477  
     537A      0.235565   538A      0.235859   539A      0.236025  
     540A      0.236423   541A      0.237253   542A      0.239223  
     543A      0.239413   544A      0.242138   545A      0.242357  
     546A      0.243681   547A      0.243760   548A      0.246689  
     549A      0.247622   550A      0.247993   551A      0.250795  
     552A      0.252333   553A      0.252533   554A      0.255029  
     555A      0.257099   556A      0.258317   557A      0.258515  
     558A      0.258697   559A      0.258835   560A      0.260813  
     561A      0.263393   562A      0.263895   563A      0.264345  
     564A      0.265025   565A      0.265110   566A      0.266629  
     567A      0.270322   568A      0.270528   569A      0.270791  
     570A      0.272552   571A      0.272659   572A      0.273550  
     573A      0.273696   574A      0.274181   575A      0.274906  
     576A      0.276291   577A      0.277471   578A      0.277744  
     579A      0.278236   580A      0.279140   581A      0.279283  
     582A      0.280292   583A      0.280832   584A      0.282836  
     585A      0.282953   586A      0.283740   587A      0.283907  
     588A      0.284931   589A      0.286151   590A      0.288039  
     591A      0.289266   592A      0.289536   593A      0.290988  
     594A      0.291291   595A      0.291860   596A      0.295647  
     597A      0.295775   598A      0.297711   599A      0.297841  
     600A      0.298567   601A      0.299643   602A      0.300404  
     603A      0.300981   604A      0.303323   605A      0.303720  
     606A      0.305132   607A      0.306040   608A      0.306158  
     609A      0.306296   610A      0.306576   611A      0.308008  
     612A      0.310909   613A      0.311466   614A      0.311777  
     615A      0.313544   616A      0.315422   617A      0.319080  
     618A      0.319138   619A      0.320732   620A      0.320920  
     621A      0.323086   622A      0.324646   623A      0.324903  
     624A      0.326002   625A      0.327145   626A      0.327726  
     627A      0.329922   628A      0.331381   629A      0.332707  
     630A      0.333549   631A      0.334480   632A      0.336459  
     633A      0.336626   634A      0.336862   635A      0.337129  
     636A      0.339006   637A      0.339093   638A      0.339485  
     639A      0.340332   640A      0.340838   641A      0.343367  
     642A      0.343615   643A      0.348196   644A      0.348711  
     645A      0.349304   646A      0.349639   647A      0.352220  
     648A      0.352228   649A      0.352386   650A      0.352768  
     651A      0.353033   652A      0.353182   653A      0.354491  
     654A      0.354796   655A      0.354918   656A      0.355849  
     657A      0.357212   658A      0.357576   659A      0.358183  
     660A      0.360629   661A      0.360638   662A      0.360750  
     663A      0.360858   664A      0.362557   665A      0.363623  
     666A      0.363904   667A      0.365821   668A      0.365911  
     669A      0.366889   670A      0.368612   671A      0.368761  
     672A      0.369824   673A      0.371124   674A      0.371311  
     675A      0.372306   676A      0.372423   677A      0.372714  
     678A      0.373974   679A      0.374239   680A      0.377874  
     681A      0.378973   682A      0.379325   683A      0.383711  
     684A      0.383853   685A      0.385036   686A      0.385072  
     687A      0.386379   688A      0.386457   689A      0.388620  
     690A      0.388728   691A      0.388803   692A      0.389129  
     693A      0.389350   694A      0.390477   695A      0.390700  
     696A      0.392499   697A      0.392550   698A      0.395611  
     699A      0.395759   700A      0.396498   701A      0.396687  
     702A      0.398986   703A      0.405979   704A      0.406026  
     705A      0.406408   706A      0.408023   707A      0.408175  
     708A      0.408735   709A      0.409226   710A      0.410679  
     711A      0.411067   712A      0.411454   713A      0.411575  
     714A      0.411609   715A      0.413556   716A      0.414885  
     717A      0.416600   718A      0.417062   719A      0.418692  
     720A      0.419153   721A      0.421121   722A      0.421757  
     723A      0.423395   724A      0.424025   725A      0.424244  
     726A      0.425169   727A      0.426087   728A      0.426667  
     729A      0.430982   730A      0.431114   731A      0.431520  
     732A      0.431643   733A      0.433029   734A      0.433979  
     735A      0.435722   736A      0.436089   737A      0.436264  
     738A      0.436324   739A      0.438516   740A      0.439618  
     741A      0.440836   742A      0.440919   743A      0.441228  
     744A      0.441682   745A      0.447013   746A      0.447219  
     747A      0.447454   748A      0.447895   749A      0.448631  
     750A      0.449566   751A      0.449822   752A      0.452297  
     753A      0.452409   754A      0.455736   755A      0.458532  
     756A      0.459000   757A      0.459690   758A      0.459851  
     759A      0.460637   760A      0.461422   761A      0.462913  
     762A      0.463064   763A      0.463591   764A      0.470509  
     765A      0.470654   766A      0.472866   767A      0.473718  
     768A      0.473902   769A      0.474011   770A      0.474030  
     771A      0.475267   772A      0.477292   773A      0.478687  
     774A      0.479569   775A      0.479901   776A      0.485757  
     777A      0.488863   778A      0.489666   779A      0.489803  
     780A      0.492336   781A      0.493479   782A      0.493717  
     783A      0.495438   784A      0.495485   785A      0.500257  
     786A      0.501223   787A      0.501376   788A      0.505572  
     789A      0.507868   790A      0.513121   791A      0.514684  
     792A      0.514814   793A      0.516944   794A      0.517759  
     795A      0.517956   796A      0.523220   797A      0.523329  
     798A      0.523817   799A      0.527831   800A      0.528990  
     801A      0.529318   802A      0.529718   803A      0.530621  
     804A      0.531339   805A      0.532952   806A      0.533866  
     807A      0.534026   808A      0.534584   809A      0.535953  
     810A      0.538442   811A      0.543584   812A      0.544465  
     813A      0.545196   814A      0.545449   815A      0.545522  
     816A      0.549856   817A      0.550176   818A      0.552896  
     819A      0.554258   820A      0.554479   821A      0.557469  
     822A      0.558436   823A      0.559600   824A      0.560094  
     825A      0.560807   826A      0.568832   827A      0.570001  
     828A      0.573296   829A      0.574547   830A      0.574982  
     831A      0.575719   832A      0.575753   833A      0.577425  
     834A      0.580189   835A      0.586365   836A      0.587235  
     837A      0.587634   838A      0.587873   839A      0.595271  
     840A      0.595673   841A      0.601738   842A      0.610803  
     843A      0.610964   844A      0.611362   845A      0.612817  
     846A      0.614806   847A      0.614932   848A      0.615300  
     849A      0.615382   850A      0.621681   851A      0.623657  
     852A      0.623720   853A      0.628655   854A      0.632784  
     855A      0.635337   856A      0.640051   857A      0.640299  
     858A      0.643940   859A      0.643961   860A      0.645259  
     861A      0.646299   862A      0.646923   863A      0.647181  
     864A      0.647637   865A      0.653809   866A      0.655683  
     867A      0.656644   868A      0.656965   869A      0.657351  
     870A      0.657412   871A      0.662762   872A      0.663039  
     873A      0.666098   874A      0.668009   875A      0.675064  
     876A      0.675672   877A      0.678668   878A      0.683835  
     879A      0.685926   880A      0.688435   881A      0.691017  
     882A      0.694760   883A      0.696358   884A      0.696947  
     885A      0.699218   886A      0.700378   887A      0.700801  
     888A      0.702433   889A      0.704693   890A      0.706057  
     891A      0.706413   892A      0.709335   893A      0.717121  
     894A      0.725624   895A      0.727375   896A      0.737427  
     897A      0.739358   898A      0.743025   899A      0.744049  
     900A      0.744058   901A      0.748108   902A      0.748739  
     903A      0.749992   904A      0.750789   905A      0.755537  
     906A      0.757017   907A      0.757127   908A      0.759058  
     909A      0.759524   910A      0.761602   911A      0.762821  
     912A      0.766278   913A      0.769363   914A      0.769927  
     915A      0.770976   916A      0.772124   917A      0.773344  
     918A      0.773711   919A      0.781757   920A      0.782065  
     921A      0.783302   922A      0.784393   923A      0.787450  
     924A      0.788750   925A      0.790444   926A      0.790739  
     927A      0.791768   928A      0.792138   929A      0.792597  
     930A      0.795576   931A      0.796136   932A      0.798845  
     933A      0.800645   934A      0.802298   935A      0.805623  
     936A      0.808981   937A      0.810169   938A      0.812440  
     939A      0.814447   940A      0.815585   941A      0.816277  
     942A      0.817995   943A      0.819264   944A      0.821180  
     945A      0.822679   946A      0.823874   947A      0.824495  
     948A      0.824720   949A      0.824733   950A      0.824931  
     951A      0.826410   952A      0.830100   953A      0.831191  
     954A      0.833279   955A      0.834370   956A      0.836303  
     957A      0.836415   958A      0.841740   959A      0.842227  
     960A      0.842768   961A      0.845154   962A      0.845534  
     963A      0.846374   964A      0.847681   965A      0.849966  
     966A      0.854073   967A      0.854993   968A      0.855511  
     969A      0.855824   970A      0.858898   971A      0.862544  
     972A      0.862650   973A      0.867700   974A      0.871191  
     975A      0.871837   976A      0.872304   977A      0.873294  
     978A      0.876063   979A      0.877035   980A      0.877399  
     981A      0.877566   982A      0.877892   983A      0.881257  
     984A      0.882971   985A      0.884195   986A      0.886481  
     987A      0.888456   988A      0.889148   989A      0.889583  
     990A      0.889640   991A      0.893488   992A      0.893751  
     993A      0.894050   994A      0.898731   995A      0.900004  
     996A      0.903916   997A      0.904732   998A      0.905733  
     999A      0.906239  1000A      0.906435  1001A      0.908077  
    1002A      0.908599  1003A      0.908763  1004A      0.909103  
    1005A      0.911895  1006A      0.912392  1007A      0.912526  
    1008A      0.913176  1009A      0.915062  1010A      0.921036  
    1011A      0.921897  1012A      0.923653  1013A      0.924001  
    1014A      0.926585  1015A      0.929401  1016A      0.937089  
    1017A      0.938187  1018A      0.938676  1019A      0.945298  
    1020A      0.948493  1021A      0.949111  1022A      0.949673  
    1023A      0.949753  1024A      0.951746  1025A      0.955393  
    1026A      0.955996  1027A      0.957417  1028A      0.957775  
    1029A      0.960088  1030A      0.960327  1031A      0.961011  
    1032A      0.961532  1033A      0.964955  1034A      0.968913  
    1035A      0.969814  1036A      0.971054  1037A      0.973319  
    1038A      0.974736  1039A      0.974861  1040A      0.976303  
    1041A      0.976349  1042A      0.978363  1043A      0.981404  
    1044A      0.985410  1045A      0.985659  1046A      0.986018  
    1047A      0.988614  1048A      0.991172  1049A      0.991449  
    1050A      0.992232  1051A      1.000097  1052A      1.000191  
    1053A      1.001852  1054A      1.001979  1055A      1.002257  
    1056A      1.002807  1057A      1.003129  1058A      1.003427  
    1059A      1.007130  1060A      1.007778  1061A      1.007908  
    1062A      1.009312  1063A      1.009383  1064A      1.014382  
    1065A      1.015441  1066A      1.015711  1067A      1.016252  
    1068A      1.019073  1069A      1.019356  1070A      1.020131  
    1071A      1.021923  1072A      1.022198  1073A      1.022245  
    1074A      1.022847  1075A      1.023890  1076A      1.024122  
    1077A      1.025135  1078A      1.025818  1079A      1.026794  
    1080A      1.026976  1081A      1.027078  1082A      1.027380  
    1083A      1.027524  1084A      1.029027  1085A      1.030381  
    1086A      1.030584  1087A      1.031102  1088A      1.031804  
    1089A      1.032343  1090A      1.032693  1091A      1.033670  
    1092A      1.034310  1093A      1.034635  1094A      1.035020  
    1095A      1.035194  1096A      1.035743  1097A      1.036345  
    1098A      1.036447  1099A      1.036579  1100A      1.037744  
    1101A      1.038278  1102A      1.040521  1103A      1.040997  
    1104A      1.041796  1105A      1.044582  1106A      1.044725  
    1107A      1.051749  1108A      1.052409  1109A      1.052951  
    1110A      1.053645  1111A      1.054785  1112A      1.055030  
    1113A      1.056281  1114A      1.056506  1115A      1.057367  
    1116A      1.059581  1117A      1.065236  1118A      1.066217  
    1119A      1.067970  1120A      1.072889  1121A      1.074026  
    1122A      1.075711  1123A      1.076210  1124A      1.077298  
    1125A      1.083559  1126A      1.083686  1127A      1.085168  
    1128A      1.086495  1129A      1.088868  1130A      1.089077  
    1131A      1.089864  1132A      1.092764  1133A      1.093032  
    1134A      1.094171  1135A      1.097164  1136A      1.097672  
    1137A      1.100697  1138A      1.101098  1139A      1.102002  
    1140A      1.103922  1141A      1.105293  1142A      1.106261  
    1143A      1.106904  1144A      1.107365  1145A      1.111071  
    1146A      1.112472  1147A      1.112515  1148A      1.115239  
    1149A      1.117974  1150A      1.118824  1151A      1.123284  
    1152A      1.124908  1153A      1.125773  1154A      1.131130  
    1155A      1.131255  1156A      1.133534  1157A      1.136161  
    1158A      1.139814  1159A      1.139930  1160A      1.141638  
    1161A      1.142745  1162A      1.146935  1163A      1.147327  
    1164A      1.147768  1165A      1.148621  1166A      1.157365  
    1167A      1.157580  1168A      1.157704  1169A      1.157834  
    1170A      1.160245  1171A      1.160302  1172A      1.161450  
    1173A      1.166405  1174A      1.168417  1175A      1.169899  
    1176A      1.170460  1177A      1.171518  1178A      1.172854  
    1179A      1.174225  1180A      1.177114  1181A      1.178196  
    1182A      1.178663  1183A      1.183046  1184A      1.188901  
    1185A      1.189115  1186A      1.203257  1187A      1.203458  
    1188A      1.203501  1189A      1.207535  1190A      1.208406  
    1191A      1.210244  1192A      1.214716  1193A      1.217349  
    1194A      1.217586  1195A      1.219825  1196A      1.223038  
    1197A      1.223423  1198A      1.223905  1199A      1.226349  
    1200A      1.228571  1201A      1.240229  1202A      1.240332  
    1203A      1.242663  1204A      1.245550  1205A      1.246117  
    1206A      1.249041  1207A      1.250184  1208A      1.250218  
    1209A      1.251783  1210A      1.256791  1211A      1.258467  
    1212A      1.260937  1213A      1.261081  1214A      1.263829  
    1215A      1.264324  1216A      1.266011  1217A      1.268827  
    1218A      1.269285  1219A      1.269626  1220A      1.275069  
    1221A      1.275430  1222A      1.275634  1223A      1.275735  
    1224A      1.277727  1225A      1.279700  1226A      1.281752  
    1227A      1.281784  1228A      1.284500  1229A      1.286152  
    1230A      1.286861  1231A      1.290865  1232A      1.290904  
    1233A      1.295546  1234A      1.295721  1235A      1.297229  
    1236A      1.300517  1237A      1.300794  1238A      1.302299  
    1239A      1.311435  1240A      1.311587  1241A      1.312496  
    1242A      1.313419  1243A      1.315852  1244A      1.318579  
    1245A      1.318667  1246A      1.322308  1247A      1.323453  
    1248A      1.325382  1249A      1.325787  1250A      1.327520  
    1251A      1.328195  1252A      1.329733  1253A      1.341949  
    1254A      1.342741  1255A      1.345438  1256A      1.349140  
    1257A      1.349580  1258A      1.350282  1259A      1.350408  
    1260A      1.352940  1261A      1.355274  1262A      1.359819  
    1263A      1.360133  1264A      1.363064  1265A      1.363121  
    1266A      1.363388  1267A      1.367118  1268A      1.367464  
    1269A      1.368185  1270A      1.369460  1271A      1.375594  
    1272A      1.375923  1273A      1.378351  1274A      1.379007  
    1275A      1.381422  1276A      1.381596  1277A      1.381829  
    1278A      1.381883  1279A      1.384864  1280A      1.385123  
    1281A      1.389359  1282A      1.389646  1283A      1.391437  
    1284A      1.393766  1285A      1.394092  1286A      1.396972  
    1287A      1.402890  1288A      1.403889  1289A      1.404248  
    1290A      1.405451  1291A      1.406617  1292A      1.407997  
    1293A      1.408525  1294A      1.418446  1295A      1.418587  
    1296A      1.423592  1297A      1.424250  1298A      1.425248  
    1299A      1.426330  1300A      1.426346  1301A      1.430175  
    1302A      1.433679  1303A      1.439027  1304A      1.439321  
    1305A      1.440372  1306A      1.446324  1307A      1.451498  
    1308A      1.451558  1309A      1.453522  1310A      1.458954  
    1311A      1.460617  1312A      1.460628  1313A      1.470878  
    1314A      1.471506  1315A      1.472418  1316A      1.485787  
    1317A      1.494267  1318A      1.495370  1319A      1.495486  
    1320A      1.502213  1321A      1.508264  1322A      1.508337  
    1323A      1.511228  1324A      1.524727  1325A      1.538476  
    1326A      1.548230  1327A      1.548324  1328A      1.553410  
    1329A      1.557193  1330A      1.558912  1331A      1.559850  
    1332A      1.560357  1333A      1.561816  1334A      1.562662  
    1335A      1.565453  1336A      1.565884  1337A      1.566230  
    1338A      1.569400  1339A      1.569826  1340A      1.570124  
    1341A      1.570533  1342A      1.570964  1343A      1.571824  
    1344A      1.574488  1345A      1.574933  1346A      1.575396  
    1347A      1.576510  1348A      1.578646  1349A      1.581313  
    1350A      1.581659  1351A      1.585654  1352A      1.586334  
    1353A      1.589536  1354A      1.589989  1355A      1.590309  
    1356A      1.590967  1357A      1.592882  1358A      1.593479  
    1359A      1.593613  1360A      1.594680  1361A      1.595490  
    1362A      1.595678  1363A      1.598075  1364A      1.600169  
    1365A      1.606761  1366A      1.606877  1367A      1.607253  
    1368A      1.611220  1369A      1.611365  1370A      1.611658  
    1371A      1.612243  1372A      1.619415  1373A      1.619654  
    1374A      1.622875  1375A      1.623103  1376A      1.623348  
    1377A      1.623972  1378A      1.624059  1379A      1.626024  
    1380A      1.626803  1381A      1.631534  1382A      1.632062  
    1383A      1.632719  1384A      1.633371  1385A      1.642727  
    1386A      1.643932  1387A      1.647700  1388A      1.650694  
    1389A      1.650977  1390A      1.651328  1391A      1.652334  
    1392A      1.654341  1393A      1.664250  1394A      1.664453  
    1395A      1.665003  1396A      1.668482  1397A      1.669645  
    1398A      1.670985  1399A      1.671061  1400A      1.674073  
    1401A      1.675768  1402A      1.677155  1403A      1.677288  
    1404A      1.677473  1405A      1.679353  1406A      1.680257  
    1407A      1.687852  1408A      1.691574  1409A      1.693062  
    1410A      1.695554  1411A      1.700999  1412A      1.702889  
    1413A      1.702998  1414A      1.704839  1415A      1.705577  
    1416A      1.718615  1417A      1.720379  1418A      1.723292  
    1419A      1.735008  1420A      1.738940  1421A      1.741459  
    1422A      1.742289  1423A      1.742913  1424A      1.753199  
    1425A      1.756250  1426A      1.757395  1427A      1.757600  
    1428A      1.763819  1429A      1.764077  1430A      1.773632  
    1431A      1.777315  1432A      1.778552  1433A      1.781712  
    1434A      1.782585  1435A      1.782969  1436A      1.785179  
    1437A      1.786096  1438A      1.786303  1439A      1.787795  
    1440A      1.788203  1441A      1.791393  1442A      1.791854  
    1443A      1.792091  1444A      1.792763  1445A      1.799017  
    1446A      1.800548  1447A      1.811457  1448A      1.811534  
    1449A      1.812635  1450A      1.815285  1451A      1.815607  
    1452A      1.816440  1453A      1.818051  1454A      1.818206  
    1455A      1.820212  1456A      1.820627  1457A      1.824224  
    1458A      1.825166  1459A      1.825810  1460A      1.827915  
    1461A      1.828174  1462A      1.830485  1463A      1.836622  
    1464A      1.837318  1465A      1.838210  1466A      1.838878  
    1467A      1.838928  1468A      1.839679  1469A      1.840300  
    1470A      1.841152  1471A      1.844353  1472A      1.844991  
    1473A      1.851124  1474A      1.858259  1475A      1.858394  
    1476A      1.860227  1477A      1.860621  1478A      1.863631  
    1479A      1.865889  1480A      1.870205  1481A      1.870478  
    1482A      1.871510  1483A      1.874940  1484A      1.875996  
    1485A      1.876966  1486A      1.877315  1487A      1.879552  
    1488A      1.879959  1489A      1.880757  1490A      1.886462  
    1491A      1.892057  1492A      1.892653  1493A      1.893213  
    1494A      1.893472  1495A      1.894018  1496A      1.894872  
    1497A      1.897156  1498A      1.898622  1499A      1.898814  
    1500A      1.900722  1501A      1.901467  1502A      1.904281  
    1503A      1.905989  1504A      1.908202  1505A      1.909484  
    1506A      1.913753  1507A      1.914207  1508A      1.915307  
    1509A      1.915709  1510A      1.915863  1511A      1.921783  
    1512A      1.923252  1513A      1.924919  1514A      1.925884  
    1515A      1.927000  1516A      1.928213  1517A      1.935343  
    1518A      1.936760  1519A      1.939914  1520A      1.943640  
    1521A      1.946334  1522A      1.946555  1523A      1.948121  
    1524A      1.948592  1525A      1.949982  1526A      1.951117  
    1527A      1.961381  1528A      1.961643  1529A      1.965185  
    1530A      1.966432  1531A      1.967442  1532A      1.970768  
    1533A      1.971107  1534A      1.971561  1535A      1.972327  
    1536A      1.973432  1537A      1.974173  1538A      1.974703  
    1539A      1.975078  1540A      1.975905  1541A      1.978837  
    1542A      1.982556  1543A      1.985586  1544A      1.987490  
    1545A      1.988128  1546A      1.990053  1547A      1.993848  
    1548A      1.996270  1549A      1.996838  1550A      2.002018  
    1551A      2.004414  1552A      2.007072  1553A      2.007767  
    1554A      2.010888  1555A      2.011106  1556A      2.011268  
    1557A      2.013265  1558A      2.013691  1559A      2.014855  
    1560A      2.015161  1561A      2.021159  1562A      2.023359  
    1563A      2.023572  1564A      2.025209  1565A      2.029720  
    1566A      2.032383  1567A      2.033774  1568A      2.035054  
    1569A      2.035194  1570A      2.036491  1571A      2.037272  
    1572A      2.037596  1573A      2.038158  1574A      2.041125  
    1575A      2.042811  1576A      2.043314  1577A      2.044275  
    1578A      2.045509  1579A      2.046501  1580A      2.046675  
    1581A      2.047309  1582A      2.048000  1583A      2.048904  
    1584A      2.050706  1585A      2.051480  1586A      2.052214  
    1587A      2.052369  1588A      2.055679  1589A      2.056056  
    1590A      2.056968  1591A      2.060865  1592A      2.064468  
    1593A      2.065782  1594A      2.066581  1595A      2.066934  
    1596A      2.067888  1597A      2.068816  1598A      2.071611  
    1599A      2.072700  1600A      2.073309  1601A      2.074538  
    1602A      2.079934  1603A      2.081227  1604A      2.081532  
    1605A      2.081930  1606A      2.082256  1607A      2.082958  
    1608A      2.083163  1609A      2.085436  1610A      2.089341  
    1611A      2.089536  1612A      2.089799  1613A      2.090981  
    1614A      2.093366  1615A      2.097314  1616A      2.097414  
    1617A      2.098742  1618A      2.099657  1619A      2.099931  
    1620A      2.109034  1621A      2.109576  1622A      2.111444  
    1623A      2.112132  1624A      2.112905  1625A      2.114207  
    1626A      2.114573  1627A      2.115131  1628A      2.118355  
    1629A      2.118641  1630A      2.126303  1631A      2.126465  
    1632A      2.134625  1633A      2.136017  1634A      2.136200  
    1635A      2.137480  1636A      2.142583  1637A      2.143271  
    1638A      2.143508  1639A      2.145017  1640A      2.145484  
    1641A      2.146830  1642A      2.147872  1643A      2.148983  
    1644A      2.151166  1645A      2.152215  1646A      2.153932  
    1647A      2.154320  1648A      2.155885  1649A      2.156399  
    1650A      2.157950  1651A      2.159181  1652A      2.160995  
    1653A      2.163706  1654A      2.164435  1655A      2.168744  
    1656A      2.168993  1657A      2.174773  1658A      2.178233  
    1659A      2.178266  1660A      2.179057  1661A      2.179100  
    1662A      2.180005  1663A      2.183913  1664A      2.187642  
    1665A      2.188608  1666A      2.189186  1667A      2.192444  
    1668A      2.193216  1669A      2.193502  1670A      2.196779  
    1671A      2.201542  1672A      2.202484  1673A      2.203643  
    1674A      2.204323  1675A      2.206401  1676A      2.216721  
    1677A      2.218048  1678A      2.219220  1679A      2.220772  
    1680A      2.222262  1681A      2.226115  1682A      2.229729  
    1683A      2.230305  1684A      2.238232  1685A      2.239543  
    1686A      2.245828  1687A      2.246925  1688A      2.251189  
    1689A      2.252152  1690A      2.253810  1691A      2.259176  
    1692A      2.259605  1693A      2.264256  1694A      2.267963  
    1695A      2.278801  1696A      2.280188  1697A      2.280295  
    1698A      2.282143  1699A      2.284276  1700A      2.285950  
    1701A      2.286300  1702A      2.287448  1703A      2.288700  
    1704A      2.289867  1705A      2.294009  1706A      2.296451  
    1707A      2.297142  1708A      2.297438  1709A      2.299744  
    1710A      2.300548  1711A      2.300719  1712A      2.301208  
    1713A      2.303287  1714A      2.303733  1715A      2.321554  
    1716A      2.325921  1717A      2.326555  1718A      2.327387  
    1719A      2.339088  1720A      2.339365  1721A      2.342928  
    1722A      2.344523  1723A      2.346151  1724A      2.347099  
    1725A      2.351317  1726A      2.373527  1727A      2.374582  
    1728A      2.378209  1729A      2.382746  1730A      2.386468  
    1731A      2.396326  1732A      2.398228  1733A      2.406601  
    1734A      2.407866  1735A      2.419545  1736A      2.419602  
    1737A      2.422984  1738A      2.423228  1739A      2.427312  
    1740A      2.427617  1741A      2.446720  1742A      2.446758  
    1743A      2.447407  1744A      2.448963  1745A      2.458007  
    1746A      2.461917  1747A      2.462723  1748A      2.464360  
    1749A      2.467140  1750A      2.471989  1751A      2.493902  
    1752A      2.494130  1753A      2.495337  1754A      2.497455  
    1755A      2.498015  1756A      2.499420  1757A      2.502887  
    1758A      2.503097  1759A      2.503659  1760A      2.505095  
    1761A      2.506369  1762A      2.510800  1763A      2.510999  
    1764A      2.519153  1765A      2.526301  1766A      2.527617  
    1767A      2.536328  1768A      2.540129  1769A      2.540441  
    1770A      2.540631  1771A      2.541690  1772A      2.544881  
    1773A      2.545302  1774A      2.548488  1775A      2.550138  
    1776A      2.556856  1777A      2.556918  1778A      2.568002  
    1779A      2.568258  1780A      2.568614  1781A      2.569104  
    1782A      2.572249  1783A      2.572572  1784A      2.576690  
    1785A      2.587604  1786A      2.595566  1787A      2.596541  
    1788A      2.598883  1789A      2.600338  1790A      2.602754  
    1791A      2.603711  1792A      2.604110  1793A      2.608511  
    1794A      2.608806  1795A      2.611408  1796A      2.611728  
    1797A      2.620267  1798A      2.620736  1799A      2.623558  
    1800A      2.626382  1801A      2.626572  1802A      2.627987  
    1803A      2.632782  1804A      2.633559  1805A      2.639211  
    1806A      2.639548  1807A      2.640345  1808A      2.641971  
    1809A      2.646145  1810A      2.646251  1811A      2.646525  
    1812A      2.647431  1813A      2.651001  1814A      2.652287  
    1815A      2.658619  1816A      2.664415  1817A      2.676224  
    1818A      2.676608  1819A      2.681276  1820A      2.685840  
    1821A      2.685958  1822A      2.686626  1823A      2.687176  
    1824A      2.687718  1825A      2.691117  1826A      2.707753  
    1827A      2.709211  1828A      2.714510  1829A      2.714821  
    1830A      2.725861  1831A      2.729777  1832A      2.733989  
    1833A      2.734537  1834A      2.740789  1835A      2.751317  
    1836A      2.753214  1837A      2.754243  1838A      2.755489  
    1839A      2.756606  1840A      2.756723  1841A      2.762298  
    1842A      2.764628  1843A      2.768867  1844A      2.769378  
    1845A      2.770448  1846A      2.770716  1847A      2.782013  
    1848A      2.782262  1849A      2.791133  1850A      2.794655  
    1851A      2.794913  1852A      2.796416  1853A      2.796736  
    1854A      2.800149  1855A      2.814167  1856A      2.819738  
    1857A      2.819910  1858A      2.825450  1859A      2.826221  
    1860A      2.828980  1861A      2.849581  1862A      2.850486  
    1863A      2.866133  1864A      2.873680  1865A      2.873821  
    1866A      2.883546  1867A      2.885562  1868A      2.890393  
    1869A      2.890553  1870A      2.918438  1871A      2.920576  
    1872A      2.921025  1873A      2.921108  1874A      2.931727  
    1875A      2.947102  1876A      2.947730  1877A      2.979593  
    1878A      2.984287  1879A      2.984830  1880A      2.991070  
    1881A      2.994334  1882A      3.001831  1883A      3.002563  
    1884A      3.003897  1885A      3.012212  1886A      3.012322  
    1887A      3.019990  1888A      3.027893  1889A      3.049414  
    1890A      3.064516  1891A      3.068214  1892A      3.068682  
    1893A      3.068953  1894A      3.077489  1895A      3.081636  
    1896A      3.082381  1897A      3.087543  1898A      3.089069  
    1899A      3.097552  1900A      3.098793  1901A      3.102994  
    1902A      3.103626  1903A      3.105092  1904A      3.105804  
    1905A      3.109479  1906A      3.118259  1907A      3.122066  
    1908A      3.129102  1909A      3.130902  1910A      3.130953  
    1911A      3.148947  1912A      3.150001  1913A      3.176375  
    1914A      3.208667  1915A      3.215297  1916A      3.215494  
    1917A      3.216156  1918A      3.217177  1919A      3.219423  
    1920A      3.223366  1921A      3.226642  1922A      3.230318  
    1923A      3.230490  1924A      3.247900  1925A      3.248636  
    1926A      3.249031  1927A      3.257341  1928A      3.315375  
    1929A      3.316466  1930A      3.323986  1931A      3.369592  
    1932A      3.383800  1933A      3.385835  1934A      3.391206  
    1935A      3.398513  1936A      3.401913  1937A      3.414165  
    1938A      3.418408  1939A      3.419235  1940A      3.424953  
    1941A      3.427886  1942A      3.434738  1943A      3.439958  
    1944A      3.443018  1945A      3.447283  1946A      3.463334  
    1947A      3.494134  1948A      3.528697  1949A      3.530330  
    1950A      3.531020  1951A      3.537896  1952A      3.544888  
    1953A      3.590666  1954A      3.591499  1955A      3.619161  
    1956A      3.621382  1957A      3.659392  1958A      3.701278  
    1959A      3.704284  1960A      3.705111  1961A      3.716977  
    1962A      3.732929  1963A      3.733861  1964A      3.797111  
    1965A      3.798254  1966A      3.826566  1967A      3.829588  
    1968A      3.859356  1969A      3.867368  1970A      3.891692  
    1971A      3.894116  1972A      3.903067  1973A      3.904105  
    1974A      3.912788  1975A      3.917873  1976A      3.924715  
    1977A      3.978772  1978A      3.981427  1979A      4.024257  
    1980A      4.181615  1981A      4.254550  1982A      4.345478  

    Final Occupation by Irrep:
              A 
    DOCC [   326 ]
    NA   [   326 ]
    NB   [   326 ]

  @DF-RHF Final Energy: -3953.64230408815365

   => Energetics <=

    Nuclear Repulsion Energy =          17411.5140994885041437
    One-Electron Energy =              -40038.9660056892462308
    Two-Electron Energy =               18673.8096021125893458
    Total Energy =                      -3953.6423040881527413

Computation Completed


Properties will be evaluated at   0.000000,   0.000000,   0.000000 [a0]

Properties computed using the SCF density matrix


 Multipole Moments:

 ------------------------------------------------------------------------------------
     Multipole            Electronic (a.u.)      Nuclear  (a.u.)        Total (a.u.)
 ------------------------------------------------------------------------------------

 L = 1.  Multiply by 2.5417464519 to convert [e a0] to [Debye]
 Dipole X            :         -0.0019619            0.0004804           -0.0014815
 Dipole Y            :         -0.0487720            0.0561130            0.0073410
 Dipole Z            :         40.0341978          -55.2018632          -15.1676654
 Magnitude           :                                                   15.1676672

 ------------------------------------------------------------------------------------

*** tstop() called on n2cn0241 at Thu Jan 25 13:27:01 2024
Module time:
	user time   =   26511.12 seconds =     441.85 minutes
	system time =    1422.95 seconds =      23.72 minutes
	total time  =       8884 seconds =     148.07 minutes
Total time:
	user time   =   26511.12 seconds =     441.85 minutes
	system time =    1422.95 seconds =      23.72 minutes
	total time  =       8884 seconds =     148.07 minutes

  //>>>>>>>>>>>>>>>>>>>>>>>>>>>>>>>>>>>//
  //            Monomer A HF           //
  //<<<<<<<<<<<<<<<<<<<<<<<<<<<<<<<<<<<//

   => Libint2 <=

    Primary   basis highest AM E, G, H:  5, 4, 3
    Auxiliary basis highest AM E, G, H:  6, 5, 4
    Onebody   basis highest AM E, G, H:  6, 5, 4
    Solid Harmonics ordering:            gaussian

*** tstart() called on n2cn0241
*** at Thu Jan 25 13:27:01 2024

   => Loading Basis Set <=

    Name: JUN-CC-PVDZ
    Role: ORBITAL
    Keyword: BASIS
    atoms 1-2, 4-5, 10, 17-34, 41-53, 56-70, 73-89, 92-104, 109-119, 122-130 entry C          line   164 file /opt/software/pc2/EB-SW/software/PSI4/1.9-foss-2022a/share/psi4/basis/jun-cc-pvdz.gbs 
    atoms 3, 6                                                               entry N          line   198 file /opt/software/pc2/EB-SW/software/PSI4/1.9-foss-2022a/share/psi4/basis/jun-cc-pvdz.gbs 
    atoms 7-9, 11-16, 35-40, 54-55, 71-72, 90-91, 105-108, 120-121, 131-136  entry H          line    36 file /opt/software/pc2/EB-SW/software/PSI4/1.9-foss-2022a/share/psi4/basis/jun-cc-pvdz.gbs 


         ---------------------------------------------------------
                                   SCF
               by Justin Turney, Rob Parrish, Andy Simmonett
                          and Daniel G. A. Smith
                              RHF Reference
                       16 Threads,  44822 MiB Core
         ---------------------------------------------------------

  ==> Geometry <==

    Molecular point group: c1
    Full point group: C1

    Geometry (in Angstrom), charge = 1, multiplicity = 1:

       Center              X                  Y                   Z               Mass       
    ------------   -----------------  -----------------  -----------------  -----------------
         C            0.680062820275    -0.008027535675    -9.899257387296    12.000000000000
         C           -0.680508179725    -0.005999535675    -9.898873387296    12.000000000000
         N           -1.085639179725    -0.005001535675    -8.580549387296    14.003074004430
[...]
    1576A      2.157944  1577A      2.158576  1578A      2.159277  
    1579A      2.159756  1580A      2.160118  1581A      2.162424  
    1582A      2.162790  1583A      2.171136  1584A      2.171371  
    1585A      2.179569  1586A      2.180773  1587A      2.181023  
    1588A      2.182218  1589A      2.184609  1590A      2.188315  
    1591A      2.188562  1592A      2.190456  1593A      2.191423  
    1594A      2.191712  1595A      2.192554  1596A      2.194932  
    1597A      2.196687  1598A      2.197813  1599A      2.200001  
    1600A      2.200295  1601A      2.200709  1602A      2.201234  
    1603A      2.202916  1604A      2.204091  1605A      2.205452  
    1606A      2.209003  1607A      2.211739  1608A      2.213603  
    1609A      2.213879  1610A      2.220145  1611A      2.222122  
    1612A      2.222679  1613A      2.224043  1614A      2.224679  
    1615A      2.224740  1616A      2.228765  1617A      2.231999  
    1618A      2.232153  1619A      2.232554  1620A      2.233043  
    1621A      2.238665  1622A      2.238782  1623A      2.239429  
    1624A      2.241334  1625A      2.247368  1626A      2.247721  
    1627A      2.248177  1628A      2.248601  1629A      2.260260  
    1630A      2.261446  1631A      2.263288  1632A      2.264830  
    1633A      2.266437  1634A      2.266787  1635A      2.269490  
    1636A      2.273852  1637A      2.275193  1638A      2.282775  
    1639A      2.284241  1640A      2.290138  1641A      2.290970  
    1642A      2.295518  1643A      2.296258  1644A      2.296762  
    1645A      2.303704  1646A      2.304116  1647A      2.309028  
    1648A      2.311554  1649A      2.314264  1650A      2.324415  
    1651A      2.324845  1652A      2.325172  1653A      2.327070  
    1654A      2.329360  1655A      2.330543  1656A      2.331059  
    1657A      2.332912  1658A      2.334180  1659A      2.335013  
    1660A      2.336333  1661A      2.337534  1662A      2.339611  
    1663A      2.341350  1664A      2.342142  1665A      2.342317  
    1666A      2.344779  1667A      2.345778  1668A      2.346299  
    1669A      2.349055  1670A      2.349400  1671A      2.367886  
    1672A      2.372183  1673A      2.372820  1674A      2.383219  
    1675A      2.383580  1676A      2.387926  1677A      2.390144  
    1678A      2.391606  1679A      2.392692  1680A      2.396882  
    1681A      2.418293  1682A      2.419459  1683A      2.423396  
    1684A      2.427501  1685A      2.431855  1686A      2.440628  
    1687A      2.441275  1688A      2.443076  1689A      2.445919  
    1690A      2.451977  1691A      2.453063  1692A      2.453930  
    1693A      2.464275  1694A      2.464319  1695A      2.467682  
    1696A      2.467880  1697A      2.467996  1698A      2.471903  
    1699A      2.472162  1700A      2.474761  1701A      2.490939  
    1702A      2.491300  1703A      2.494356  1704A      2.502377  
    1705A      2.504444  1706A      2.506162  1707A      2.506853  
    1708A      2.511437  1709A      2.516158  1710A      2.539050  
    1711A      2.539136  1712A      2.539981  1713A      2.542021  
    1714A      2.542626  1715A      2.544754  1716A      2.547471  
    1717A      2.548376  1718A      2.549098  1719A      2.551019  
    1720A      2.556517  1721A      2.556671  1722A      2.564194  
    1723A      2.571077  1724A      2.571472  1725A      2.574747  
    1726A      2.579960  1727A      2.583631  1728A      2.584163  
    1729A      2.585012  1730A      2.586218  1731A      2.588436  
    1732A      2.588846  1733A      2.593200  1734A      2.593492  
    1735A      2.601310  1736A      2.601418  1737A      2.612608  
    1738A      2.612826  1739A      2.613159  1740A      2.613672  
    1741A      2.616823  1742A      2.617176  1743A      2.631488  
    1744A      2.632620  1745A      2.640494  1746A      2.641354  
    1747A      2.642962  1748A      2.643735  1749A      2.645376  
    1750A      2.647273  1751A      2.648544  1752A      2.649099  
    1753A      2.649231  1754A      2.652722  1755A      2.655653  
    1756A      2.656035  1757A      2.657368  1758A      2.665962  
    1759A      2.666042  1760A      2.667528  1761A      2.670349  
    1762A      2.670512  1763A      2.672322  1764A      2.673545  
    1765A      2.677044  1766A      2.677508  1767A      2.684235  
    1768A      2.685468  1769A      2.686984  1770A      2.691069  
    1771A      2.691195  1772A      2.691536  1773A      2.692293  
    1774A      2.696021  1775A      2.697246  1776A      2.703942  
    1777A      2.720623  1778A      2.730620  1779A      2.730684  
    1780A      2.730857  1781A      2.731215  1782A      2.731774  
    1783A      2.735333  1784A      2.746480  1785A      2.752466  
    1786A      2.760487  1787A      2.760834  1788A      2.766111  
    1789A      2.772111  1790A      2.775737  1791A      2.779420  
    1792A      2.779940  1793A      2.798998  1794A      2.799853  
    1795A      2.801328  1796A      2.802161  1797A      2.802209  
    1798A      2.802577  1799A      2.808358  1800A      2.810793  
    1801A      2.814725  1802A      2.815181  1803A      2.815586  
    1804A      2.815883  1805A      2.827910  1806A      2.828145  
    1807A      2.834116  1808A      2.840074  1809A      2.840123  
    1810A      2.841517  1811A      2.841828  1812A      2.845120  
    1813A      2.859622  1814A      2.865129  1815A      2.865319  
    1816A      2.870251  1817A      2.871077  1818A      2.872559  
    1819A      2.874108  1820A      2.888442  1821A      2.895895  
    1822A      2.896781  1823A      2.907330  1824A      2.912425  
    1825A      2.917590  1826A      2.917726  1827A      2.922148  
    1828A      2.927402  1829A      2.929497  1830A      2.934678  
    1831A      2.934735  1832A      2.944294  1833A      2.962969  
    1834A      2.964733  1835A      2.965215  1836A      2.969046  
    1837A      2.976089  1838A      2.991490  1839A      2.992045  
    1840A      2.992397  1841A      3.004327  1842A      3.029303  
    1843A      3.029850  1844A      3.035290  1845A      3.036123  
    1846A      3.038495  1847A      3.046762  1848A      3.047388  
    1849A      3.047958  1850A      3.057470  1851A      3.057529  
    1852A      3.063140  1853A      3.072829  1854A      3.108451  
    1855A      3.112742  1856A      3.113058  1857A      3.122219  
    1858A      3.126769  1859A      3.127368  1860A      3.132308  
    1861A      3.133917  1862A      3.139714  1863A      3.141844  
    1864A      3.142958  1865A      3.148065  1866A      3.148555  
    1867A      3.149347  1868A      3.149995  1869A      3.153462  
    1870A      3.162083  1871A      3.167872  1872A      3.173116  
    1873A      3.174891  1874A      3.175024  1875A      3.193040  
    1876A      3.194080  1877A      3.220206  1878A      3.253283  
    1879A      3.259355  1880A      3.260735  1881A      3.261283  
    1882A      3.261903  1883A      3.264178  1884A      3.268020  
    1885A      3.271124  1886A      3.274964  1887A      3.275250  
    1888A      3.284395  1889A      3.292803  1890A      3.293671  
    1891A      3.294181  1892A      3.302011  1893A      3.303312  
    1894A      3.315997  1895A      3.360942  1896A      3.361993  
    1897A      3.369605  1898A      3.392410  1899A      3.415297  
    1900A      3.429490  1901A      3.431941  1902A      3.438585  
    1903A      3.444963  1904A      3.448476  1905A      3.460530  
    1906A      3.464335  1907A      3.465021  1908A      3.470693  
    1909A      3.473645  1910A      3.480487  1911A      3.486308  
    1912A      3.493250  1913A      3.509078  1914A      3.521885  
    1915A      3.540275  1916A      3.565214  1917A      3.574251  
    1918A      3.575927  1919A      3.583383  1920A      3.589831  
    1921A      3.636335  1922A      3.637116  1923A      3.643095  
    1924A      3.664502  1925A      3.666645  1926A      3.704918  
    1927A      3.747273  1928A      3.749095  1929A      3.750333  
    1930A      3.755883  1931A      3.763126  1932A      3.778576  
    1933A      3.779083  1934A      3.814022  1935A      3.841831  
    1936A      3.843260  1937A      3.866214  1938A      3.871425  
    1939A      3.874566  1940A      3.904517  1941A      3.912811  
    1942A      3.937846  1943A      3.940444  1944A      3.948178  
    1945A      3.949108  1946A      3.956609  1947A      3.958375  
    1948A      3.964368  1949A      3.970679  1950A      4.024600  
    1951A      4.027420  1952A      4.070685  1953A      4.202975  
    1954A      4.206156  1955A      4.228707  1956A      4.301859  
    1957A      4.337891  1958A      4.358034  1959A      4.392687  
    1960A      4.481162  1961A      4.732529  1962A      4.770652  
    1963A      4.827024  1964A      4.844054  1965A      4.933616  
    1966A      5.047509  1967A      5.054502  1968A      5.063828  
    1969A      5.108464  1970A      5.124924  1971A      5.389158  
    1972A      5.419051  1973A      5.730028  1974A      5.750291  
    1975A      6.065401  1976A     18.196962  1977A     18.451127  
    1978A     18.468554  1979A     18.556387  1980A     18.829051  
    1981A     25.337085  1982A     25.373040  

    Final Occupation by Irrep:
              A 
    DOCC [   300 ]
    NA   [   300 ]
    NB   [   300 ]

  @DF-RHF Final Energy: -3650.33783009330318

   => Energetics <=

    Nuclear Repulsion Energy =          15611.4211649754306563
    One-Electron Energy =              -36072.0816858782272902
    Two-Electron Energy =               16810.3226908094948158
    Total Energy =                      -3650.3378300933036371

Computation Completed


Properties will be evaluated at   0.000000,   0.000000,   0.000000 [a0]

Properties computed using the SCF density matrix


 Multipole Moments:

 ------------------------------------------------------------------------------------
     Multipole            Electronic (a.u.)      Nuclear  (a.u.)        Total (a.u.)
 ------------------------------------------------------------------------------------

 L = 1.  Multiply by 2.5417464519 to convert [e a0] to [Debye]
 Dipole X            :         -0.0010938            0.0002112           -0.0008826
 Dipole Y            :          0.0011020           -0.0013774           -0.0002754
 Dipole Z            :       -812.5915415          812.5912338           -0.0003077
 Magnitude           :                                                    0.0009744

 ------------------------------------------------------------------------------------

*** tstop() called on n2cn0241 at Thu Jan 25 15:20:08 2024
Module time:
	user time   =   19675.23 seconds =     327.92 minutes
	system time =    1175.27 seconds =      19.59 minutes
	total time  =       4042 seconds =      67.37 minutes
Total time:
	user time   =   52353.89 seconds =     872.56 minutes
	system time =    2907.63 seconds =      48.46 minutes
	total time  =      15671 seconds =     261.18 minutes
  Constructing Basis Sets for SAPT...

   => Loading Basis Set <=

    Name: (JUN-CC-PVDZ AUX)
    Role: RIFIT
    Keyword: DF_BASIS_SAPT
    atoms 1-2, 4-5, 10, 17-34, 41-53, 56-70, 73-89, 92-104, 109-119, 122-130 entry C          line   100 file /opt/software/pc2/EB-SW/software/PSI4/1.9-foss-2022a/share/psi4/basis/jun-cc-pvdz-ri.gbs 
    atoms 3, 6                                                               entry N          line   144 file /opt/software/pc2/EB-SW/software/PSI4/1.9-foss-2022a/share/psi4/basis/jun-cc-pvdz-ri.gbs 
    atoms 7-9, 11-16, 35-40, 54-55, 71-72, 90-91, 105-108, 120-121, 131-136  entry H          line    30 file /opt/software/pc2/EB-SW/software/PSI4/1.9-foss-2022a/share/psi4/basis/jun-cc-pvdz-ri.gbs 

   => Loading Basis Set <=

    Name: (JUN-CC-PVDZ AUX)
    Role: JKFIT
    Keyword: DF_BASIS_ELST
    atoms 1-2, 4-5, 10, 17-34, 41-53, 56-70, 73-89, 92-104, 109-119, 122-130 entry C          line   146 file /opt/software/pc2/EB-SW/software/PSI4/1.9-foss-2022a/share/psi4/basis/jun-cc-pvdz-jkfit.gbs 
    atoms 3, 6                                                               entry N          line   202 file /opt/software/pc2/EB-SW/software/PSI4/1.9-foss-2022a/share/psi4/basis/jun-cc-pvdz-jkfit.gbs 
    atoms 7-9, 11-16, 35-40, 54-55, 71-72, 90-91, 105-108, 120-121, 131-136  entry H          line    70 file /opt/software/pc2/EB-SW/software/PSI4/1.9-foss-2022a/share/psi4/basis/jun-cc-pvdz-jkfit.gbs 


  //>>>>>>>>>>>>>>>>>>>>>>>>>>>>>>>>>>>//
  //               SSAPT0              //
  //<<<<<<<<<<<<<<<<<<<<<<<<<<<<<<<<<<<//


*** tstart() called on n2cn0241
*** at Thu Jan 25 15:20:10 2024

        SAPT0  
    Ed Hohenstein
     6 June 2009

      Orbital Information
  --------------------------
    NSO        =      2019
    NMO        =      1982
    NRI        =      7157
    NRI (Elst) =      8896
    NOCC A     =        26
    NOCC B     =       300
    FOCC A     =         7
    FOCC B     =        96
    NVIR A     =      1956
    NVIR B     =      1682

    Elst10,r            =    -0.005881231989 [Eh]
    Exch10              =    -0.000000040843 [Eh]
    Exch10 (S^2)        =    -0.000000040843 [Eh]

    Iter     Energy [mEh]          dE [mEh]         Residual      Time [s]
       1      -0.00766493       0.007664925       0.831212195           173
       2      -0.00724895      -0.000415978       0.214646548           342
       3      -0.00797351       0.000724562       0.058021434           505
       4      -0.00801497       0.000041462       0.026632217           652
       5      -0.00798127      -0.000033704       0.007642482           785
       6      -0.00798215       0.000000886       0.002623159           941
       7      -0.00798474       0.000002589       0.000702703          1121
       8      -0.00798490       0.000000153       0.000231308          1268
       9      -0.00798478      -0.000000111       0.000071046          1555
      10      -0.00798475      -0.000000031       0.000021694          1723
      11      -0.00798476       0.000000003       0.000005801          1986
      12      -0.00798476       0.000000003       0.000001648          2208
      13      -0.00798476      -0.000000000       0.000000625          2509

    CHF Iterations converged


    Iter     Energy [mEh]          dE [mEh]         Residual      Time [s]
       1      -2.11568677       2.115686773      25.276472309           442
       2      -1.37437374      -0.741313028       2.846182698           882
       3      -1.37177384      -0.002599905       1.014619802          1339
       4      -1.39785775       0.026083907       0.299742010          1743
       5      -1.40078550       0.002927757       0.100560458          2182
       6      -1.40047933      -0.000306174       0.064424029          2689
       7      -1.39979565      -0.000683679       0.031318853          3204
       8      -1.39988610       0.000090450       0.019427728          3641
       9      -1.40007117       0.000185067       0.011118979          4043
      10      -1.40001045      -0.000060716       0.008442771          4440
      11      -1.39998326      -0.000027191       0.003724136          4824
      12      -1.39998819       0.000004932       0.001898732          5256
      13      -1.39999564       0.000007444       0.000915764          5740
      14      -1.39999698       0.000001345       0.000583608          6182
      15      -1.39999508      -0.000001898       0.000378218          6682
      16      -1.39999393      -0.000001155       0.000138844          7234
      17      -1.39999470       0.000000775       0.000043822          7787
      18      -1.39999478       0.000000078       0.000015606          8320
      19      -1.39999473      -0.000000051       0.000008117          8864
      20      -1.39999470      -0.000000024       0.000003164          9414
      21      -1.39999471       0.000000006       0.000001470          9909
      22      -1.39999471       0.000000005       0.000000775         10421

    CHF Iterations converged

    Ind20,r (A<-B)      =    -0.000007984760 [Eh]
    Ind20,r (B<-A)      =    -0.001399994714 [Eh]
    Ind20,r             =    -0.001407979474 [Eh]
    Exch-Ind20,r (A<-B) =     0.000000003182 [Eh]
    Exch-Ind20,r (B<-A) =     0.000000015336 [Eh]
    Exch-Ind20,r        =     0.000000018518 [Eh]
    Disp20              =    -0.000441541323 [Eh]
    Disp20 (SS)         =    -0.000220770662 [Eh]
    Disp20 (OS)         =    -0.000220770662 [Eh]
    Exch-Disp20         =     0.000000007129 [Eh]
    Exch-Disp20 (SS)    =     0.000000005316 [Eh]
    Exch-Disp20 (OS)    =     0.000000001813 [Eh]

    SAPT Results 
  --------------------------------------------------------------------------------------------------------
    Electrostatics                 -5.88123199 [mEh]      -3.69052879 [kcal/mol]     -15.44117246 [kJ/mol]
      Elst10,r                     -5.88123199 [mEh]      -3.69052879 [kcal/mol]     -15.44117246 [kJ/mol]

    Exchange                       -0.00004084 [mEh]      -0.00002563 [kcal/mol]      -0.00010723 [kJ/mol]
      Exch10                       -0.00004084 [mEh]      -0.00002563 [kcal/mol]      -0.00010723 [kJ/mol]
      Exch10(S^2)                  -0.00004084 [mEh]      -0.00002563 [kcal/mol]      -0.00010723 [kJ/mol]

    Induction                      -1.42003757 [mEh]      -0.89108703 [kcal/mol]      -3.72830812 [kJ/mol]
      Ind20,r                      -1.40797947 [mEh]      -0.88352046 [kcal/mol]      -3.69664960 [kJ/mol]
      Exch-Ind20,r                  0.00001852 [mEh]       0.00001162 [kcal/mol]       0.00004862 [kJ/mol]
      delta HF,r (2)               -0.01207661 [mEh]      -0.00757819 [kcal/mol]      -0.03170714 [kJ/mol]

    Dispersion                     -0.44153419 [mEh]      -0.27706689 [kcal/mol]      -1.15924787 [kJ/mol]
      Disp20                       -0.44154132 [mEh]      -0.27707136 [kcal/mol]      -1.15926658 [kJ/mol]
      Exch-Disp20                   0.00000713 [mEh]       0.00000447 [kcal/mol]       0.00001872 [kJ/mol]
      Disp20 (SS)                  -0.22077066 [mEh]      -0.13853568 [kcal/mol]      -0.57963329 [kJ/mol]
      Disp20 (OS)                  -0.22077066 [mEh]      -0.13853568 [kcal/mol]      -0.57963329 [kJ/mol]
      Exch-Disp20 (SS)              0.00000532 [mEh]       0.00000334 [kcal/mol]       0.00001396 [kJ/mol]
      Exch-Disp20 (OS)              0.00000181 [mEh]       0.00000114 [kcal/mol]       0.00000476 [kJ/mol]

  Total HF                         -7.30131040 [mEh]      -4.58164145 [kcal/mol]     -19.16958781 [kJ/mol]
  Total SAPT0                      -7.74284459 [mEh]      -4.85870834 [kcal/mol]     -20.32883568 [kJ/mol]

  Special recipe for scaled SAPT0 (see Manual):
    Electrostatics sSAPT0          -5.88123199 [mEh]      -3.69052879 [kcal/mol]     -15.44117246 [kJ/mol]
    Exchange sSAPT0                -0.00004084 [mEh]      -0.00002563 [kcal/mol]      -0.00010723 [kJ/mol]
    Induction sSAPT0               -1.42003757 [mEh]      -0.89108703 [kcal/mol]      -3.72830812 [kJ/mol]
    Dispersion sSAPT0              -0.44153419 [mEh]      -0.27706689 [kcal/mol]      -1.15924787 [kJ/mol]
  Total sSAPT0                     -7.74284459 [mEh]      -4.85870834 [kcal/mol]     -20.32883568 [kJ/mol]
  --------------------------------------------------------------------------------------------------------

*** tstop() called on n2cn0241 at Fri Jan 26 00:02:41 2024
Module time:
	user time   =   72211.46 seconds =    1203.52 minutes
	system time =    3502.72 seconds =      58.38 minutes
	total time  =      31351 seconds =     522.52 minutes
Total time:
	user time   =  124566.79 seconds =    2076.11 minutes
	system time =    6410.35 seconds =     106.84 minutes
	total time  =      47024 seconds =     783.73 minutes

    Psi4 stopped on: Friday, 26 January 2024 12:02AM
    Psi4 wall time for execution: 13:03:45.27

*** Psi4 exiting successfully. Buy a developer a beer!
