
    -----------------------------------------------------------------------
          Psi4: An Open-Source Ab Initio Electronic Structure Package
                               Psi4 1.9 release

                         Git: Rev {} zzzzzzz 


    D. G. A. Smith, L. A. Burns, A. C. Simmonett, R. M. Parrish,
    M. C. Schieber, R. Galvelis, P. Kraus, H. Kruse, R. Di Remigio,
    A. Alenaizan, A. M. James, S. Lehtola, J. P. Misiewicz, M. Scheurer,
    R. A. Shaw, J. B. Schriber, Y. Xie, Z. L. Glick, D. A. Sirianni,
    J. S. O'Brien, J. M. Waldrop, A. Kumar, E. G. Hohenstein,
    B. P. Pritchard, B. R. Brooks, H. F. Schaefer III, A. Yu. Sokolov,
    K. Patkowski, A. E. DePrince III, U. Bozkaya, R. A. King,
    F. A. Evangelista, J. M. Turney, T. D. Crawford, C. D. Sherrill,
    J. Chem. Phys. 152(18) 184108 (2020). https://doi.org/10.1063/5.0006002

                            Additional Code Authors
    E. T. Seidl, C. L. Janssen, E. F. Valeev, M. L. Leininger,
    J. F. Gonthier, R. M. Richard, H. R. McAlexander, M. Saitow, X. Wang,
    P. Verma, M. H. Lechner, A. Jiang, S. Behnle, A. G. Heide,
    M. F. Herbst, and D. L. Poole

             Previous Authors, Complete List of Code Contributors,
                       and Citations for Specific Modules
    https://github.com/psi4/psi4/blob/master/codemeta.json
    https://github.com/psi4/psi4/graphs/contributors
    http://psicode.org/psi4manual/master/introduction.html#citing-psifour

    -----------------------------------------------------------------------


    Psi4 started on: Saturday, 27 January 2024 12:16AM

    Process ID: 3703081
    Host:       n2cn1128
    PSIDATADIR: /opt/software/pc2/EB-SW/software/PSI4/1.9-foss-2022a/share/psi4
    Memory:     500.0 MiB
    Threads:    16
    
  ==> Input File <==

--------------------------------------------------------------------------
memory 64 GB # how much memory is available ! Depends on the nodes/cores !

molecule dimer {
# monomer A
+1 1    # Charge and multiplicity
C  0.680067 1.417258 -11.015929
C -0.680504 1.419286 -11.015545
N -1.085635 1.420284  -9.697221
C  0.000108 1.423560  -8.915820
C -2.477365 1.469690  -9.229242
N  1.085222 1.420284  -9.697221
H  1.385146 1.409430 -11.833368
H -1.385302 1.419096 -11.833214
H -0.000009 1.425307  -7.834731
C  2.478117 1.403392  -9.232123
H  2.490592 1.430737  -8.141870
H  2.967028 0.489946  -9.579299
H  3.001428 2.278875  -9.623595
H -2.857359 2.491761  -9.309201
H -3.082679 0.799606  -9.842306
H -2.518128 1.142706  -8.189294
--
# monomer B
0 1     # Charge and multiplicity
C   -3.66844126402057      7.80375217008252      0.00190004133558
C   -4.84759871934653      7.13124183134024     -0.00046653359696
C   -4.89495929917518      5.69633040353158     -0.00103944469517
C   -3.65374067877320      4.98073034095895      0.00662099703436
C   -2.40942512149445      7.11398103667468      0.00209438359570
C   -2.42547734410473      5.68112195090346     -0.00491050527438
C   -1.19474401643570      7.78614419430947      0.00356656413763
C   0.03795902893699      7.09942164575698      0.00139585983271
C   0.03033258741920      5.66948955970466     -0.00408752508301
C   -1.20098450790502      4.96927034791531      0.00488220885047
C   1.27795782581485      7.77285944319479      0.00277170839332
C   2.48535808472416      7.08769688523756      0.00049722048857
C   2.48612868491717      5.65477081024076     -0.00644052849921
C   1.25408291964399      4.95607811366431      0.00518741308898
C   3.75171459140595      7.76391215098033      0.00062407186893
C   4.92356605618520      7.07878077698995     -0.00143240883900
C   4.95560727132542      5.64344746336949     -0.00159282164606
C   3.70680153420475      4.94121020833308      0.00349873852374
H   -3.65852113775815      8.89082741913536      0.00358502958574
H   -1.18921332975660      8.87412108735996      0.00753844057883
H   1.28429423888630      8.86083343548850      0.00693053253426
H   3.75354208679975      8.85103527897216      0.00214659618464
H   5.86995870320703      7.61379483465560     -0.00235777588134
H   -5.78823170750226      7.67630221293400     -0.00202638095293
C   -6.09197395869619      4.99326001364347     -0.00291168518608
C   -6.12866148031747      3.58258016879823     -0.00171050815740
C   -3.66457974004527      3.56418217974434     -0.00463560277484
C   -4.89429820469869      2.86108077590057      0.00453338221034
C   -2.43733499489796      2.84761165708481      0.00719617576166
C   -1.20922785759670      3.54788693497833     -0.00648285103018
C   1.24714157216223      3.53468075142962     -0.00729145743546
C   0.01517603956900      2.83311183930540      0.00439272578912
C   2.46764517244071      2.82128997725533      0.00449278391269
C   3.70254947457969      3.52466015442405     -0.00899517692985
C   6.14498038638375      4.92757236613191     -0.00282626685777
C   6.16658835886151      3.51658447594213     -0.00065971342101
C   4.92460995845939      2.80840792535402      0.00587903281610
H   7.08990550964105      5.46688776622306     -0.00658814770723
H   -7.03104175110130      5.54268795285765     -0.00714490013730
C   -7.33969804112295      2.85841153457957     -0.00333767559888
C   -7.36488195805880      1.47032337158330     -0.00157213747140
C   -4.90350460894690      1.44442681216000     -0.00628840166334
C   -6.13225715261081      0.73993935705394      0.00600164231964
C   -3.67687480051673      0.72669714267312      0.00433931473643
C   -2.44565658606518      1.42964113326212     -0.00597039546461
C   -1.22360068130162      0.71532450163492      0.00545886906656
C   0.00763786931376      1.41738314923765      0.00392452278437
C   1.23121980774686      0.70211669058719     -0.01490206287210
C   2.46082110053113      1.40329203612573      0.00460244601878
C   3.68443025419614      0.68719842821222      0.00377365974158
C   4.91870890153864      1.39173456118907     -0.00862816189375
C   7.36980207796101      2.77948220318441     -0.00242013321349
C   7.38016266612146      1.39121750785509     -0.00087345036788
C   6.13979953912259      0.67411862320065      0.00545489144369
H   -8.27919079934664      3.40711804112415     -0.00763522772059
H   8.31511347147953      3.31811809662368     -0.00663070901292
C   -8.59175593758115      0.72483255304480     -0.00123170985383
C   -8.59902460370342     -0.63263980622873      0.00089141472904
C   -6.13981313911873     -0.67413663715361     -0.00609792660607
C   -7.38018411213749     -1.39126618958160      0.00131813493501
C   -4.91868448025621     -1.39175501803000      0.00624257154343
C   -3.68443829568458     -0.68723731573599     -0.00478966852105
C   -2.46081704024768     -1.40334517882457      0.00575341766833
C   -1.23116201232071     -0.70217386488055     -0.00636696112346
C   -0.00756962538737     -1.41741884941102      0.00108956317991
C   1.22364771588843     -0.71527537726392      0.01109518512883
C   2.44567064933149     -1.42964328900682     -0.00065482763106
C   3.67686670284649     -0.72670743155550     -0.00479541202602
C   6.13224884641929     -0.73997883984993     -0.00632338623858
C   4.90351914550401     -1.44445752054090      0.00751768830159
C   8.59901484869081      0.63260386666793     -0.00101133422380
C   8.59174548810050     -0.72485086719319      0.00072504603735
C   7.36486276438985     -1.47033266560598      0.00049486934466
H   -9.52830597181814      1.27684744919284     -0.00270163681798
H   9.54141097460619      1.17457248844457     -0.00206336648518
C   -7.36983790976868     -2.77954514593389      0.00312634335708
C   -4.92459910905015     -2.80843725734101     -0.00460528907921
C   -6.16662249566744     -3.51665219282533      0.00169655107992
C   -3.70251035970491     -3.52468154912026      0.00571878010666
C   -2.46764698511392     -2.82132596280400     -0.00632585824990
C   -0.01513347410770     -2.83314164539971     -0.00604426974092
C   -1.24712184122656     -3.53473217556300      0.00551968366725
C   1.20924506964357     -3.54791467864352      0.00805871345849
C   2.43733602215464     -2.84764173817541     -0.00608104485234
C   4.89430234377080     -2.86112296828604     -0.00526030478103
C   3.66461525504104     -3.56421984553201      0.00761911515957
C   6.12863901474565     -3.58258405771778      0.00096495711699
C   7.33967266469532     -2.85841330737039      0.00248018319869
H   -9.54144911125902     -1.17456346666430      0.00226083090216
H   9.52826186807155     -1.27691907390448      0.00197485379837
H   -8.31516504384864     -3.31814985321231      0.00729857188773
H   8.27915514249207     -3.40714078989363      0.00681973918158
C   -6.14499418870218     -4.92764727278338      0.00302254913999
C   -3.70678334799751     -4.94126171411716     -0.00679841894792
C   -4.95559005800169     -5.64349397349412      0.00116871569699
C   -2.48612132622665     -5.65478557440947      0.00614125209662
C   -1.25405833548005     -4.95612205000132     -0.00503435388927
C   1.20101257386816     -4.96928038819302     -0.00385322963129
C   -0.03033667441341     -5.66952030313900      0.00398997003238
C   3.65375010132847     -4.98074377541453     -0.00309522988330
C   2.42549269587528     -5.68117463552727      0.00628170066869
C   6.09196561781097     -4.99325796338655      0.00325918379042
C   4.89497644461045     -5.69634842095790      0.00202298796027
H   -7.08989238804069     -5.46699984223871      0.00742531082125
H   7.03105520920009     -5.54265853633254      0.00683896355417
C   -4.92354532219813     -7.07882109967734      0.00061394679214
C   -2.48534208823777     -7.08772807792913     -0.00189594564379
C   -3.75168589177895     -7.76394715763627     -0.00170126671874
C   -0.03794895698805     -7.09946487446944     -0.00168022049625
C   -1.27795610040136     -7.77290438466689     -0.00366491325785
C   2.40944432072629     -7.11402201200282     -0.00081701968533
C   1.19474993715296     -7.78618536556242     -0.00296931056689
C   4.84762105249800     -7.13126211057943      0.00168979497423
C   3.66847160587561     -7.80378799294376     -0.00065863938960
H   -5.86994035041618     -7.61383059804164      0.00215798365757
H   5.78824962538815     -7.67633218931421      0.00281691445618
H   -3.75352693944918     -8.85107156923607     -0.00353718114765
H   -1.28430440589466     -8.86087539249706     -0.00809229711623
H   1.18922157469537     -8.87416062058945     -0.00706194725726
H   3.65854661482387     -8.89086063405326     -0.00231318081200

    units angstrom      # Angstroms are the default
    no_reorient         # Geometry fixed, default
    symmetry c1         # C1 symmetry, default
}

set {
    scf_type DF         # Density fitting, faster than exact integrals
    freeze_core True    # Freeze core electrons
    basis jun-cc-pVDZ   # Jun-cc-pVDZ basis set, recommended for sSAPT0 in https://doi.org/10.1063/1.4867135
}

energy('ssapt0')        # Compute sSAPT0 energy, includes also SAPT0
--------------------------------------------------------------------------

  Memory set to  59.605 GiB by Python driver.

Scratch directory: /tmp/
   => Loading Basis Set <=

    Name: JUN-CC-PVDZ
    Role: ORBITAL
    Keyword: BASIS
    atoms 1-2, 4-5, 10, 17-34, 41-53, 56-70, 73-89, 92-104, 109-119, 122-130 entry C          line   164 file /opt/software/pc2/EB-SW/software/PSI4/1.9-foss-2022a/share/psi4/basis/jun-cc-pvdz.gbs 
    atoms 3, 6                                                               entry N          line   198 file /opt/software/pc2/EB-SW/software/PSI4/1.9-foss-2022a/share/psi4/basis/jun-cc-pvdz.gbs 
    atoms 7-9, 11-16, 35-40, 54-55, 71-72, 90-91, 105-108, 120-121, 131-136  entry H          line    36 file /opt/software/pc2/EB-SW/software/PSI4/1.9-foss-2022a/share/psi4/basis/jun-cc-pvdz.gbs 

   => Loading Basis Set <=

    Name: JUN-CC-PVDZ
    Role: ORBITAL
    Keyword: BASIS
    atoms 1-2, 4-5, 10, 17-34, 41-53, 56-70, 73-89, 92-104, 109-119, 122-130 entry C          line   164 file /opt/software/pc2/EB-SW/software/PSI4/1.9-foss-2022a/share/psi4/basis/jun-cc-pvdz.gbs 
    atoms 3, 6                                                               entry N          line   198 file /opt/software/pc2/EB-SW/software/PSI4/1.9-foss-2022a/share/psi4/basis/jun-cc-pvdz.gbs 
    atoms 7-9, 11-16, 35-40, 54-55, 71-72, 90-91, 105-108, 120-121, 131-136  entry H          line    36 file /opt/software/pc2/EB-SW/software/PSI4/1.9-foss-2022a/share/psi4/basis/jun-cc-pvdz.gbs 


  //>>>>>>>>>>>>>>>>>>>>>>>>>>>>>>>>>>>//
  //              Dimer HF             //
  //<<<<<<<<<<<<<<<<<<<<<<<<<<<<<<<<<<<//

   => Libint2 <=

    Primary   basis highest AM E, G, H:  5, 4, 3
    Auxiliary basis highest AM E, G, H:  6, 5, 4
    Onebody   basis highest AM E, G, H:  6, 5, 4
    Solid Harmonics ordering:            gaussian

*** tstart() called on n2cn1128
*** at Sat Jan 27 00:16:48 2024

   => Loading Basis Set <=

    Name: JUN-CC-PVDZ
    Role: ORBITAL
    Keyword: BASIS
    atoms 1-2, 4-5, 10, 17-34, 41-53, 56-70, 73-89, 92-104, 109-119, 122-130 entry C          line   164 file /opt/software/pc2/EB-SW/software/PSI4/1.9-foss-2022a/share/psi4/basis/jun-cc-pvdz.gbs 
    atoms 3, 6                                                               entry N          line   198 file /opt/software/pc2/EB-SW/software/PSI4/1.9-foss-2022a/share/psi4/basis/jun-cc-pvdz.gbs 
    atoms 7-9, 11-16, 35-40, 54-55, 71-72, 90-91, 105-108, 120-121, 131-136  entry H          line    36 file /opt/software/pc2/EB-SW/software/PSI4/1.9-foss-2022a/share/psi4/basis/jun-cc-pvdz.gbs 


         ---------------------------------------------------------
                                   SCF
               by Justin Turney, Rob Parrish, Andy Simmonett
                          and Daniel G. A. Smith
                              RHF Reference
                       16 Threads,  61035 MiB Core
         ---------------------------------------------------------

  ==> Geometry <==

    Molecular point group: c1
    Full point group: C1

    Geometry (in Angstrom), charge = 1, multiplicity = 1:

       Center              X                  Y                   Z               Mass       
    ------------   -----------------  -----------------  -----------------  -----------------
         C            0.680062820275     1.308604348936   -10.268760477062    12.000000000000
         C           -0.680508179725     1.310632348936   -10.268376477062    12.000000000000
         N           -1.085639179725     1.311630348936    -8.950052477062    14.003074004430
         C            0.000103820275     1.314906348936    -8.168651477062    12.000000000000
         C           -2.477369179725     1.361036348936    -8.482073477062    12.000000000000
         N            1.085217820275     1.311630348936    -8.950052477062    14.003074004430
         H            1.385141820275     1.300776348936   -11.086199477062     1.007825032230
         H           -1.385306179725     1.310442348936   -11.086045477062     1.007825032230
         H           -0.000013179725     1.316653348936    -7.087562477062     1.007825032230
         C            2.478112820275     1.294738348936    -8.484954477062    12.000000000000
         H            2.490587820275     1.322083348936    -7.394701477062     1.007825032230
         H            2.967023820275     0.381292348936    -8.832130477062     1.007825032230
         H            3.001423820275     2.170221348936    -8.876426477062     1.007825032230
         H           -2.857363179725     2.383107348936    -8.562032477062     1.007825032230
         H           -3.082683179725     0.690952348936    -9.095137477062     1.007825032230
         H           -2.518132179725     1.034052348936    -7.442125477062     1.007825032230
         C           -3.668445443746     7.695098519018     0.749068564273    12.000000000000
         C           -4.847602899072     7.022588180276     0.746701989341    12.000000000000
         C           -4.894963478901     5.587676752467     0.746129078243    12.000000000000
         C           -3.653744858499     4.872076689895     0.753789519972    12.000000000000
         C           -2.409429301220     7.005327385610     0.749262906533    12.000000000000
         C           -2.425481523830     5.572468299839     0.742258017663    12.000000000000
         C           -1.194748196161     7.677490543245     0.750735087075    12.000000000000
         C            0.037954849212     6.990767994693     0.748564382770    12.000000000000
         C            0.030328407694     5.560835908640     0.743080997855    12.000000000000
         C           -1.200988687630     4.860616696851     0.752050731788    12.000000000000
         C            1.277953646089     7.664205792130     0.749940231331    12.000000000000
         C            2.485353904999     6.979043234173     0.747665743426    12.000000000000
         C            2.486124505192     5.546117159176     0.740727994438    12.000000000000
         C            1.254078739919     4.847424462600     0.752355936027    12.000000000000
         C            3.751710411681     7.655258499916     0.747792594807    12.000000000000
         C            4.923561876460     6.970127125926     0.745736114099    12.000000000000
         C            4.955603091600     5.534793812305     0.745575701292    12.000000000000
         C            3.706797354479     4.832556557269     0.750667261461    12.000000000000
         H           -3.658525317484     8.782173768071     0.750753552523     1.007825032230
         H           -1.189217509482     8.765467436296     0.754706963517     1.007825032230
         H            1.284290059161     8.752179784424     0.754099055472     1.007825032230
         H            3.753537907074     8.742381627908     0.749315119122     1.007825032230
         H            5.869954523482     7.505141183591     0.744810747056     1.007825032230
         H           -5.788235887228     7.567648561870     0.745142141985     1.007825032230
         C           -6.091978138422     4.884606362579     0.744256837752    12.000000000000
         C           -6.128665660043     3.473926517734     0.745458014780    12.000000000000
         C           -3.664583919771     3.455528528680     0.742532920163    12.000000000000
         C           -4.894302384424     2.752427124836     0.751701905148    12.000000000000
         C           -2.437339174623     2.738958006020     0.754364698699    12.000000000000
         C           -1.209232037322     3.439233283914     0.740685671907    12.000000000000
         C            1.247137392437     3.426027100365     0.739877065502    12.000000000000
         C            0.015171859844     2.724458188241     0.751561248727    12.000000000000
         C            2.467640992715     2.712636326191     0.751661306850    12.000000000000
         C            3.702545294854     3.416006503360     0.738173346008    12.000000000000
         C            6.144976206658     4.818918715067     0.744342256080    12.000000000000
         C            6.166584179136     3.407930824878     0.746508809517    12.000000000000
         C            4.924605778734     2.699754274290     0.753047555754    12.000000000000
         H            7.089901329916     5.358234115159     0.740580375230     1.007825032230
         H           -7.031045930827     5.434034301793     0.740023622800     1.007825032230
         C           -7.339702220848     2.749757883515     0.743830847339    12.000000000000
         C           -7.364886137784     1.361669720519     0.745596385466    12.000000000000
         C           -4.903508788672     1.335773161096     0.740880121274    12.000000000000
         C           -6.132261332336     0.631285705989     0.753170165257    12.000000000000
         C           -3.676878980242     0.618043491609     0.751507837674    12.000000000000
         C           -2.445660765791     1.320987482198     0.741198127473    12.000000000000
         C           -1.223604861027     0.606670850570     0.752627392004    12.000000000000
         C            0.007633689588     1.308729498173     0.751093045722    12.000000000000
         C            1.231215628021     0.593463039523     0.732266460066    12.000000000000
         C            2.460816920806     1.294638385061     0.751770968956    12.000000000000
         C            3.684426074471     0.578544777148     0.750942182679    12.000000000000
         C            4.918704721813     1.283080910125     0.738540361044    12.000000000000
         C            7.369797898236     2.670828552120     0.744748389724    12.000000000000
         C            7.380158486396     1.282563856791     0.746295072570    12.000000000000
         C            6.139795359397     0.565464972136     0.752623414381    12.000000000000
         H           -8.279194979072     3.298464390060     0.739533295217     1.007825032230
         H            8.315109291754     3.209464445559     0.740537813925     1.007825032230
         C           -8.591760117307     0.616178901980     0.745936813084    12.000000000000
         C           -8.599028783429    -0.741293457293     0.748059937667    12.000000000000
         C           -6.139817318844    -0.782790288218     0.741070596332    12.000000000000
         C           -7.380188291863    -1.499919840646     0.748486657873    12.000000000000
         C           -4.918688659982    -1.500408669094     0.753411094481    12.000000000000
         C           -3.684442475410    -0.795890966800     0.742378854417    12.000000000000
         C           -2.460821219973    -1.511998829889     0.752921940606    12.000000000000
         C           -1.231166192046    -0.810827515945     0.740801561814    12.000000000000
         C           -0.007573805113    -1.526072500475     0.748258086118    12.000000000000
         C            1.223643536163    -0.823929028328     0.758263708067    12.000000000000
         C            2.445666469606    -1.538296940071     0.746513695307    12.000000000000
         C            3.676862523121    -0.835361082620     0.742373110912    12.000000000000
         C            6.132244666694    -0.848632490914     0.740845136699    12.000000000000
         C            4.903514965779    -1.553111171605     0.754686211239    12.000000000000
         C            8.599010668965     0.523950215603     0.746157188714    12.000000000000
         C            8.591741308375    -0.833504518258     0.747893568975    12.000000000000
         C            7.364858584664    -1.578986316670     0.747663392282    12.000000000000
         H           -9.528310151544     1.168193798128     0.744466886120     1.007825032230
         H            9.541406794881     1.065918837380     0.745105156452     1.007825032230
         C           -7.369842089494    -2.888198796998     0.750294866295    12.000000000000
         C           -4.924603288776    -2.917090908405     0.742563233858    12.000000000000
         C           -6.166626675393    -3.625305843890     0.748865074018    12.000000000000
         C           -3.702514539430    -3.633335200185     0.752887303044    12.000000000000
         C           -2.467651164839    -2.929979613868     0.740842664688    12.000000000000
         C           -0.015137653833    -2.941795296464     0.741124253197    12.000000000000
         C           -1.247126020952    -3.643385826627     0.752688206605    12.000000000000
         C            1.209240889918    -3.656568329708     0.755227236396    12.000000000000
         C            2.437331842429    -2.956295389240     0.741087478085    12.000000000000
         C            4.894298164045    -2.969776619350     0.741908218157    12.000000000000
         C            3.664611075316    -3.672873496596     0.754787638097    12.000000000000
         C            6.128634835020    -3.691237708782     0.748133480055    12.000000000000
         C            7.339668484970    -2.967066958435     0.749648706136    12.000000000000
         H           -9.541453290984    -1.283217117729     0.749429353840     1.007825032230
         H            9.528257688346    -1.385572724969     0.749143376736     1.007825032230
         H           -8.315169223574    -3.426803504277     0.754467094825     1.007825032230
         H            8.279150962767    -3.515794440958     0.753988262119     1.007825032230
         C           -6.144998368428    -5.036300923848     0.750191072078    12.000000000000
         C           -3.706787527723    -5.049915365182     0.740370103990    12.000000000000
         C           -4.955594237727    -5.752147624559     0.748337238635    12.000000000000
         C           -2.486125505952    -5.763439225474     0.753309775034    12.000000000000
         C           -1.254062515205    -5.064775701066     0.742134169048    12.000000000000
         C            1.201008394143    -5.077934039257     0.743315293306    12.000000000000
         C           -0.030340854139    -5.778173954203     0.751158492970    12.000000000000
         C            3.653745921603    -5.089397426479     0.744073293054    12.000000000000
         C            2.425488516150    -5.789828286592     0.753450223606    12.000000000000
         C            6.091961438086    -5.101911614451     0.750427706728    12.000000000000
         C            4.894972264885    -5.805002072022     0.749191510898    12.000000000000
         H           -7.089896567766    -5.575653493303     0.754593833759     1.007825032230
         H            7.031051029475    -5.651312187397     0.754007486492     1.007825032230
         C           -4.923549501924    -7.187474750742     0.747782469730    12.000000000000
         C           -2.485346267963    -7.196381728994     0.745272577294    12.000000000000
         C           -3.751690071504    -7.872600808701     0.745467256219    12.000000000000
         C           -0.037953136713    -7.208118525534     0.745488302441    12.000000000000
         C           -1.277960280127    -7.881558035731     0.743503609680    12.000000000000
         C            2.409440141001    -7.222675663067     0.746351503252    12.000000000000
         C            1.194745757428    -7.894839016627     0.744199212371    12.000000000000
         C            4.847616872773    -7.239915761644     0.748858317912    12.000000000000
         C            3.668467426150    -7.912441644008     0.746509883548    12.000000000000
         H           -5.869944530142    -7.722484249106     0.749326506595     1.007825032230
         H            5.788245445663    -7.784985840379     0.749985437394     1.007825032230
         H           -3.753531119175    -8.959725220301     0.743631341790     1.007825032230
         H           -1.284308585620    -8.969529043562     0.739076225821     1.007825032230
         H            1.189217394970    -8.982814271654     0.740106575680     1.007825032230
         H            3.658542435098    -8.999514285118     0.744855342126     1.007825032230

  Running in c1 symmetry.

  Rotational constants: A =      0.00052  B =      0.00051  C =      0.00035 [cm^-1]
  Rotational constants: A =     15.44470  B =     15.42230  C =     10.45746 [MHz]
  Nuclear repulsion = 17360.051007337409828

  Charge       = 1
  Multiplicity = 1
  Electrons    = 652
  Nalpha       = 326
  Nbeta        = 326

  ==> Algorithm <==

  SCF Algorithm Type is DF.
  DIIS enabled.
  MOM disabled.
  Fractional occupation disabled.
  Guess Type is SAD.
  Energy threshold   = 1.00e-08
  Density threshold  = 1.00e-08
  Integral threshold = 1.00e-12

  ==> Primary Basis <==

  Basis Set: JUN-CC-PVDZ
    Blend: JUN-CC-PVDZ
    Number of shells: 923
    Number of basis functions: 2019
    Number of Cartesian functions: 2122
    Spherical Harmonics?: true
    Max angular momentum: 2

   => Loading Basis Set <=

    Name: (JUN-CC-PVDZ AUX)
    Role: JKFIT
    Keyword: DF_BASIS_SCF
    atoms 1-2, 4-5, 10, 17-34, 41-53, 56-70, 73-89, 92-104, 109-119, 122-130 entry C          line   146 file /opt/software/pc2/EB-SW/software/PSI4/1.9-foss-2022a/share/psi4/basis/jun-cc-pvdz-jkfit.gbs 
    atoms 3, 6                                                               entry N          line   202 file /opt/software/pc2/EB-SW/software/PSI4/1.9-foss-2022a/share/psi4/basis/jun-cc-pvdz-jkfit.gbs 
    atoms 7-9, 11-16, 35-40, 54-55, 71-72, 90-91, 105-108, 120-121, 131-136  entry H          line    70 file /opt/software/pc2/EB-SW/software/PSI4/1.9-foss-2022a/share/psi4/basis/jun-cc-pvdz-jkfit.gbs 

  ==> Integral Setup <==

  ==> DiskDFJK: Density-Fitted J/K Matrices <==

    J tasked:                  Yes
    K tasked:                  Yes
    wK tasked:                  No
    OpenMP threads:             16
    Integrals threads:          16
    Memory [MiB]:            45776
    Algorithm:                Disk
    Integral Cache:           SAVE
    Schwarz Cutoff:          1E-12
    Fitting Condition:       1E-10

   => Auxiliary Basis Set <=

  Basis Set: (JUN-CC-PVDZ AUX)
    Blend: JUN-CC-PVDZ-JKFIT
    Number of shells: 3078
    Number of basis functions: 8896
    Number of Cartesian functions: 10198
    Spherical Harmonics?: true
    Max angular momentum: 3

  Minimum eigenvalue in the overlap matrix is 9.0531860670E-11.
  Reciprocal condition number of the overlap matrix is 3.9704509379E-12.
    Using canonical orthogonalization.
  Overall, 37 of 2019 possible MOs eliminated.


  ==> Pre-Iterations <==

  SCF Guess: Superposition of Atomic Densities via on-the-fly atomic UHF (no occupation information).

   -------------------------
    Irrep   Nso     Nmo    
   -------------------------
     A       2019    1982 
   -------------------------
    Total    2019    1982
   -------------------------

  ==> Iterations <==

                           Total Energy        Delta E     RMS |[F,P]|

   @DF-RHF iter SAD: -3967.13312285389020   -3.96713e+03   0.00000e+00 
   @DF-RHF iter   1: -3952.09106016715759    1.50421e+01   7.16576e-04 ADIIS/DIIS
   @DF-RHF iter   2: -3953.48992853146501   -1.39887e+00   2.33075e-04 ADIIS/DIIS
   @DF-RHF iter   3: -3953.61485815179913   -1.24930e-01   9.85174e-05 DIIS
   @DF-RHF iter   4: -3953.63686784107495   -2.20097e-02   4.05296e-05 DIIS
   @DF-RHF iter   5: -3953.64099187540887   -4.12403e-03   9.87025e-06 DIIS
   @DF-RHF iter   6: -3953.64140452444781   -4.12649e-04   4.56723e-06 DIIS
   @DF-RHF iter   7: -3953.64158361776117   -1.79093e-04   2.19959e-06 DIIS
   @DF-RHF iter   8: -3953.64164384789729   -6.02301e-05   1.11331e-06 DIIS
   @DF-RHF iter   9: -3953.64166110703218   -1.72591e-05   3.55596e-07 DIIS
   @DF-RHF iter  10: -3953.64166228193199   -1.17490e-06   1.46254e-07 DIIS
   @DF-RHF iter  11: -3953.64166243441650   -1.52485e-07   5.95771e-08 DIIS
   @DF-RHF iter  12: -3953.64166246648438   -3.20679e-08   2.94976e-08 DIIS
   @DF-RHF iter  13: -3953.64166247250432   -6.01995e-09   9.38819e-09 DIIS
  Energy and wave function converged.


  ==> Post-Iterations <==

    Orbital Energies [Eh]
    ---------------------

    Doubly Occupied:                                                      

       1A    -15.827043     2A    -15.826516     3A    -11.521839  
       4A    -11.452888     5A    -11.451334     6A    -11.441857  
       7A    -11.441751     8A    -11.309919     9A    -11.309420  
      10A    -11.309309    11A    -11.309005    12A    -11.308984  
      13A    -11.308881    14A    -11.308530    15A    -11.308372  
      16A    -11.308359    17A    -11.308182    18A    -11.308010  
      19A    -11.307834    20A    -11.307820    21A    -11.307642  
      22A    -11.307606    23A    -11.307452    24A    -11.307364  
      25A    -11.307147    26A    -11.307137    27A    -11.306899  
      28A    -11.306865    29A    -11.306817    30A    -11.306752  
      31A    -11.306667    32A    -11.306511    33A    -11.306508  
      34A    -11.306208    35A    -11.306177    36A    -11.306127  
      37A    -11.306123    38A    -11.306017    39A    -11.305731  
      40A    -11.305711    41A    -11.305635    42A    -11.305633  
      43A    -11.305552    44A    -11.305534    45A    -11.305279  
      46A    -11.305261    47A    -11.305146    48A    -11.305131  
      49A    -11.304907    50A    -11.304843    51A    -11.304825  
      52A    -11.304740    53A    -11.304615    54A    -11.304598  
      55A    -11.304549    56A    -11.304520    57A    -11.304279  
      58A    -11.304261    59A    -11.304226    60A    -11.304025  
      61A    -11.303874    62A    -11.303859    63A    -11.303696  
      64A    -11.303691    65A    -11.303686    66A    -11.303677  
      67A    -11.303640    68A    -11.303628    69A    -11.303349  
      70A    -11.303331    71A    -11.302874    72A    -11.302863  
      73A    -11.302746    74A    -11.302741    75A    -11.302639  
      76A    -11.302633    77A    -11.302194    78A    -11.301909  
      79A    -11.301879    80A    -11.297602    81A    -11.297528  
      82A    -11.297484    83A    -11.297464    84A    -11.297423  
      85A    -11.297402    86A    -11.296899    87A    -11.296872  
      88A    -11.296490    89A    -11.296474    90A    -11.296417  
      91A    -11.296395    92A    -11.295988    93A    -11.295968  
      94A    -11.295788    95A    -11.295781    96A    -11.295647  
      97A    -11.295565    98A    -11.295149    99A    -11.295146  
     100A    -11.294956   101A    -11.294930   102A    -11.293678  
     103A    -11.293676   104A     -1.570747   105A     -1.426274  
     106A     -1.299224   107A     -1.283608   108A     -1.283548  
     109A     -1.264599   110A     -1.264595   111A     -1.260067  
     112A     -1.244760   113A     -1.239562   114A     -1.232628  
     115A     -1.232581   116A     -1.231316   117A     -1.217362  
     118A     -1.217358   119A     -1.199950   120A     -1.199942  
     121A     -1.197074   122A     -1.188179   123A     -1.188174  
     124A     -1.181669   125A     -1.172496   126A     -1.159000  
     127A     -1.156780   128A     -1.156736   129A     -1.156548  
     130A     -1.154941   131A     -1.132279   132A     -1.132266  
     133A     -1.120303   134A     -1.120300   135A     -1.111701  
     136A     -1.111694   137A     -1.111194   138A     -1.109211  
     139A     -1.090519   140A     -1.090505   141A     -1.084164  
     142A     -1.082069   143A     -1.082067   144A     -1.069549  
     145A     -1.066042   146A     -1.066026   147A     -1.050865  
     148A     -1.050661   149A     -1.047486   150A     -1.044485  
     151A     -1.044461   152A     -1.034220   153A     -1.015195  
     154A     -1.014868   155A     -1.014850   156A     -0.999335  
     157A     -0.999305   158A     -0.989403   159A     -0.950122  
     160A     -0.950062   161A     -0.949054   162A     -0.948603  
     163A     -0.948584   164A     -0.936896   165A     -0.936833  
     166A     -0.934676   167A     -0.934526   168A     -0.933421  
     169A     -0.915517   170A     -0.911795   171A     -0.909456  
     172A     -0.895011   173A     -0.892018   174A     -0.891944  
     175A     -0.889782   176A     -0.886973   177A     -0.878161  
     178A     -0.878156   179A     -0.871186   180A     -0.871185  
     181A     -0.842976   182A     -0.828463   183A     -0.828415  
     184A     -0.827065   185A     -0.827027   186A     -0.826374  
     187A     -0.825919   188A     -0.825678   189A     -0.810788  
     190A     -0.808962   191A     -0.805427   192A     -0.805123  
     193A     -0.794484   194A     -0.782728   195A     -0.778591  
     196A     -0.776641   197A     -0.774628   198A     -0.770796  
     199A     -0.770757   200A     -0.768803   201A     -0.768272  
     202A     -0.768253   203A     -0.762590   204A     -0.757738  
     205A     -0.757729   206A     -0.742897   207A     -0.742890  
     208A     -0.730121   209A     -0.729346   210A     -0.729342  
     211A     -0.725737   212A     -0.725728   213A     -0.722376  
     214A     -0.721866   215A     -0.717984   216A     -0.709497  
     217A     -0.696839   218A     -0.694370   219A     -0.694311  
     220A     -0.693716   221A     -0.693687   222A     -0.692848  
     223A     -0.684787   224A     -0.684770   225A     -0.683548  
     226A     -0.682575   227A     -0.679735   228A     -0.679722  
     229A     -0.672732   230A     -0.663241   231A     -0.658412  
     232A     -0.658404   233A     -0.652291   234A     -0.652274  
     235A     -0.643797   236A     -0.643747   237A     -0.642656  
     238A     -0.642552   239A     -0.642268   240A     -0.642027  
     241A     -0.638504   242A     -0.638441   243A     -0.638272  
     244A     -0.638078   245A     -0.635386   246A     -0.635362  
     247A     -0.631590   248A     -0.620568   249A     -0.620565  
     250A     -0.619839   251A     -0.619835   252A     -0.616806  
     253A     -0.614228   254A     -0.612106   255A     -0.612061  
     256A     -0.610128   257A     -0.610083   258A     -0.603640  
     259A     -0.602419   260A     -0.602417   261A     -0.601356  
     262A     -0.598006   263A     -0.594250   264A     -0.590039  
     265A     -0.588846   266A     -0.588231   267A     -0.579508  
     268A     -0.579475   269A     -0.576915   270A     -0.576863  
     271A     -0.571876   272A     -0.571383   273A     -0.571381  
     274A     -0.560723   275A     -0.560646   276A     -0.558890  
     277A     -0.558880   278A     -0.552768   279A     -0.552758  
     280A     -0.541580   281A     -0.540097   282A     -0.540088  
     283A     -0.538125   284A     -0.538113   285A     -0.533838  
     286A     -0.524578   287A     -0.520771   288A     -0.520767  
     289A     -0.517361   290A     -0.516737   291A     -0.513478  
     292A     -0.510220   293A     -0.510187   294A     -0.502710  
     295A     -0.491075   296A     -0.490989   297A     -0.485353  
     298A     -0.485100   299A     -0.485020   300A     -0.477883  
     301A     -0.477166   302A     -0.451211   303A     -0.451200  
     304A     -0.430657   305A     -0.430644   306A     -0.428897  
     307A     -0.428881   308A     -0.428086   309A     -0.398094  
     310A     -0.398067   311A     -0.394414   312A     -0.383048  
     313A     -0.380692   314A     -0.380659   315A     -0.375893  
     316A     -0.375861   317A     -0.351516   318A     -0.346208  
     319A     -0.346183   320A     -0.344383   321A     -0.329773  
     322A     -0.299193   323A     -0.297698   324A     -0.297670  
     325A     -0.247871   326A     -0.247835  

    Virtual:                                                              

     327A     -0.061005   328A     -0.055089   329A     -0.054980  
     330A     -0.054408   331A     -0.047201   332A     -0.042221  
     333A     -0.024778   334A     -0.021776   335A     -0.019807  
     336A     -0.018681   337A     -0.009013   338A     -0.008930  
     339A     -0.003025   340A      0.001732   341A      0.004420  
     342A      0.006462   343A      0.006833   344A      0.006948  
     345A      0.009106   346A      0.009487   347A      0.010614  
     348A      0.010878   349A      0.014492   350A      0.015327  
     351A      0.017323   352A      0.019167   353A      0.022391  
     354A      0.022806   355A      0.024853   356A      0.025062  
     357A      0.026110   358A      0.026195   359A      0.028985  
     360A      0.030508   361A      0.035365   362A      0.035612  
     363A      0.035981   364A      0.036103   365A      0.036240  
     366A      0.036317   367A      0.040491   368A      0.041773  
     369A      0.042527   370A      0.043498   371A      0.044499  
     372A      0.046043   373A      0.046422   374A      0.047984  
     375A      0.048294   376A      0.051557   377A      0.054570  
     378A      0.059751   379A      0.060467   380A      0.060959  
     381A      0.061038   382A      0.062638   383A      0.062924  
     384A      0.063644   385A      0.063901   386A      0.066336  
     387A      0.066539   388A      0.069759   389A      0.069807  
     390A      0.070851   391A      0.071184   392A      0.071285  
     393A      0.075559   394A      0.075783   395A      0.076641  
     396A      0.078120   397A      0.078439   398A      0.078651  
     399A      0.080707   400A      0.080787   401A      0.084508  
     402A      0.087866   403A      0.088518   404A      0.090486  
     405A      0.090829   406A      0.091030   407A      0.091996  
     408A      0.092597   409A      0.096128   410A      0.096156  
     411A      0.100515   412A      0.100638   413A      0.102561  
     414A      0.102647   415A      0.104069   416A      0.105426  
     417A      0.108442   418A      0.109237   419A      0.110922  
     420A      0.111481   421A      0.112709   422A      0.113054  
     423A      0.113166   424A      0.113819   425A      0.116610  
     426A      0.116835   427A      0.117189   428A      0.117243  
     429A      0.120688   430A      0.121295   431A      0.126279  
     432A      0.126427   433A      0.127111   434A      0.127303  
     435A      0.128114   436A      0.128705   437A      0.132272  
     438A      0.134792   439A      0.135108   440A      0.135217  
     441A      0.135914   442A      0.138083   443A      0.138100  
     444A      0.138493   445A      0.138512   446A      0.138639  
     447A      0.145202   448A      0.146008   449A      0.146875  
     450A      0.147241   451A      0.148093   452A      0.148327  
     453A      0.148733   454A      0.148883   455A      0.149573  
     456A      0.157259   457A      0.159002   458A      0.159067  
     459A      0.160208   460A      0.160506   461A      0.161120  
     462A      0.162070   463A      0.162254   464A      0.162765  
     465A      0.163951   466A      0.165079   467A      0.165616  
     468A      0.166301   469A      0.166424   470A      0.166708  
     471A      0.167802   472A      0.168120   473A      0.168546  
     474A      0.168631   475A      0.171523   476A      0.172302  
     477A      0.174286   478A      0.174555   479A      0.174665  
     480A      0.175763   481A      0.179424   482A      0.179595  
     483A      0.179956   484A      0.180328   485A      0.182361  
     486A      0.182414   487A      0.183231   488A      0.184881  
     489A      0.186237   490A      0.186383   491A      0.187502  
     492A      0.189125   493A      0.189992   494A      0.190391  
     495A      0.191689   496A      0.192197   497A      0.192765  
     498A      0.194672   499A      0.194761   500A      0.197102  
     501A      0.197765   502A      0.197771   503A      0.197946  
     504A      0.198230   505A      0.200089   506A      0.200255  
     507A      0.200379   508A      0.200866   509A      0.204088  
     510A      0.204235   511A      0.205018   512A      0.208480  
     513A      0.210116   514A      0.212251   515A      0.213430  
     516A      0.214734   517A      0.217363   518A      0.217785  
     519A      0.217889   520A      0.218013   521A      0.218942  
     522A      0.220327   523A      0.220654   524A      0.220847  
     525A      0.223970   526A      0.224076   527A      0.224905  
     528A      0.224977   529A      0.227653   530A      0.228057  
     531A      0.230136   532A      0.230592   533A      0.231203  
     534A      0.233531   535A      0.235593   536A      0.235674  
     537A      0.236610   538A      0.236675   539A      0.236928  
     540A      0.237107   541A      0.237744   542A      0.240811  
     543A      0.241250   544A      0.243120   545A      0.243775  
     546A      0.244776   547A      0.244877   548A      0.247374  
     549A      0.248586   550A      0.248959   551A      0.252023  
     552A      0.253271   553A      0.253975   554A      0.254315  
     555A      0.257804   556A      0.259761   557A      0.259898  
     558A      0.260050   559A      0.260167   560A      0.260355  
     561A      0.263464   562A      0.264606   563A      0.264780  
     564A      0.266344   565A      0.266432   566A      0.267765  
     567A      0.271270   568A      0.271524   569A      0.271539  
     570A      0.272946   571A      0.273568   572A      0.273766  
     573A      0.275306   574A      0.275495   575A      0.275659  
     576A      0.276104   577A      0.277790   578A      0.278836  
     579A      0.279181   580A      0.280504   581A      0.280601  
     582A      0.280791   583A      0.281284   584A      0.284251  
     585A      0.284413   586A      0.284841   587A      0.284994  
     588A      0.285919   589A      0.286261   590A      0.289058  
     591A      0.289584   592A      0.290451   593A      0.290827  
     594A      0.292367   595A      0.293008   596A      0.296948  
     597A      0.297021   598A      0.297671   599A      0.298911  
     600A      0.298948   601A      0.300547   602A      0.301367  
     603A      0.301511   604A      0.304522   605A      0.305074  
     606A      0.305869   607A      0.307332   608A      0.307441  
     609A      0.307480   610A      0.308332   611A      0.309081  
     612A      0.309380   613A      0.311989   614A      0.312786  
     615A      0.313311   616A      0.314801   617A      0.320531  
     618A      0.320563   619A      0.322323   620A      0.322448  
     621A      0.324224   622A      0.325592   623A      0.326133  
     624A      0.326627   625A      0.328095   626A      0.329095  
     627A      0.330570   628A      0.331376   629A      0.334514  
     630A      0.334862   631A      0.336209   632A      0.337817  
     633A      0.337947   634A      0.338078   635A      0.338249  
     636A      0.340251   637A      0.340337   638A      0.340828  
     639A      0.341833   640A      0.342250   641A      0.344954  
     642A      0.345027   643A      0.347590   644A      0.349418  
     645A      0.350782   646A      0.350903   647A      0.353062  
     648A      0.353618   649A      0.353922   650A      0.354166  
     651A      0.354555   652A      0.354616   653A      0.355772  
     654A      0.355986   655A      0.356077   656A      0.357696  
     657A      0.358051   658A      0.358718   659A      0.359276  
     660A      0.362039   661A      0.362089   662A      0.362360  
     663A      0.362394   664A      0.363560   665A      0.365007  
     666A      0.365195   667A      0.367186   668A      0.367266  
     669A      0.368168   670A      0.369837   671A      0.370295  
     672A      0.371461   673A      0.372312   674A      0.372656  
     675A      0.373572   676A      0.373852   677A      0.374269  
     678A      0.375005   679A      0.375655   680A      0.379064  
     681A      0.380243   682A      0.380568   683A      0.385229  
     684A      0.385560   685A      0.386227   686A      0.386245  
     687A      0.387796   688A      0.387892   689A      0.389783  
     690A      0.390013   691A      0.390262   692A      0.391033  
     693A      0.391117   694A      0.391835   695A      0.391876  
     696A      0.393864   697A      0.393960   698A      0.395370  
     699A      0.397030   700A      0.397062   701A      0.398009  
     702A      0.400342   703A      0.407112   704A      0.407202  
     705A      0.407705   706A      0.409325   707A      0.409367  
     708A      0.410108   709A      0.410721   710A      0.411911  
     711A      0.412492   712A      0.412715   713A      0.412797  
     714A      0.412974   715A      0.414875   716A      0.416109  
     717A      0.417436   718A      0.418225   719A      0.420064  
     720A      0.420393   721A      0.422726   722A      0.423261  
     723A      0.424689   724A      0.425547   725A      0.425771  
     726A      0.426613   727A      0.427229   728A      0.427839  
     729A      0.432402   730A      0.432520   731A      0.432858  
     732A      0.433034   733A      0.434328   734A      0.435391  
     735A      0.437147   736A      0.437385   737A      0.437771  
     738A      0.437865   739A      0.438044   740A      0.440565  
     741A      0.441463   742A      0.442185   743A      0.442337  
     744A      0.443032   745A      0.447298   746A      0.448523  
     747A      0.448697   748A      0.448803   749A      0.449547  
     750A      0.450480   751A      0.451196   752A      0.453519  
     753A      0.453686   754A      0.456881   755A      0.458931  
     756A      0.459986   757A      0.460904   758A      0.461153  
     759A      0.462125   760A      0.462721   761A      0.463638  
     762A      0.464434   763A      0.464458   764A      0.471719  
     765A      0.471757   766A      0.474344   767A      0.475025  
     768A      0.475161   769A      0.475573   770A      0.475726  
     771A      0.476738   772A      0.478543   773A      0.479941  
     774A      0.480369   775A      0.481157   776A      0.486978  
     777A      0.490148   778A      0.491087   779A      0.491267  
     780A      0.493401   781A      0.494461   782A      0.494682  
     783A      0.496678   784A      0.496762   785A      0.501738  
     786A      0.502757   787A      0.502925   788A      0.506369  
     789A      0.509688   790A      0.512047   791A      0.516075  
     792A      0.516133   793A      0.517989   794A      0.519063  
     795A      0.519319   796A      0.524484   797A      0.524603  
     798A      0.525344   799A      0.529163   800A      0.530269  
     801A      0.531192   802A      0.531473   803A      0.531915  
     804A      0.532886   805A      0.534362   806A      0.535048  
     807A      0.535268   808A      0.536392   809A      0.537615  
     810A      0.539762   811A      0.545007   812A      0.545775  
     813A      0.546230   814A      0.546773   815A      0.546882  
     816A      0.551620   817A      0.552071   818A      0.554249  
     819A      0.555825   820A      0.555960   821A      0.558655  
     822A      0.559669   823A      0.560954   824A      0.561564  
     825A      0.562234   826A      0.568029   827A      0.570956  
     828A      0.574579   829A      0.575599   830A      0.576225  
     831A      0.577142   832A      0.577376   833A      0.578592  
     834A      0.580201   835A      0.587516   836A      0.588298  
     837A      0.589075   838A      0.589211   839A      0.596721  
     840A      0.597301   841A      0.603014   842A      0.609637  
     843A      0.612314   844A      0.612458   845A      0.614302  
     846A      0.616283   847A      0.616366   848A      0.616743  
     849A      0.616797   850A      0.622957   851A      0.625180  
     852A      0.625196   853A      0.630168   854A      0.631620  
     855A      0.636658   856A      0.641278   857A      0.641712  
     858A      0.645183   859A      0.645443   860A      0.646764  
     861A      0.647518   862A      0.648275   863A      0.648561  
     864A      0.649016   865A      0.652258   866A      0.655890  
     867A      0.657181   868A      0.658283   869A      0.658507  
     870A      0.659267   871A      0.664275   872A      0.664609  
     873A      0.666395   874A      0.667623   875A      0.675113  
     876A      0.676633   877A      0.677828   878A      0.685257  
     879A      0.687178   880A      0.689706   881A      0.689876  
     882A      0.696071   883A      0.697272   884A      0.698193  
     885A      0.698579   886A      0.701847   887A      0.702239  
     888A      0.703311   889A      0.703718   890A      0.707488  
     891A      0.707570   892A      0.710694   893A      0.715895  
     894A      0.724618   895A      0.728738   896A      0.738349  
     897A      0.740685   898A      0.742226   899A      0.745280  
     900A      0.745379   901A      0.747506   902A      0.749483  
     903A      0.751322   904A      0.751973   905A      0.754779  
     906A      0.757836   907A      0.758249   908A      0.760402  
     909A      0.760662   910A      0.762970   911A      0.763770  
     912A      0.767467   913A      0.770637   914A      0.771310  
     915A      0.772024   916A      0.773264   917A      0.774399  
     918A      0.775395   919A      0.782027   920A      0.782972  
     921A      0.784064   922A      0.785085   923A      0.787366  
     924A      0.789393   925A      0.790895   926A      0.792069  
     927A      0.792506   928A      0.793309   929A      0.793837  
     930A      0.796097   931A      0.797510   932A      0.799873  
     933A      0.801649   934A      0.803537   935A      0.806979  
     936A      0.810058   937A      0.811464   938A      0.813724  
     939A      0.815801   940A      0.816649   941A      0.817497  
     942A      0.819221   943A      0.819846   944A      0.820659  
     945A      0.823207   946A      0.823268   947A      0.825201  
     948A      0.825810   949A      0.826081   950A      0.826267  
     951A      0.827864   952A      0.831361   953A      0.832435  
     954A      0.834625   955A      0.835706   956A      0.837660  
     957A      0.837935   958A      0.842962   959A      0.843633  
     960A      0.844259   961A      0.846402   962A      0.846783  
     963A      0.847819   964A      0.848976   965A      0.851388  
     966A      0.853496   967A      0.855515   968A      0.856322  
     969A      0.857170   970A      0.860020   971A      0.863819  
     972A      0.863907   973A      0.869045   974A      0.872639  
     975A      0.873151   976A      0.873448   977A      0.874671  
     978A      0.877168   979A      0.878276   980A      0.878637  
     981A      0.878849   982A      0.879288   983A      0.882393  
     984A      0.884282   985A      0.885642   986A      0.887779  
     987A      0.888962   988A      0.889855   989A      0.890469  
     990A      0.890905   991A      0.894522   992A      0.894969  
     993A      0.895299   994A      0.900151   995A      0.901331  
     996A      0.905205   997A      0.906024   998A      0.906878  
     999A      0.907340  1000A      0.907696  1001A      0.907836  
    1002A      0.909568  1003A      0.909986  1004A      0.910273  
    1005A      0.913050  1006A      0.913666  1007A      0.913821  
    1008A      0.914477  1009A      0.915350  1010A      0.922307  
    1011A      0.923135  1012A      0.924942  1013A      0.925285  
    1014A      0.927821  1015A      0.930710  1016A      0.938573  
    1017A      0.939475  1018A      0.939984  1019A      0.945755  
    1020A      0.948647  1021A      0.950336  1022A      0.950855  
    1023A      0.950986  1024A      0.951616  1025A      0.955579  
    1026A      0.957377  1027A      0.957456  1028A      0.958976  
    1029A      0.961484  1030A      0.961672  1031A      0.962311  
    1032A      0.962855  1033A      0.966096  1034A      0.969981  
    1035A      0.971309  1036A      0.971998  1037A      0.972512  
    1038A      0.976002  1039A      0.976165  1040A      0.977616  
    1041A      0.977707  1042A      0.979600  1043A      0.980198  
    1044A      0.986345  1045A      0.987033  1046A      0.987627  
    1047A      0.989859  1048A      0.992472  1049A      0.992763  
    1050A      0.993304  1051A      1.001394  1052A      1.001457  
    1053A      1.003055  1054A      1.003305  1055A      1.003602  
    1056A      1.004149  1057A      1.004451  1058A      1.004903  
    1059A      1.008410  1060A      1.009099  1061A      1.009338  
    1062A      1.010814  1063A      1.010823  1064A      1.013954  
    1065A      1.016835  1066A      1.016891  1067A      1.017279  
    1068A      1.020478  1069A      1.020495  1070A      1.020835  
    1071A      1.023288  1072A      1.023421  1073A      1.023575  
    1074A      1.024153  1075A      1.025089  1076A      1.025509  
    1077A      1.026490  1078A      1.027256  1079A      1.027876  
    1080A      1.028144  1081A      1.028393  1082A      1.028601  
    1083A      1.029072  1084A      1.030028  1085A      1.031474  
    1086A      1.031759  1087A      1.032187  1088A      1.033046  
    1089A      1.033717  1090A      1.034143  1091A      1.034458  
    1092A      1.035380  1093A      1.035785  1094A      1.036215  
    1095A      1.036698  1096A      1.037005  1097A      1.037386  
    1098A      1.037558  1099A      1.037870  1100A      1.037969  
    1101A      1.039610  1102A      1.040389  1103A      1.042149  
    1104A      1.042866  1105A      1.045771  1106A      1.046000  
    1107A      1.046779  1108A      1.053181  1109A      1.054281  
    1110A      1.054421  1111A      1.055595  1112A      1.056544  
    1113A      1.057646  1114A      1.057985  1115A      1.058371  
    1116A      1.060666  1117A      1.066598  1118A      1.067443  
    1119A      1.069408  1120A      1.072079  1121A      1.075525  
    1122A      1.077207  1123A      1.077640  1124A      1.078795  
    1125A      1.084988  1126A      1.085145  1127A      1.086355  
    1128A      1.087924  1129A      1.090162  1130A      1.090400  
    1131A      1.091291  1132A      1.094229  1133A      1.094426  
    1134A      1.095498  1135A      1.098628  1136A      1.098679  
    1137A      1.101347  1138A      1.102569  1139A      1.102950  
    1140A      1.103603  1141A      1.106673  1142A      1.107563  
    1143A      1.108273  1144A      1.108409  1145A      1.110288  
    1146A      1.113855  1147A      1.113909  1148A      1.116717  
    1149A      1.119482  1150A      1.120245  1151A      1.124682  
    1152A      1.126357  1153A      1.127247  1154A      1.132519  
    1155A      1.132630  1156A      1.132759  1157A      1.137498  
    1158A      1.141170  1159A      1.141287  1160A      1.142438  
    1161A      1.144067  1162A      1.146125  1163A      1.148769  
    1164A      1.148990  1165A      1.150105  1166A      1.156664  
    1167A      1.158652  1168A      1.159144  1169A      1.159356  
    1170A      1.161564  1171A      1.161651  1172A      1.162417  
    1173A      1.167730  1174A      1.168934  1175A      1.169739  
    1176A      1.171774  1177A      1.172573  1178A      1.173665  
    1179A      1.175557  1180A      1.178349  1181A      1.179249  
    1182A      1.179994  1183A      1.184255  1184A      1.190014  
    1185A      1.190522  1186A      1.204470  1187A      1.204934  
    1188A      1.204972  1189A      1.208866  1190A      1.209716  
    1191A      1.211437  1192A      1.215883  1193A      1.218671  
    1194A      1.218882  1195A      1.221205  1196A      1.223849  
    1197A      1.224460  1198A      1.225022  1199A      1.227563  
    1200A      1.228803  1201A      1.241379  1202A      1.241499  
    1203A      1.243508  1204A      1.246916  1205A      1.247491  
    1206A      1.250179  1207A      1.251499  1208A      1.251591  
    1209A      1.253066  1210A      1.257901  1211A      1.259661  
    1212A      1.262317  1213A      1.262334  1214A      1.264971  
    1215A      1.265754  1216A      1.267363  1217A      1.268331  
    1218A      1.270349  1219A      1.270970  1220A      1.276348  
    1221A      1.276448  1222A      1.276737  1223A      1.277004  
    1224A      1.278152  1225A      1.279035  1226A      1.283034  
    1227A      1.283126  1228A      1.285535  1229A      1.287456  
    1230A      1.288045  1231A      1.292066  1232A      1.292221  
    1233A      1.296920  1234A      1.297079  1235A      1.298467  
    1236A      1.301700  1237A      1.302503  1238A      1.303672  
    1239A      1.312865  1240A      1.312997  1241A      1.313829  
    1242A      1.314670  1243A      1.317070  1244A      1.319849  
    1245A      1.319959  1246A      1.323603  1247A      1.323908  
    1248A      1.325313  1249A      1.326843  1250A      1.328747  
    1251A      1.329408  1252A      1.331080  1253A      1.343365  
    1254A      1.343742  1255A      1.346758  1256A      1.350461  
    1257A      1.350839  1258A      1.351278  1259A      1.351535  
    1260A      1.352058  1261A      1.356671  1262A      1.361245  
    1263A      1.361549  1264A      1.364357  1265A      1.364492  
    1266A      1.364682  1267A      1.368408  1268A      1.368763  
    1269A      1.369339  1270A      1.370647  1271A      1.376910  
    1272A      1.377066  1273A      1.379555  1274A      1.380467  
    1275A      1.382639  1276A      1.382894  1277A      1.382958  
    1278A      1.383337  1279A      1.386259  1280A      1.386363  
    1281A      1.390008  1282A      1.391074  1283A      1.392715  
    1284A      1.395044  1285A      1.395452  1286A      1.398206  
    1287A      1.404285  1288A      1.405200  1289A      1.405698  
    1290A      1.406924  1291A      1.407747  1292A      1.408825  
    1293A      1.409803  1294A      1.419814  1295A      1.420009  
    1296A      1.424991  1297A      1.425549  1298A      1.426554  
    1299A      1.427606  1300A      1.427722  1301A      1.429161  
    1302A      1.435053  1303A      1.440262  1304A      1.440651  
    1305A      1.441858  1306A      1.447728  1307A      1.453006  
    1308A      1.453034  1309A      1.454852  1310A      1.460015  
    1311A      1.461959  1312A      1.462180  1313A      1.470280  
    1314A      1.472796  1315A      1.473126  1316A      1.485001  
    1317A      1.495831  1318A      1.496578  1319A      1.496804  
    1320A      1.503174  1321A      1.509698  1322A      1.509755  
    1323A      1.510444  1324A      1.523592  1325A      1.539925  
    1326A      1.549679  1327A      1.549721  1328A      1.554932  
    1329A      1.558559  1330A      1.560515  1331A      1.561393  
    1332A      1.561806  1333A      1.563322  1334A      1.564023  
    1335A      1.566872  1336A      1.567357  1337A      1.567672  
    1338A      1.569320  1339A      1.570827  1340A      1.571520  
    1341A      1.571743  1342A      1.572377  1343A      1.573448  
    1344A      1.575684  1345A      1.576058  1346A      1.576763  
    1347A      1.577634  1348A      1.580191  1349A      1.582300  
    1350A      1.583082  1351A      1.587099  1352A      1.587743  
    1353A      1.590912  1354A      1.591121  1355A      1.591724  
    1356A      1.592368  1357A      1.594202  1358A      1.594696  
    1359A      1.595024  1360A      1.596121  1361A      1.596871  
    1362A      1.597015  1363A      1.599461  1364A      1.601662  
    1365A      1.608052  1366A      1.608200  1367A      1.608776  
    1368A      1.611116  1369A      1.612554  1370A      1.612805  
    1371A      1.613053  1372A      1.620818  1373A      1.621053  
    1374A      1.624320  1375A      1.624554  1376A      1.624789  
    1377A      1.625357  1378A      1.625452  1379A      1.625859  
    1380A      1.627504  1381A      1.632817  1382A      1.633456  
    1383A      1.634044  1384A      1.634778  1385A      1.644012  
    1386A      1.645312  1387A      1.649035  1388A      1.652095  
    1389A      1.652384  1390A      1.652619  1391A      1.653726  
    1392A      1.655764  1393A      1.665596  1394A      1.665760  
    1395A      1.666386  1396A      1.667527  1397A      1.670999  
    1398A      1.672340  1399A      1.672376  1400A      1.675474  
    1401A      1.676361  1402A      1.677149  1403A      1.678662  
    1404A      1.678928  1405A      1.680746  1406A      1.681612  
    1407A      1.686877  1408A      1.692723  1409A      1.694004  
    1410A      1.694420  1411A      1.702388  1412A      1.704273  
    1413A      1.704392  1414A      1.706153  1415A      1.706877  
    1416A      1.720019  1417A      1.721691  1418A      1.724653  
    1419A      1.736379  1420A      1.737442  1421A      1.742205  
    1422A      1.743981  1423A      1.744230  1424A      1.752166  
    1425A      1.755347  1426A      1.758853  1427A      1.759085  
    1428A      1.762911  1429A      1.765531  1430A      1.774982  
    1431A      1.778758  1432A      1.779886  1433A      1.783024  
    1434A      1.783756  1435A      1.784212  1436A      1.784902  
    1437A      1.786658  1438A      1.787474  1439A      1.789097  
    1440A      1.789543  1441A      1.792745  1442A      1.793213  
    1443A      1.793490  1444A      1.794194  1445A      1.800510  
    1446A      1.802016  1447A      1.811095  1448A      1.812723  
    1449A      1.812742  1450A      1.815173  1451A      1.816728  
    1452A      1.817007  1453A      1.819451  1454A      1.819581  
    1455A      1.821607  1456A      1.821877  1457A      1.823304  
    1458A      1.826548  1459A      1.827163  1460A      1.829209  
    1461A      1.829416  1462A      1.831781  1463A      1.837687  
    1464A      1.838543  1465A      1.839547  1466A      1.840220  
    1467A      1.840261  1468A      1.840969  1469A      1.841770  
    1470A      1.842652  1471A      1.845759  1472A      1.846428  
    1473A      1.849961  1474A      1.859634  1475A      1.859797  
    1476A      1.861506  1477A      1.861798  1478A      1.862623  
    1479A      1.867200  1480A      1.871504  1481A      1.871945  
    1482A      1.872895  1483A      1.873943  1484A      1.877363  
    1485A      1.878361  1486A      1.878756  1487A      1.880889  
    1488A      1.881477  1489A      1.882212  1490A      1.887969  
    1491A      1.893480  1492A      1.894002  1493A      1.894159  
    1494A      1.894702  1495A      1.895376  1496A      1.896284  
    1497A      1.898555  1498A      1.899896  1499A      1.900177  
    1500A      1.900524  1501A      1.902137  1502A      1.903207  
    1503A      1.907296  1504A      1.909578  1505A      1.910834  
    1506A      1.915115  1507A      1.915590  1508A      1.916589  
    1509A      1.917045  1510A      1.917359  1511A      1.923121  
    1512A      1.924804  1513A      1.926241  1514A      1.927205  
    1515A      1.928301  1516A      1.929685  1517A      1.936819  
    1518A      1.938141  1519A      1.941354  1520A      1.944933  
    1521A      1.947569  1522A      1.947853  1523A      1.949472  
    1524A      1.949883  1525A      1.950283  1526A      1.951330  
    1527A      1.962673  1528A      1.962918  1529A      1.966583  
    1530A      1.967865  1531A      1.968731  1532A      1.972074  
    1533A      1.972360  1534A      1.972458  1535A      1.972967  
    1536A      1.973800  1537A      1.975529  1538A      1.976050  
    1539A      1.976484  1540A      1.977282  1541A      1.980160  
    1542A      1.983973  1543A      1.986890  1544A      1.988890  
    1545A      1.989429  1546A      1.991426  1547A      1.995089  
    1548A      1.997502  1549A      1.998129  1550A      2.003474  
    1551A      2.005820  1552A      2.008210  1553A      2.009309  
    1554A      2.010245  1555A      2.012211  1556A      2.012769  
    1557A      2.014602  1558A      2.015059  1559A      2.016212  
    1560A      2.016648  1561A      2.022591  1562A      2.024782  
    1563A      2.025033  1564A      2.026483  1565A      2.031070  
    1566A      2.033341  1567A      2.035073  1568A      2.036123  
    1569A      2.036666  1570A      2.037821  1571A      2.038562  
    1572A      2.038972  1573A      2.039488  1574A      2.042439  
    1575A      2.044193  1576A      2.044499  1577A      2.045630  
    1578A      2.046263  1579A      2.046997  1580A      2.047749  
    1581A      2.048157  1582A      2.049269  1583A      2.050273  
    1584A      2.051662  1585A      2.052895  1586A      2.053633  
    1587A      2.053661  1588A      2.056950  1589A      2.057410  
    1590A      2.058308  1591A      2.062160  1592A      2.065891  
    1593A      2.067138  1594A      2.067991  1595A      2.068360  
    1596A      2.069245  1597A      2.070231  1598A      2.072196  
    1599A      2.072946  1600A      2.074232  1601A      2.075823  
    1602A      2.081492  1603A      2.082663  1604A      2.082905  
    1605A      2.083217  1606A      2.083620  1607A      2.084269  
    1608A      2.084503  1609A      2.086719  1610A      2.089989  
    1611A      2.090899  1612A      2.091215  1613A      2.092483  
    1614A      2.092647  1615A      2.098753  1616A      2.098839  
    1617A      2.100060  1618A      2.100897  1619A      2.101207  
    1620A      2.110428  1621A      2.110944  1622A      2.112893  
    1623A      2.113534  1624A      2.114328  1625A      2.115536  
    1626A      2.115993  1627A      2.116482  1628A      2.119625  
    1629A      2.119897  1630A      2.127598  1631A      2.127839  
    1632A      2.135954  1633A      2.136891  1634A      2.137897  
    1635A      2.138835  1636A      2.141765  1637A      2.144569  
    1638A      2.144760  1639A      2.146101  1640A      2.146485  
    1641A      2.146955  1642A      2.148296  1643A      2.150487  
    1644A      2.152542  1645A      2.153650  1646A      2.155378  
    1647A      2.155847  1648A      2.157212  1649A      2.157733  
    1650A      2.159303  1651A      2.160567  1652A      2.162273  
    1653A      2.162882  1654A      2.165466  1655A      2.170086  
    1656A      2.170365  1657A      2.176214  1658A      2.179423  
    1659A      2.179672  1660A      2.180482  1661A      2.180514  
    1662A      2.181340  1663A      2.185261  1664A      2.188968  
    1665A      2.189529  1666A      2.190629  1667A      2.193967  
    1668A      2.194656  1669A      2.194973  1670A      2.198072  
    1671A      2.203047  1672A      2.203935  1673A      2.204887  
    1674A      2.205573  1675A      2.205625  1676A      2.218000  
    1677A      2.219214  1678A      2.220519  1679A      2.222092  
    1680A      2.223541  1681A      2.227262  1682A      2.229458  
    1683A      2.231163  1684A      2.239560  1685A      2.240896  
    1686A      2.247103  1687A      2.248298  1688A      2.252606  
    1689A      2.252819  1690A      2.253360  1691A      2.260442  
    1692A      2.260954  1693A      2.265653  1694A      2.269406  
    1695A      2.280267  1696A      2.281362  1697A      2.281619  
    1698A      2.283639  1699A      2.285686  1700A      2.287271  
    1701A      2.287637  1702A      2.288881  1703A      2.290026  
    1704A      2.291364  1705A      2.295408  1706A      2.297762  
    1707A      2.298528  1708A      2.298771  1709A      2.299824  
    1710A      2.301152  1711A      2.301973  1712A      2.302643  
    1713A      2.304740  1714A      2.305170  1715A      2.323061  
    1716A      2.325792  1717A      2.327499  1718A      2.328114  
    1719A      2.338348  1720A      2.340457  1721A      2.344207  
    1722A      2.345973  1723A      2.347560  1724A      2.348562  
    1725A      2.352713  1726A      2.374822  1727A      2.375971  
    1728A      2.379593  1729A      2.384130  1730A      2.387828  
    1731A      2.397685  1732A      2.399478  1733A      2.407976  
    1734A      2.409291  1735A      2.420868  1736A      2.420958  
    1737A      2.424305  1738A      2.424572  1739A      2.428654  
    1740A      2.428928  1741A      2.445413  1742A      2.448039  
    1743A      2.448409  1744A      2.450299  1745A      2.459288  
    1746A      2.462828  1747A      2.463296  1748A      2.464044  
    1749A      2.468450  1750A      2.473287  1751A      2.495323  
    1752A      2.495479  1753A      2.496643  1754A      2.498762  
    1755A      2.499363  1756A      2.500833  1757A      2.502298  
    1758A      2.504245  1759A      2.504942  1760A      2.506229  
    1761A      2.507827  1762A      2.512276  1763A      2.512443  
    1764A      2.520524  1765A      2.527639  1766A      2.528856  
    1767A      2.537540  1768A      2.541197  1769A      2.541734  
    1770A      2.541847  1771A      2.542994  1772A      2.546149  
    1773A      2.546582  1774A      2.549821  1775A      2.551430  
    1776A      2.558136  1777A      2.558283  1778A      2.569335  
    1779A      2.569552  1780A      2.569905  1781A      2.570433  
    1782A      2.573543  1783A      2.573937  1784A      2.575827  
    1785A      2.588973  1786A      2.596905  1787A      2.597871  
    1788A      2.600148  1789A      2.601691  1790A      2.604106  
    1791A      2.604807  1792A      2.605744  1793A      2.607831  
    1794A      2.609805  1795A      2.612831  1796A      2.613053  
    1797A      2.621740  1798A      2.622130  1799A      2.624638  
    1800A      2.627365  1801A      2.628248  1802A      2.629433  
    1803A      2.634042  1804A      2.634792  1805A      2.638396  
    1806A      2.640761  1807A      2.641828  1808A      2.643299  
    1809A      2.647427  1810A      2.647610  1811A      2.647866  
    1812A      2.648874  1813A      2.652347  1814A      2.653665  
    1815A      2.660135  1816A      2.663489  1817A      2.675292  
    1818A      2.677635  1819A      2.680266  1820A      2.687010  
    1821A      2.687063  1822A      2.687585  1823A      2.688907  
    1824A      2.689173  1825A      2.690200  1826A      2.708305  
    1827A      2.709090  1828A      2.715988  1829A      2.716340  
    1830A      2.727299  1831A      2.731262  1832A      2.735426  
    1833A      2.735886  1834A      2.739981  1835A      2.750530  
    1836A      2.754669  1837A      2.755702  1838A      2.756938  
    1839A      2.758061  1840A      2.758123  1841A      2.763747  
    1842A      2.766097  1843A      2.770344  1844A      2.770910  
    1845A      2.771776  1846A      2.772005  1847A      2.783476  
    1848A      2.783761  1849A      2.789272  1850A      2.796011  
    1851A      2.796278  1852A      2.797711  1853A      2.798137  
    1854A      2.801434  1855A      2.815440  1856A      2.821165  
    1857A      2.821338  1858A      2.826808  1859A      2.827594  
    1860A      2.830354  1861A      2.851115  1862A      2.852018  
    1863A      2.867613  1864A      2.874911  1865A      2.875031  
    1866A      2.884821  1867A      2.886821  1868A      2.891727  
    1869A      2.891802  1870A      2.919764  1871A      2.920191  
    1872A      2.921849  1873A      2.922338  1874A      2.932990  
    1875A      2.948401  1876A      2.949083  1877A      2.978781  
    1878A      2.985705  1879A      2.986202  1880A      2.992242  
    1881A      2.995577  1882A      3.003197  1883A      3.003867  
    1884A      3.005346  1885A      3.013629  1886A      3.013684  
    1887A      3.021154  1888A      3.029282  1889A      3.048427  
    1890A      3.065598  1891A      3.067332  1892A      3.070080  
    1893A      3.070218  1894A      3.078737  1895A      3.083082  
    1896A      3.083765  1897A      3.088884  1898A      3.090406  
    1899A      3.098854  1900A      3.100022  1901A      3.104448  
    1902A      3.104804  1903A      3.106376  1904A      3.107180  
    1905A      3.110716  1906A      3.119524  1907A      3.123527  
    1908A      3.130308  1909A      3.132156  1910A      3.132266  
    1911A      3.150223  1912A      3.151281  1913A      3.177624  
    1914A      3.209919  1915A      3.216629  1916A      3.216859  
    1917A      3.217516  1918A      3.218367  1919A      3.220649  
    1920A      3.224708  1921A      3.227815  1922A      3.231596  
    1923A      3.231975  1924A      3.248941  1925A      3.249725  
    1926A      3.250422  1927A      3.258689  1928A      3.316774  
    1929A      3.317884  1930A      3.325379  1931A      3.370999  
    1932A      3.385228  1933A      3.387469  1934A      3.392688  
    1935A      3.400003  1936A      3.403233  1937A      3.415611  
    1938A      3.419900  1939A      3.420706  1940A      3.426368  
    1941A      3.429224  1942A      3.436207  1943A      3.441182  
    1944A      3.442180  1945A      3.448763  1946A      3.464715  
    1947A      3.495537  1948A      3.530003  1949A      3.530174  
    1950A      3.531783  1951A      3.539237  1952A      3.546232  
    1953A      3.591398  1954A      3.593035  1955A      3.620315  
    1956A      3.622931  1957A      3.660895  1958A      3.702770  
    1959A      3.705570  1960A      3.706501  1961A      3.718455  
    1962A      3.734353  1963A      3.735275  1964A      3.798398  
    1965A      3.799633  1966A      3.827954  1967A      3.830995  
    1968A      3.860725  1969A      3.868751  1970A      3.893170  
    1971A      3.895524  1972A      3.904464  1973A      3.905494  
    1974A      3.914196  1975A      3.919387  1976A      3.926169  
    1977A      3.980241  1978A      3.982924  1979A      4.025803  
    1980A      4.183256  1981A      4.256136  1982A      4.347053  

    Final Occupation by Irrep:
              A 
    DOCC [   326 ]
    NA   [   326 ]
    NB   [   326 ]

  @DF-RHF Final Energy: -3953.64166247250432

   => Energetics <=

    Nuclear Repulsion Energy =          17360.0510073374098283
    One-Electron Energy =              -39936.8301119607713190
    Two-Electron Energy =               18623.1374421508589876
    Total Energy =                      -3953.6416624725025031

Computation Completed


Properties will be evaluated at   0.000000,   0.000000,   0.000000 [a0]

Properties computed using the SCF density matrix


 Multipole Moments:

 ------------------------------------------------------------------------------------
     Multipole            Electronic (a.u.)      Nuclear  (a.u.)        Total (a.u.)
 ------------------------------------------------------------------------------------

 L = 1.  Multiply by 2.5417464519 to convert [e a0] to [Debye]
 Dipole X            :         -0.0020772            0.0004804           -0.0015967
 Dipole Y            :         -6.6126967            8.7122315            2.0995348
 Dipole Z            :         41.7178786          -57.6311394          -15.9132608
 Magnitude           :                                                   16.0511657

 ------------------------------------------------------------------------------------

*** tstop() called on n2cn1128 at Sat Jan 27 01:53:28 2024
Module time:
	user time   =   26181.28 seconds =     436.35 minutes
	system time =    1982.75 seconds =      33.05 minutes
	total time  =       5800 seconds =      96.67 minutes
Total time:
	user time   =   26181.28 seconds =     436.35 minutes
	system time =    1982.75 seconds =      33.05 minutes
	total time  =       5800 seconds =      96.67 minutes

  //>>>>>>>>>>>>>>>>>>>>>>>>>>>>>>>>>>>//
  //            Monomer A HF           //
  //<<<<<<<<<<<<<<<<<<<<<<<<<<<<<<<<<<<//

   => Libint2 <=

    Primary   basis highest AM E, G, H:  5, 4, 3
    Auxiliary basis highest AM E, G, H:  6, 5, 4
    Onebody   basis highest AM E, G, H:  6, 5, 4
    Solid Harmonics ordering:            gaussian

*** tstart() called on n2cn1128
*** at Sat Jan 27 01:53:28 2024

   => Loading Basis Set <=

    Name: JUN-CC-PVDZ
    Role: ORBITAL
    Keyword: BASIS
    atoms 1-2, 4-5, 10, 17-34, 41-53, 56-70, 73-89, 92-104, 109-119, 122-130 entry C          line   164 file /opt/software/pc2/EB-SW/software/PSI4/1.9-foss-2022a/share/psi4/basis/jun-cc-pvdz.gbs 
    atoms 3, 6                                                               entry N          line   198 file /opt/software/pc2/EB-SW/software/PSI4/1.9-foss-2022a/share/psi4/basis/jun-cc-pvdz.gbs 
    atoms 7-9, 11-16, 35-40, 54-55, 71-72, 90-91, 105-108, 120-121, 131-136  entry H          line    36 file /opt/software/pc2/EB-SW/software/PSI4/1.9-foss-2022a/share/psi4/basis/jun-cc-pvdz.gbs 


         ---------------------------------------------------------
                                   SCF
               by Justin Turney, Rob Parrish, Andy Simmonett
                          and Daniel G. A. Smith
                              RHF Reference
                       16 Threads,  61035 MiB Core
         ---------------------------------------------------------

  ==> Geometry <==

    Molecular point group: c1
    Full point group: C1

    Geometry (in Angstrom), charge = 1, multiplicity = 1:

       Center              X                  Y                   Z               Mass       
    ------------   -----------------  -----------------  -----------------  -----------------
         C            0.680062820275     1.308604348936   -10.268760477062    12.000000000000
         C           -0.680508179725     1.310632348936   -10.268376477062    12.000000000000
         N           -1.085639179725     1.311630348936    -8.950052477062    14.003074004430
[...]
    1579A      2.159753  1580A      2.160080  1581A      2.162413  
    1582A      2.162741  1583A      2.171087  1584A      2.171358  
    1585A      2.179498  1586A      2.180751  1587A      2.180865  
    1588A      2.182219  1589A      2.183940  1590A      2.188245  
    1591A      2.188569  1592A      2.190422  1593A      2.191055  
    1594A      2.191423  1595A      2.192526  1596A      2.194919  
    1597A      2.196628  1598A      2.197802  1599A      2.199965  
    1600A      2.200277  1601A      2.200710  1602A      2.201226  
    1603A      2.202897  1604A      2.204079  1605A      2.205450  
    1606A      2.208987  1607A      2.211008  1608A      2.213598  
    1609A      2.213873  1610A      2.220143  1611A      2.222088  
    1612A      2.222678  1613A      2.224034  1614A      2.224671  
    1615A      2.224735  1616A      2.228760  1617A      2.231548  
    1618A      2.231998  1619A      2.232287  1620A      2.232968  
    1621A      2.238633  1622A      2.238788  1623A      2.239401  
    1624A      2.241329  1625A      2.247368  1626A      2.247716  
    1627A      2.248162  1628A      2.248585  1629A      2.260258  
    1630A      2.261426  1631A      2.263283  1632A      2.264830  
    1633A      2.266224  1634A      2.266501  1635A      2.269484  
    1636A      2.272590  1637A      2.275185  1638A      2.282773  
    1639A      2.284239  1640A      2.290131  1641A      2.290967  
    1642A      2.294811  1643A      2.296251  1644A      2.296757  
    1645A      2.303700  1646A      2.304114  1647A      2.309017  
    1648A      2.310165  1649A      2.314091  1650A      2.324403  
    1651A      2.324844  1652A      2.325170  1653A      2.327063  
    1654A      2.329354  1655A      2.330540  1656A      2.331059  
    1657A      2.332904  1658A      2.334108  1659A      2.334985  
    1660A      2.335084  1661A      2.336302  1662A      2.339598  
    1663A      2.341349  1664A      2.342140  1665A      2.342327  
    1666A      2.344769  1667A      2.345776  1668A      2.346294  
    1669A      2.349052  1670A      2.349399  1671A      2.367876  
    1672A      2.372189  1673A      2.372781  1674A      2.382215  
    1675A      2.383569  1676A      2.387918  1677A      2.390119  
    1678A      2.391574  1679A      2.392690  1680A      2.396884  
    1681A      2.418289  1682A      2.419454  1683A      2.423369  
    1684A      2.427500  1685A      2.431793  1686A      2.439758  
    1687A      2.441256  1688A      2.442989  1689A      2.445212  
    1690A      2.451914  1691A      2.453061  1692A      2.453160  
    1693A      2.464272  1694A      2.464315  1695A      2.467318  
    1696A      2.467695  1697A      2.467993  1698A      2.471901  
    1699A      2.472162  1700A      2.474190  1701A      2.490937  
    1702A      2.491291  1703A      2.494266  1704A      2.502349  
    1705A      2.503781  1706A      2.506149  1707A      2.506842  
    1708A      2.511435  1709A      2.516157  1710A      2.539048  
    1711A      2.539126  1712A      2.539962  1713A      2.542005  
    1714A      2.542622  1715A      2.544751  1716A      2.547448  
    1717A      2.548359  1718A      2.549096  1719A      2.551000  
    1720A      2.556516  1721A      2.556670  1722A      2.564193  
    1723A      2.571079  1724A      2.571460  1725A      2.574010  
    1726A      2.579958  1727A      2.583631  1728A      2.584159  
    1729A      2.584998  1730A      2.586214  1731A      2.588431  
    1732A      2.588841  1733A      2.593199  1734A      2.593490  
    1735A      2.601308  1736A      2.601412  1737A      2.612600  
    1738A      2.612824  1739A      2.613165  1740A      2.613659  
    1741A      2.616764  1742A      2.617170  1743A      2.630849  
    1744A      2.632554  1745A      2.640482  1746A      2.641335  
    1747A      2.642171  1748A      2.643696  1749A      2.645376  
    1750A      2.647249  1751A      2.648526  1752A      2.648604  
    1753A      2.649169  1754A      2.652717  1755A      2.655646  
    1756A      2.656033  1757A      2.656798  1758A      2.665956  
    1759A      2.666037  1760A      2.667528  1761A      2.670350  
    1762A      2.670496  1763A      2.671690  1764A      2.673544  
    1765A      2.677016  1766A      2.677506  1767A      2.684208  
    1768A      2.685454  1769A      2.686985  1770A      2.691038  
    1771A      2.691191  1772A      2.691532  1773A      2.692288  
    1774A      2.696019  1775A      2.697245  1776A      2.703927  
    1777A      2.720608  1778A      2.730610  1779A      2.730673  
    1780A      2.730832  1781A      2.731155  1782A      2.731773  
    1783A      2.734604  1784A      2.745905  1785A      2.752423  
    1786A      2.760470  1787A      2.760835  1788A      2.765699  
    1789A      2.772062  1790A      2.775736  1791A      2.779405  
    1792A      2.779855  1793A      2.798998  1794A      2.799851  
    1795A      2.801329  1796A      2.801854  1797A      2.802163  
    1798A      2.802208  1799A      2.808280  1800A      2.810785  
    1801A      2.814701  1802A      2.815142  1803A      2.815494  
    1804A      2.815877  1805A      2.827906  1806A      2.828145  
    1807A      2.833568  1808A      2.839993  1809A      2.840117  
    1810A      2.841508  1811A      2.841855  1812A      2.845004  
    1813A      2.859569  1814A      2.865141  1815A      2.865313  
    1816A      2.870248  1817A      2.871064  1818A      2.871830  
    1819A      2.874082  1820A      2.887948  1821A      2.895894  
    1822A      2.896780  1823A      2.906748  1824A      2.912374  
    1825A      2.917581  1826A      2.917718  1827A      2.921626  
    1828A      2.927401  1829A      2.929483  1830A      2.934663  
    1831A      2.934700  1832A      2.943325  1833A      2.962962  
    1834A      2.964716  1835A      2.965206  1836A      2.968213  
    1837A      2.976084  1838A      2.990975  1839A      2.991587  
    1840A      2.992416  1841A      3.003266  1842A      3.029322  
    1843A      3.029845  1844A      3.035291  1845A      3.035407  
    1846A      3.038497  1847A      3.046763  1848A      3.047386  
    1849A      3.047955  1850A      3.057469  1851A      3.057521  
    1852A      3.063080  1853A      3.072824  1854A      3.108431  
    1855A      3.112738  1856A      3.113048  1857A      3.122181  
    1858A      3.126764  1859A      3.127360  1860A      3.132308  
    1861A      3.133896  1862A      3.139241  1863A      3.141842  
    1864A      3.142923  1865A      3.148067  1866A      3.148543  
    1867A      3.149340  1868A      3.149984  1869A      3.153446  
    1870A      3.162077  1871A      3.167864  1872A      3.173112  
    1873A      3.174895  1874A      3.175004  1875A      3.193041  
    1876A      3.194067  1877A      3.220198  1878A      3.253209  
    1879A      3.259341  1880A      3.260724  1881A      3.261277  
    1882A      3.261888  1883A      3.264172  1884A      3.268022  
    1885A      3.270986  1886A      3.274918  1887A      3.275247  
    1888A      3.283934  1889A      3.292530  1890A      3.293431  
    1891A      3.294072  1892A      3.301996  1893A      3.302257  
    1894A      3.315202  1895A      3.360906  1896A      3.361990  
    1897A      3.369538  1898A      3.390251  1899A      3.415251  
    1900A      3.429450  1901A      3.431940  1902A      3.438373  
    1903A      3.445017  1904A      3.448167  1905A      3.460474  
    1906A      3.464300  1907A      3.464985  1908A      3.470680  
    1909A      3.473612  1910A      3.480516  1911A      3.485889  
    1912A      3.493261  1913A      3.509078  1914A      3.521403  
    1915A      3.540158  1916A      3.564511  1917A      3.574248  
    1918A      3.575927  1919A      3.583332  1920A      3.589797  
    1921A      3.635557  1922A      3.637236  1923A      3.642643  
    1924A      3.664505  1925A      3.666622  1926A      3.704909  
    1927A      3.747262  1928A      3.749099  1929A      3.750302  
    1930A      3.755457  1931A      3.763109  1932A      3.778573  
    1933A      3.779024  1934A      3.813572  1935A      3.841825  
    1936A      3.843245  1937A      3.865753  1938A      3.871425  
    1939A      3.874564  1940A      3.904517  1941A      3.912791  
    1942A      3.937833  1943A      3.940317  1944A      3.948174  
    1945A      3.949104  1946A      3.955944  1947A      3.958372  
    1948A      3.964290  1949A      3.970663  1950A      4.024586  
    1951A      4.027419  1952A      4.070680  1953A      4.202478  
    1954A      4.205499  1955A      4.228694  1956A      4.301811  
    1957A      4.336692  1958A      4.357550  1959A      4.392603  
    1960A      4.479917  1961A      4.731974  1962A      4.769947  
    1963A      4.826293  1964A      4.843514  1965A      4.933144  
    1966A      5.046677  1967A      5.054034  1968A      5.063353  
    1969A      5.107960  1970A      5.123708  1971A      5.388550  
    1972A      5.418403  1973A      5.729583  1974A      5.749077  
    1975A      6.064955  1976A     18.196603  1977A     18.450479  
    1978A     18.468010  1979A     18.555859  1980A     18.828613  
    1981A     25.336621  1982A     25.372603  

    Final Occupation by Irrep:
              A 
    DOCC [   300 ]
    NA   [   300 ]
    NB   [   300 ]

  @DF-RHF Final Energy: -3650.33781531525665

   => Energetics <=

    Nuclear Repulsion Energy =          15611.4211649754306563
    One-Electron Energy =              -36072.0812977477762615
    Two-Electron Energy =               16810.3223174570921401
    Total Energy =                      -3650.3378153152552841

Computation Completed


Properties will be evaluated at   0.000000,   0.000000,   0.000000 [a0]

Properties computed using the SCF density matrix


 Multipole Moments:

 ------------------------------------------------------------------------------------
     Multipole            Electronic (a.u.)      Nuclear  (a.u.)        Total (a.u.)
 ------------------------------------------------------------------------------------

 L = 1.  Multiply by 2.5417464519 to convert [e a0] to [Debye]
 Dipole X            :         -0.0010982            0.0002112           -0.0008870
 Dipole Y            :        123.2128900         -123.2131634           -0.0002734
 Dipole Z            :       -847.1699805          847.1697187           -0.0002618
 Magnitude           :                                                    0.0009644

 ------------------------------------------------------------------------------------

*** tstop() called on n2cn1128 at Sat Jan 27 03:20:27 2024
Module time:
	user time   =   19845.13 seconds =     330.75 minutes
	system time =    2426.40 seconds =      40.44 minutes
	total time  =       3400 seconds =      56.67 minutes
Total time:
	user time   =   51850.43 seconds =     864.17 minutes
	system time =    5082.84 seconds =      84.71 minutes
	total time  =      11019 seconds =     183.65 minutes
  Constructing Basis Sets for SAPT...

   => Loading Basis Set <=

    Name: (JUN-CC-PVDZ AUX)
    Role: RIFIT
    Keyword: DF_BASIS_SAPT
    atoms 1-2, 4-5, 10, 17-34, 41-53, 56-70, 73-89, 92-104, 109-119, 122-130 entry C          line   100 file /opt/software/pc2/EB-SW/software/PSI4/1.9-foss-2022a/share/psi4/basis/jun-cc-pvdz-ri.gbs 
    atoms 3, 6                                                               entry N          line   144 file /opt/software/pc2/EB-SW/software/PSI4/1.9-foss-2022a/share/psi4/basis/jun-cc-pvdz-ri.gbs 
    atoms 7-9, 11-16, 35-40, 54-55, 71-72, 90-91, 105-108, 120-121, 131-136  entry H          line    30 file /opt/software/pc2/EB-SW/software/PSI4/1.9-foss-2022a/share/psi4/basis/jun-cc-pvdz-ri.gbs 

   => Loading Basis Set <=

    Name: (JUN-CC-PVDZ AUX)
    Role: JKFIT
    Keyword: DF_BASIS_ELST
    atoms 1-2, 4-5, 10, 17-34, 41-53, 56-70, 73-89, 92-104, 109-119, 122-130 entry C          line   146 file /opt/software/pc2/EB-SW/software/PSI4/1.9-foss-2022a/share/psi4/basis/jun-cc-pvdz-jkfit.gbs 
    atoms 3, 6                                                               entry N          line   202 file /opt/software/pc2/EB-SW/software/PSI4/1.9-foss-2022a/share/psi4/basis/jun-cc-pvdz-jkfit.gbs 
    atoms 7-9, 11-16, 35-40, 54-55, 71-72, 90-91, 105-108, 120-121, 131-136  entry H          line    70 file /opt/software/pc2/EB-SW/software/PSI4/1.9-foss-2022a/share/psi4/basis/jun-cc-pvdz-jkfit.gbs 


  //>>>>>>>>>>>>>>>>>>>>>>>>>>>>>>>>>>>//
  //               SSAPT0              //
  //<<<<<<<<<<<<<<<<<<<<<<<<<<<<<<<<<<<//


*** tstart() called on n2cn1128
*** at Sat Jan 27 03:20:29 2024

        SAPT0  
    Ed Hohenstein
     6 June 2009

      Orbital Information
  --------------------------
    NSO        =      2019
    NMO        =      1982
    NRI        =      7157
    NRI (Elst) =      8896
    NOCC A     =        26
    NOCC B     =       300
    FOCC A     =         7
    FOCC B     =        96
    NVIR A     =      1956
    NVIR B     =      1682

    Elst10,r            =    -0.005434838449 [Eh]
    Exch10              =    -0.000000027610 [Eh]
    Exch10 (S^2)        =    -0.000000027610 [Eh]

    Iter     Energy [mEh]          dE [mEh]         Residual      Time [s]
       1      -0.00664068       0.006640681       0.772485764           275
       2      -0.00628378      -0.000356901       0.200414522           538
       3      -0.00691135       0.000627573       0.055367564           808
       4      -0.00694994       0.000038592       0.025294360          1242
       5      -0.00692129      -0.000028653       0.007983583          1611
       6      -0.00692085      -0.000000441       0.002484736          1897
       7      -0.00692285       0.000001999       0.000807541          2163
       8      -0.00692322       0.000000374       0.000217993          2383
       9      -0.00692314      -0.000000080       0.000077509          2578
      10      -0.00692310      -0.000000045       0.000020810          2769
      11      -0.00692310       0.000000003       0.000005770          2983
      12      -0.00692310       0.000000003       0.000001836          3178
      13      -0.00692310       0.000000000       0.000000603          3356

    CHF Iterations converged


    Iter     Energy [mEh]          dE [mEh]         Residual      Time [s]
       1      -1.83566610       1.835666104      23.329075612           197
       2      -1.20232430      -0.633341806       2.631962650           379
       3      -1.20112255      -0.001201749       0.971404260           581
       4      -1.22499064       0.023868090       0.302781466           800
       5      -1.22778493       0.002794291       0.119299555          1013
       6      -1.22720859      -0.000576343       0.080430591          1226
       7      -1.22651602      -0.000692566       0.033065587          1460
       8      -1.22660923       0.000093214       0.015402244          1673
       9      -1.22674120       0.000131970       0.006724965          1866
      10      -1.22671883      -0.000022373       0.005799672          2088
      11      -1.22669441      -0.000024424       0.003412383          2325
      12      -1.22669766       0.000003256       0.002202639          2519
      13      -1.22670625       0.000008585       0.001012937          2766
      14      -1.22670700       0.000000749       0.000507340          2987
      15      -1.22670542      -0.000001579       0.000289818          3212
      16      -1.22670445      -0.000000969       0.000108530          3451
      17      -1.22670497       0.000000524       0.000050180          3684
      18      -1.22670512       0.000000151       0.000025187          3935
      19      -1.22670504      -0.000000084       0.000017866          4177
      20      -1.22670499      -0.000000048       0.000007800          4425
      21      -1.22670501       0.000000017       0.000003956          4704
      22      -1.22670502       0.000000011       0.000001570          4918
      23      -1.22670502      -0.000000000       0.000000522          5153

    CHF Iterations converged

    Ind20,r (A<-B)      =    -0.000006923105 [Eh]
    Ind20,r (B<-A)      =    -0.001226705017 [Eh]
    Ind20,r             =    -0.001233628122 [Eh]
    Exch-Ind20,r (A<-B) =     0.000000001861 [Eh]
    Exch-Ind20,r (B<-A) =     0.000000008206 [Eh]
    Exch-Ind20,r        =     0.000000010067 [Eh]
    Disp20              =    -0.000354686757 [Eh]
    Disp20 (SS)         =    -0.000177343378 [Eh]
    Disp20 (OS)         =    -0.000177343378 [Eh]
    Exch-Disp20         =     0.000000004513 [Eh]
    Exch-Disp20 (SS)    =     0.000000003371 [Eh]
    Exch-Disp20 (OS)    =     0.000000001142 [Eh]

    SAPT Results 
  --------------------------------------------------------------------------------------------------------
    Electrostatics                 -5.43483845 [mEh]      -3.41041262 [kcal/mol]     -14.26916638 [kJ/mol]
      Elst10,r                     -5.43483845 [mEh]      -3.41041262 [kcal/mol]     -14.26916638 [kJ/mol]

    Exchange                       -0.00002761 [mEh]      -0.00001733 [kcal/mol]      -0.00007249 [kJ/mol]
      Exch10                       -0.00002761 [mEh]      -0.00001733 [kcal/mol]      -0.00007249 [kJ/mol]
      Exch10(S^2)                  -0.00002761 [mEh]      -0.00001733 [kcal/mol]      -0.00007249 [kJ/mol]

    Induction                      -1.24283620 [mEh]      -0.77989149 [kcal/mol]      -3.26306600 [kJ/mol]
      Ind20,r                      -1.23362812 [mEh]      -0.77411333 [kcal/mol]      -3.23889019 [kJ/mol]
      Exch-Ind20,r                  0.00001007 [mEh]       0.00000632 [kcal/mol]       0.00002643 [kJ/mol]
      delta HF,r (2)               -0.00921815 [mEh]      -0.00578447 [kcal/mol]      -0.02420224 [kJ/mol]

    Dispersion                     -0.35468224 [mEh]      -0.22256647 [kcal/mol]      -0.93121810 [kJ/mol]
      Disp20                       -0.35468676 [mEh]      -0.22256930 [kcal/mol]      -0.93122995 [kJ/mol]
      Exch-Disp20                   0.00000451 [mEh]       0.00000283 [kcal/mol]       0.00001185 [kJ/mol]
      Disp20 (SS)                  -0.17734338 [mEh]      -0.11128465 [kcal/mol]      -0.46561498 [kJ/mol]
      Disp20 (OS)                  -0.17734338 [mEh]      -0.11128465 [kcal/mol]      -0.46561498 [kJ/mol]
      Exch-Disp20 (SS)              0.00000337 [mEh]       0.00000212 [kcal/mol]       0.00000885 [kJ/mol]
      Exch-Disp20 (OS)              0.00000114 [mEh]       0.00000072 [kcal/mol]       0.00000300 [kJ/mol]

  Total HF                         -6.67770226 [mEh]      -4.19032143 [kcal/mol]     -17.53230487 [kJ/mol]
  Total SAPT0                      -7.03238450 [mEh]      -4.41288790 [kcal/mol]     -18.46352297 [kJ/mol]

  Special recipe for scaled SAPT0 (see Manual):
    Electrostatics sSAPT0          -5.43483845 [mEh]      -3.41041262 [kcal/mol]     -14.26916638 [kJ/mol]
    Exchange sSAPT0                -0.00002761 [mEh]      -0.00001733 [kcal/mol]      -0.00007249 [kJ/mol]
    Induction sSAPT0               -1.24283620 [mEh]      -0.77989149 [kcal/mol]      -3.26306600 [kJ/mol]
    Dispersion sSAPT0              -0.35468224 [mEh]      -0.22256647 [kcal/mol]      -0.93121810 [kJ/mol]
  Total sSAPT0                     -7.03238450 [mEh]      -4.41288790 [kcal/mol]     -18.46352297 [kJ/mol]
  --------------------------------------------------------------------------------------------------------

*** tstop() called on n2cn1128 at Sat Jan 27 09:42:15 2024
Module time:
	user time   =   73096.82 seconds =    1218.28 minutes
	system time =    4113.77 seconds =      68.56 minutes
	total time  =      22906 seconds =     381.77 minutes
Total time:
	user time   =  124948.78 seconds =    2082.48 minutes
	system time =    9196.61 seconds =     153.28 minutes
	total time  =      33927 seconds =     565.45 minutes

    Psi4 stopped on: Saturday, 27 January 2024 09:42AM
    Psi4 wall time for execution: 9:25:28.33

*** Psi4 exiting successfully. Buy a developer a beer!
