
    -----------------------------------------------------------------------
          Psi4: An Open-Source Ab Initio Electronic Structure Package
                               Psi4 1.9 release

                         Git: Rev {} zzzzzzz 


    D. G. A. Smith, L. A. Burns, A. C. Simmonett, R. M. Parrish,
    M. C. Schieber, R. Galvelis, P. Kraus, H. Kruse, R. Di Remigio,
    A. Alenaizan, A. M. James, S. Lehtola, J. P. Misiewicz, M. Scheurer,
    R. A. Shaw, J. B. Schriber, Y. Xie, Z. L. Glick, D. A. Sirianni,
    J. S. O'Brien, J. M. Waldrop, A. Kumar, E. G. Hohenstein,
    B. P. Pritchard, B. R. Brooks, H. F. Schaefer III, A. Yu. Sokolov,
    K. Patkowski, A. E. DePrince III, U. Bozkaya, R. A. King,
    F. A. Evangelista, J. M. Turney, T. D. Crawford, C. D. Sherrill,
    J. Chem. Phys. 152(18) 184108 (2020). https://doi.org/10.1063/5.0006002

                            Additional Code Authors
    E. T. Seidl, C. L. Janssen, E. F. Valeev, M. L. Leininger,
    J. F. Gonthier, R. M. Richard, H. R. McAlexander, M. Saitow, X. Wang,
    P. Verma, M. H. Lechner, A. Jiang, S. Behnle, A. G. Heide,
    M. F. Herbst, and D. L. Poole

             Previous Authors, Complete List of Code Contributors,
                       and Citations for Specific Modules
    https://github.com/psi4/psi4/blob/master/codemeta.json
    https://github.com/psi4/psi4/graphs/contributors
    http://psicode.org/psi4manual/master/introduction.html#citing-psifour

    -----------------------------------------------------------------------


    Psi4 started on: Saturday, 27 January 2024 12:13AM

    Process ID: 201791
    Host:       n2cn0577
    PSIDATADIR: /opt/software/pc2/EB-SW/software/PSI4/1.9-foss-2022a/share/psi4
    Memory:     500.0 MiB
    Threads:    16
    
  ==> Input File <==

--------------------------------------------------------------------------
memory 64 GB # how much memory is available ! Depends on the nodes/cores !

molecule dimer {
# monomer A
+1 1    # Charge and multiplicity
C  0.680067 1.417258 -5.415929
C -0.680504 1.419286 -5.415545
N -1.085635 1.420284 -4.097221
C  0.000108 1.423560 -3.315820
C -2.477365 1.469690 -3.629242
N  1.085222 1.420284 -4.097221
H  1.385146 1.409430 -6.233368
H -1.385302 1.419096 -6.233214
H -0.000009 1.425307 -2.234731
C  2.478117 1.403392 -3.632123
H  2.490592 1.430737 -2.541870
H  2.967028 0.489946 -3.979299
H  3.001428 2.278875 -4.023595
H -2.857359 2.491761 -3.709201
H -3.082679 0.799606 -4.242306
H -2.518128 1.142706 -2.589294
--
# monomer B
0 1     # Charge and multiplicity
C   -3.66844126402057      7.80375217008252      0.00190004133558
C   -4.84759871934653      7.13124183134024     -0.00046653359696
C   -4.89495929917518      5.69633040353158     -0.00103944469517
C   -3.65374067877320      4.98073034095895      0.00662099703436
C   -2.40942512149445      7.11398103667468      0.00209438359570
C   -2.42547734410473      5.68112195090346     -0.00491050527438
C   -1.19474401643570      7.78614419430947      0.00356656413763
C   0.03795902893699      7.09942164575698      0.00139585983271
C   0.03033258741920      5.66948955970466     -0.00408752508301
C   -1.20098450790502      4.96927034791531      0.00488220885047
C   1.27795782581485      7.77285944319479      0.00277170839332
C   2.48535808472416      7.08769688523756      0.00049722048857
C   2.48612868491717      5.65477081024076     -0.00644052849921
C   1.25408291964399      4.95607811366431      0.00518741308898
C   3.75171459140595      7.76391215098033      0.00062407186893
C   4.92356605618520      7.07878077698995     -0.00143240883900
C   4.95560727132542      5.64344746336949     -0.00159282164606
C   3.70680153420475      4.94121020833308      0.00349873852374
H   -3.65852113775815      8.89082741913536      0.00358502958574
H   -1.18921332975660      8.87412108735996      0.00753844057883
H   1.28429423888630      8.86083343548850      0.00693053253426
H   3.75354208679975      8.85103527897216      0.00214659618464
H   5.86995870320703      7.61379483465560     -0.00235777588134
H   -5.78823170750226      7.67630221293400     -0.00202638095293
C   -6.09197395869619      4.99326001364347     -0.00291168518608
C   -6.12866148031747      3.58258016879823     -0.00171050815740
C   -3.66457974004527      3.56418217974434     -0.00463560277484
C   -4.89429820469869      2.86108077590057      0.00453338221034
C   -2.43733499489796      2.84761165708481      0.00719617576166
C   -1.20922785759670      3.54788693497833     -0.00648285103018
C   1.24714157216223      3.53468075142962     -0.00729145743546
C   0.01517603956900      2.83311183930540      0.00439272578912
C   2.46764517244071      2.82128997725533      0.00449278391269
C   3.70254947457969      3.52466015442405     -0.00899517692985
C   6.14498038638375      4.92757236613191     -0.00282626685777
C   6.16658835886151      3.51658447594213     -0.00065971342101
C   4.92460995845939      2.80840792535402      0.00587903281610
H   7.08990550964105      5.46688776622306     -0.00658814770723
H   -7.03104175110130      5.54268795285765     -0.00714490013730
C   -7.33969804112295      2.85841153457957     -0.00333767559888
C   -7.36488195805880      1.47032337158330     -0.00157213747140
C   -4.90350460894690      1.44442681216000     -0.00628840166334
C   -6.13225715261081      0.73993935705394      0.00600164231964
C   -3.67687480051673      0.72669714267312      0.00433931473643
C   -2.44565658606518      1.42964113326212     -0.00597039546461
C   -1.22360068130162      0.71532450163492      0.00545886906656
C   0.00763786931376      1.41738314923765      0.00392452278437
C   1.23121980774686      0.70211669058719     -0.01490206287210
C   2.46082110053113      1.40329203612573      0.00460244601878
C   3.68443025419614      0.68719842821222      0.00377365974158
C   4.91870890153864      1.39173456118907     -0.00862816189375
C   7.36980207796101      2.77948220318441     -0.00242013321349
C   7.38016266612146      1.39121750785509     -0.00087345036788
C   6.13979953912259      0.67411862320065      0.00545489144369
H   -8.27919079934664      3.40711804112415     -0.00763522772059
H   8.31511347147953      3.31811809662368     -0.00663070901292
C   -8.59175593758115      0.72483255304480     -0.00123170985383
C   -8.59902460370342     -0.63263980622873      0.00089141472904
C   -6.13981313911873     -0.67413663715361     -0.00609792660607
C   -7.38018411213749     -1.39126618958160      0.00131813493501
C   -4.91868448025621     -1.39175501803000      0.00624257154343
C   -3.68443829568458     -0.68723731573599     -0.00478966852105
C   -2.46081704024768     -1.40334517882457      0.00575341766833
C   -1.23116201232071     -0.70217386488055     -0.00636696112346
C   -0.00756962538737     -1.41741884941102      0.00108956317991
C   1.22364771588843     -0.71527537726392      0.01109518512883
C   2.44567064933149     -1.42964328900682     -0.00065482763106
C   3.67686670284649     -0.72670743155550     -0.00479541202602
C   6.13224884641929     -0.73997883984993     -0.00632338623858
C   4.90351914550401     -1.44445752054090      0.00751768830159
C   8.59901484869081      0.63260386666793     -0.00101133422380
C   8.59174548810050     -0.72485086719319      0.00072504603735
C   7.36486276438985     -1.47033266560598      0.00049486934466
H   -9.52830597181814      1.27684744919284     -0.00270163681798
H   9.54141097460619      1.17457248844457     -0.00206336648518
C   -7.36983790976868     -2.77954514593389      0.00312634335708
C   -4.92459910905015     -2.80843725734101     -0.00460528907921
C   -6.16662249566744     -3.51665219282533      0.00169655107992
C   -3.70251035970491     -3.52468154912026      0.00571878010666
C   -2.46764698511392     -2.82132596280400     -0.00632585824990
C   -0.01513347410770     -2.83314164539971     -0.00604426974092
C   -1.24712184122656     -3.53473217556300      0.00551968366725
C   1.20924506964357     -3.54791467864352      0.00805871345849
C   2.43733602215464     -2.84764173817541     -0.00608104485234
C   4.89430234377080     -2.86112296828604     -0.00526030478103
C   3.66461525504104     -3.56421984553201      0.00761911515957
C   6.12863901474565     -3.58258405771778      0.00096495711699
C   7.33967266469532     -2.85841330737039      0.00248018319869
H   -9.54144911125902     -1.17456346666430      0.00226083090216
H   9.52826186807155     -1.27691907390448      0.00197485379837
H   -8.31516504384864     -3.31814985321231      0.00729857188773
H   8.27915514249207     -3.40714078989363      0.00681973918158
C   -6.14499418870218     -4.92764727278338      0.00302254913999
C   -3.70678334799751     -4.94126171411716     -0.00679841894792
C   -4.95559005800169     -5.64349397349412      0.00116871569699
C   -2.48612132622665     -5.65478557440947      0.00614125209662
C   -1.25405833548005     -4.95612205000132     -0.00503435388927
C   1.20101257386816     -4.96928038819302     -0.00385322963129
C   -0.03033667441341     -5.66952030313900      0.00398997003238
C   3.65375010132847     -4.98074377541453     -0.00309522988330
C   2.42549269587528     -5.68117463552727      0.00628170066869
C   6.09196561781097     -4.99325796338655      0.00325918379042
C   4.89497644461045     -5.69634842095790      0.00202298796027
H   -7.08989238804069     -5.46699984223871      0.00742531082125
H   7.03105520920009     -5.54265853633254      0.00683896355417
C   -4.92354532219813     -7.07882109967734      0.00061394679214
C   -2.48534208823777     -7.08772807792913     -0.00189594564379
C   -3.75168589177895     -7.76394715763627     -0.00170126671874
C   -0.03794895698805     -7.09946487446944     -0.00168022049625
C   -1.27795610040136     -7.77290438466689     -0.00366491325785
C   2.40944432072629     -7.11402201200282     -0.00081701968533
C   1.19474993715296     -7.78618536556242     -0.00296931056689
C   4.84762105249800     -7.13126211057943      0.00168979497423
C   3.66847160587561     -7.80378799294376     -0.00065863938960
H   -5.86994035041618     -7.61383059804164      0.00215798365757
H   5.78824962538815     -7.67633218931421      0.00281691445618
H   -3.75352693944918     -8.85107156923607     -0.00353718114765
H   -1.28430440589466     -8.86087539249706     -0.00809229711623
H   1.18922157469537     -8.87416062058945     -0.00706194725726
H   3.65854661482387     -8.89086063405326     -0.00231318081200

    units angstrom      # Angstroms are the default
    no_reorient         # Geometry fixed, default
    symmetry c1         # C1 symmetry, default
}

set {
    scf_type DF         # Density fitting, faster than exact integrals
    freeze_core True    # Freeze core electrons
    basis jun-cc-pVDZ   # Jun-cc-pVDZ basis set, recommended for sSAPT0 in https://doi.org/10.1063/1.4867135
}

energy('ssapt0')        # Compute sSAPT0 energy, includes also SAPT0
--------------------------------------------------------------------------

  Memory set to  59.605 GiB by Python driver.

Scratch directory: /tmp/
   => Loading Basis Set <=

    Name: JUN-CC-PVDZ
    Role: ORBITAL
    Keyword: BASIS
    atoms 1-2, 4-5, 10, 17-34, 41-53, 56-70, 73-89, 92-104, 109-119, 122-130 entry C          line   164 file /opt/software/pc2/EB-SW/software/PSI4/1.9-foss-2022a/share/psi4/basis/jun-cc-pvdz.gbs 
    atoms 3, 6                                                               entry N          line   198 file /opt/software/pc2/EB-SW/software/PSI4/1.9-foss-2022a/share/psi4/basis/jun-cc-pvdz.gbs 
    atoms 7-9, 11-16, 35-40, 54-55, 71-72, 90-91, 105-108, 120-121, 131-136  entry H          line    36 file /opt/software/pc2/EB-SW/software/PSI4/1.9-foss-2022a/share/psi4/basis/jun-cc-pvdz.gbs 

   => Loading Basis Set <=

    Name: JUN-CC-PVDZ
    Role: ORBITAL
    Keyword: BASIS
    atoms 1-2, 4-5, 10, 17-34, 41-53, 56-70, 73-89, 92-104, 109-119, 122-130 entry C          line   164 file /opt/software/pc2/EB-SW/software/PSI4/1.9-foss-2022a/share/psi4/basis/jun-cc-pvdz.gbs 
    atoms 3, 6                                                               entry N          line   198 file /opt/software/pc2/EB-SW/software/PSI4/1.9-foss-2022a/share/psi4/basis/jun-cc-pvdz.gbs 
    atoms 7-9, 11-16, 35-40, 54-55, 71-72, 90-91, 105-108, 120-121, 131-136  entry H          line    36 file /opt/software/pc2/EB-SW/software/PSI4/1.9-foss-2022a/share/psi4/basis/jun-cc-pvdz.gbs 


  //>>>>>>>>>>>>>>>>>>>>>>>>>>>>>>>>>>>//
  //              Dimer HF             //
  //<<<<<<<<<<<<<<<<<<<<<<<<<<<<<<<<<<<//

   => Libint2 <=

    Primary   basis highest AM E, G, H:  5, 4, 3
    Auxiliary basis highest AM E, G, H:  6, 5, 4
    Onebody   basis highest AM E, G, H:  6, 5, 4
    Solid Harmonics ordering:            gaussian

*** tstart() called on n2cn0577
*** at Sat Jan 27 00:13:58 2024

   => Loading Basis Set <=

    Name: JUN-CC-PVDZ
    Role: ORBITAL
    Keyword: BASIS
    atoms 1-2, 4-5, 10, 17-34, 41-53, 56-70, 73-89, 92-104, 109-119, 122-130 entry C          line   164 file /opt/software/pc2/EB-SW/software/PSI4/1.9-foss-2022a/share/psi4/basis/jun-cc-pvdz.gbs 
    atoms 3, 6                                                               entry N          line   198 file /opt/software/pc2/EB-SW/software/PSI4/1.9-foss-2022a/share/psi4/basis/jun-cc-pvdz.gbs 
    atoms 7-9, 11-16, 35-40, 54-55, 71-72, 90-91, 105-108, 120-121, 131-136  entry H          line    36 file /opt/software/pc2/EB-SW/software/PSI4/1.9-foss-2022a/share/psi4/basis/jun-cc-pvdz.gbs 


         ---------------------------------------------------------
                                   SCF
               by Justin Turney, Rob Parrish, Andy Simmonett
                          and Daniel G. A. Smith
                              RHF Reference
                       16 Threads,  61035 MiB Core
         ---------------------------------------------------------

  ==> Geometry <==

    Molecular point group: c1
    Full point group: C1

    Geometry (in Angstrom), charge = 1, multiplicity = 1:

       Center              X                  Y                   Z               Mass       
    ------------   -----------------  -----------------  -----------------  -----------------
         C            0.680062820275     1.308604348936    -5.095717220331    12.000000000000
         C           -0.680508179725     1.310632348936    -5.095333220331    12.000000000000
         N           -1.085639179725     1.311630348936    -3.777009220331    14.003074004430
         C            0.000103820275     1.314906348936    -2.995608220331    12.000000000000
         C           -2.477369179725     1.361036348936    -3.309030220331    12.000000000000
         N            1.085217820275     1.311630348936    -3.777009220331    14.003074004430
         H            1.385141820275     1.300776348936    -5.913156220331     1.007825032230
         H           -1.385306179725     1.310442348936    -5.913002220331     1.007825032230
         H           -0.000013179725     1.316653348936    -1.914519220331     1.007825032230
         C            2.478112820275     1.294738348936    -3.311911220331    12.000000000000
         H            2.490587820275     1.322083348936    -2.221658220331     1.007825032230
         H            2.967023820275     0.381292348936    -3.659087220331     1.007825032230
         H            3.001423820275     2.170221348936    -3.703383220331     1.007825032230
         H           -2.857363179725     2.383107348936    -3.388989220331     1.007825032230
         H           -3.082683179725     0.690952348936    -3.922094220331     1.007825032230
         H           -2.518132179725     1.034052348936    -2.269082220331     1.007825032230
         C           -3.668445443746     7.695098519018     0.322111821005    12.000000000000
         C           -4.847602899072     7.022588180276     0.319745246072    12.000000000000
         C           -4.894963478901     5.587676752467     0.319172334974    12.000000000000
         C           -3.653744858499     4.872076689895     0.326832776703    12.000000000000
         C           -2.409429301220     7.005327385610     0.322306163265    12.000000000000
         C           -2.425481523830     5.572468299839     0.315301274395    12.000000000000
         C           -1.194748196161     7.677490543245     0.323778343807    12.000000000000
         C            0.037954849212     6.990767994693     0.321607639502    12.000000000000
         C            0.030328407694     5.560835908640     0.316124254586    12.000000000000
         C           -1.200988687630     4.860616696851     0.325093988519    12.000000000000
         C            1.277953646089     7.664205792130     0.322983488062    12.000000000000
         C            2.485353904999     6.979043234173     0.320709000158    12.000000000000
         C            2.486124505192     5.546117159176     0.313771251170    12.000000000000
         C            1.254078739919     4.847424462600     0.325399192758    12.000000000000
         C            3.751710411681     7.655258499916     0.320835851538    12.000000000000
         C            4.923561876460     6.970127125926     0.318779370830    12.000000000000
         C            4.955603091600     5.534793812305     0.318618958023    12.000000000000
         C            3.706797354479     4.832556557269     0.323710518193    12.000000000000
         H           -3.658525317484     8.782173768071     0.323796809255     1.007825032230
         H           -1.189217509482     8.765467436296     0.327750220248     1.007825032230
         H            1.284290059161     8.752179784424     0.327142312203     1.007825032230
         H            3.753537907074     8.742381627908     0.322358375854     1.007825032230
         H            5.869954523482     7.505141183591     0.317854003788     1.007825032230
         H           -5.788235887228     7.567648561870     0.318185398716     1.007825032230
         C           -6.091978138422     4.884606362579     0.317300094483    12.000000000000
         C           -6.128665660043     3.473926517734     0.318501271512    12.000000000000
         C           -3.664583919771     3.455528528680     0.315576176894    12.000000000000
         C           -4.894302384424     2.752427124836     0.324745161879    12.000000000000
         C           -2.437339174623     2.738958006020     0.327407955431    12.000000000000
         C           -1.209232037322     3.439233283914     0.313728928639    12.000000000000
         C            1.247137392437     3.426027100365     0.312920322234    12.000000000000
         C            0.015171859844     2.724458188241     0.324604505458    12.000000000000
         C            2.467640992715     2.712636326191     0.324704563582    12.000000000000
         C            3.702545294854     3.416006503360     0.311216602739    12.000000000000
         C            6.144976206658     4.818918715067     0.317385512811    12.000000000000
         C            6.166584179136     3.407930824878     0.319552066248    12.000000000000
         C            4.924605778734     2.699754274290     0.326090812485    12.000000000000
         H            7.089901329916     5.358234115159     0.313623631962     1.007825032230
         H           -7.031045930827     5.434034301793     0.313066879532     1.007825032230
         C           -7.339702220848     2.749757883515     0.316874104070    12.000000000000
         C           -7.364886137784     1.361669720519     0.318639642198    12.000000000000
         C           -4.903508788672     1.335773161096     0.313923378006    12.000000000000
         C           -6.132261332336     0.631285705989     0.326213421989    12.000000000000
         C           -3.676878980242     0.618043491609     0.324551094405    12.000000000000
         C           -2.445660765791     1.320987482198     0.314241384204    12.000000000000
         C           -1.223604861027     0.606670850570     0.325670648736    12.000000000000
         C            0.007633689588     1.308729498173     0.324136302453    12.000000000000
         C            1.231215628021     0.593463039523     0.305309716797    12.000000000000
         C            2.460816920806     1.294638385061     0.324814225688    12.000000000000
         C            3.684426074471     0.578544777148     0.323985439411    12.000000000000
         C            4.918704721813     1.283080910125     0.311583617775    12.000000000000
         C            7.369797898236     2.670828552120     0.317791646456    12.000000000000
         C            7.380158486396     1.282563856791     0.319338329301    12.000000000000
         C            6.139795359397     0.565464972136     0.325666671113    12.000000000000
         H           -8.279194979072     3.298464390060     0.312576551948     1.007825032230
         H            8.315109291754     3.209464445559     0.313581070656     1.007825032230
         C           -8.591760117307     0.616178901980     0.318980069815    12.000000000000
         C           -8.599028783429    -0.741293457293     0.321103194398    12.000000000000
         C           -6.139817318844    -0.782790288218     0.314113853063    12.000000000000
         C           -7.380188291863    -1.499919840646     0.321529914604    12.000000000000
         C           -4.918688659982    -1.500408669094     0.326454351212    12.000000000000
         C           -3.684442475410    -0.795890966800     0.315422111148    12.000000000000
         C           -2.460821219973    -1.511998829889     0.325965197337    12.000000000000
         C           -1.231166192046    -0.810827515945     0.313844818546    12.000000000000
         C           -0.007573805113    -1.526072500475     0.321301342849    12.000000000000
         C            1.223643536163    -0.823929028328     0.331306964798    12.000000000000
         C            2.445666469606    -1.538296940071     0.319556952038    12.000000000000
         C            3.676862523121    -0.835361082620     0.315416367643    12.000000000000
         C            6.132244666694    -0.848632490914     0.313888393430    12.000000000000
         C            4.903514965779    -1.553111171605     0.327729467971    12.000000000000
         C            8.599010668965     0.523950215603     0.319200445445    12.000000000000
         C            8.591741308375    -0.833504518258     0.320936825706    12.000000000000
         C            7.364858584664    -1.578986316670     0.320706649014    12.000000000000
         H           -9.528310151544     1.168193798128     0.317510142851     1.007825032230
         H            9.541406794881     1.065918837380     0.318148413184     1.007825032230
         C           -7.369842089494    -2.888198796998     0.323338123026    12.000000000000
         C           -4.924603288776    -2.917090908405     0.315606490590    12.000000000000
         C           -6.166626675393    -3.625305843890     0.321908330749    12.000000000000
         C           -3.702514539430    -3.633335200185     0.325930559776    12.000000000000
         C           -2.467651164839    -2.929979613868     0.313885921419    12.000000000000
         C           -0.015137653833    -2.941795296464     0.314167509928    12.000000000000
         C           -1.247126020952    -3.643385826627     0.325731463336    12.000000000000
         C            1.209240889918    -3.656568329708     0.328270493127    12.000000000000
         C            2.437331842429    -2.956295389240     0.314130734817    12.000000000000
         C            4.894298164045    -2.969776619350     0.314951474888    12.000000000000
         C            3.664611075316    -3.672873496596     0.327830894829    12.000000000000
         C            6.128634835020    -3.691237708782     0.321176736786    12.000000000000
         C            7.339668484970    -2.967066958435     0.322691962868    12.000000000000
         H           -9.541453290984    -1.283217117729     0.322472610571     1.007825032230
         H            9.528257688346    -1.385572724969     0.322186633467     1.007825032230
         H           -8.315169223574    -3.426803504277     0.327510351557     1.007825032230
         H            8.279150962767    -3.515794440958     0.327031518851     1.007825032230
         C           -6.144998368428    -5.036300923848     0.323234328809    12.000000000000
         C           -3.706787527723    -5.049915365182     0.313413360721    12.000000000000
         C           -4.955594237727    -5.752147624559     0.321380495366    12.000000000000
         C           -2.486125505952    -5.763439225474     0.326353031766    12.000000000000
         C           -1.254062515205    -5.064775701066     0.315177425780    12.000000000000
         C            1.201008394143    -5.077934039257     0.316358550038    12.000000000000
         C           -0.030340854139    -5.778173954203     0.324201749701    12.000000000000
         C            3.653745921603    -5.089397426479     0.317116549786    12.000000000000
         C            2.425488516150    -5.789828286592     0.326493480338    12.000000000000
         C            6.091961438086    -5.101911614451     0.323470963459    12.000000000000
         C            4.894972264885    -5.805002072022     0.322234767629    12.000000000000
         H           -7.089896567766    -5.575653493303     0.327637090490     1.007825032230
         H            7.031051029475    -5.651312187397     0.327050743223     1.007825032230
         C           -4.923549501924    -7.187474750742     0.320825726461    12.000000000000
         C           -2.485346267963    -7.196381728994     0.318315834025    12.000000000000
         C           -3.751690071504    -7.872600808701     0.318510512950    12.000000000000
         C           -0.037953136713    -7.208118525534     0.318531559173    12.000000000000
         C           -1.277960280127    -7.881558035731     0.316546866411    12.000000000000
         C            2.409440141001    -7.222675663067     0.319394759984    12.000000000000
         C            1.194745757428    -7.894839016627     0.317242469102    12.000000000000
         C            4.847616872773    -7.239915761644     0.321901574643    12.000000000000
         C            3.668467426150    -7.912441644008     0.319553140279    12.000000000000
         H           -5.869944530142    -7.722484249106     0.322369763327     1.007825032230
         H            5.788245445663    -7.784985840379     0.323028694125     1.007825032230
         H           -3.753531119175    -8.959725220301     0.316674598521     1.007825032230
         H           -1.284308585620    -8.969529043562     0.312119482553     1.007825032230
         H            1.189217394970    -8.982814271654     0.313149832412     1.007825032230
         H            3.658542435098    -8.999514285118     0.317898598857     1.007825032230

  Running in c1 symmetry.

  Rotational constants: A =      0.00065  B =      0.00065  C =      0.00035 [cm^-1]
  Rotational constants: A =     19.63517  B =     19.60345  C =     10.47662 [MHz]
  Nuclear repulsion = 18258.838195379208628

  Charge       = 1
  Multiplicity = 1
  Electrons    = 652
  Nalpha       = 326
  Nbeta        = 326

  ==> Algorithm <==

  SCF Algorithm Type is DF.
  DIIS enabled.
  MOM disabled.
  Fractional occupation disabled.
  Guess Type is SAD.
  Energy threshold   = 1.00e-08
  Density threshold  = 1.00e-08
  Integral threshold = 1.00e-12

  ==> Primary Basis <==

  Basis Set: JUN-CC-PVDZ
    Blend: JUN-CC-PVDZ
    Number of shells: 923
    Number of basis functions: 2019
    Number of Cartesian functions: 2122
    Spherical Harmonics?: true
    Max angular momentum: 2

   => Loading Basis Set <=

    Name: (JUN-CC-PVDZ AUX)
    Role: JKFIT
    Keyword: DF_BASIS_SCF
    atoms 1-2, 4-5, 10, 17-34, 41-53, 56-70, 73-89, 92-104, 109-119, 122-130 entry C          line   146 file /opt/software/pc2/EB-SW/software/PSI4/1.9-foss-2022a/share/psi4/basis/jun-cc-pvdz-jkfit.gbs 
    atoms 3, 6                                                               entry N          line   202 file /opt/software/pc2/EB-SW/software/PSI4/1.9-foss-2022a/share/psi4/basis/jun-cc-pvdz-jkfit.gbs 
    atoms 7-9, 11-16, 35-40, 54-55, 71-72, 90-91, 105-108, 120-121, 131-136  entry H          line    70 file /opt/software/pc2/EB-SW/software/PSI4/1.9-foss-2022a/share/psi4/basis/jun-cc-pvdz-jkfit.gbs 

  ==> Integral Setup <==

  ==> DiskDFJK: Density-Fitted J/K Matrices <==

    J tasked:                  Yes
    K tasked:                  Yes
    wK tasked:                  No
    OpenMP threads:             16
    Integrals threads:          16
    Memory [MiB]:            45776
    Algorithm:                Disk
    Integral Cache:           SAVE
    Schwarz Cutoff:          1E-12
    Fitting Condition:       1E-10

   => Auxiliary Basis Set <=

  Basis Set: (JUN-CC-PVDZ AUX)
    Blend: JUN-CC-PVDZ-JKFIT
    Number of shells: 3078
    Number of basis functions: 8896
    Number of Cartesian functions: 10198
    Spherical Harmonics?: true
    Max angular momentum: 3

  Minimum eigenvalue in the overlap matrix is 7.0266290591E-11.
  Reciprocal condition number of the overlap matrix is 2.8374096517E-12.
    Using canonical orthogonalization.
  Overall, 39 of 2019 possible MOs eliminated.


  ==> Pre-Iterations <==

  SCF Guess: Superposition of Atomic Densities via on-the-fly atomic UHF (no occupation information).

   -------------------------
    Irrep   Nso     Nmo    
   -------------------------
     A       2019    1980 
   -------------------------
    Total    2019    1980
   -------------------------

  ==> Iterations <==

                           Total Energy        Delta E     RMS |[F,P]|

   @DF-RHF iter SAD: -3967.53233082914949   -3.96753e+03   0.00000e+00 
   @DF-RHF iter   1: -3952.11932867762243    1.54130e+01   7.15510e-04 ADIIS/DIIS
   @DF-RHF iter   2: -3953.50018093880635   -1.38085e+00   2.39923e-04 ADIIS/DIIS
   @DF-RHF iter   3: -3953.62121921489506   -1.21038e-01   1.16781e-04 ADIIS/DIIS
   @DF-RHF iter   4: -3953.64948880074144   -2.82696e-02   5.11076e-05 DIIS
   @DF-RHF iter   5: -3953.65618773406231   -6.69893e-03   1.23043e-05 DIIS
   @DF-RHF iter   6: -3953.65674654398663   -5.58810e-04   4.74636e-06 DIIS
   @DF-RHF iter   7: -3953.65694790432462   -2.01360e-04   2.27711e-06 DIIS
   @DF-RHF iter   8: -3953.65701413431179   -6.62300e-05   1.12829e-06 DIIS
   @DF-RHF iter   9: -3953.65703284042593   -1.87061e-05   3.78975e-07 DIIS
   @DF-RHF iter  10: -3953.65703414034942   -1.29992e-06   1.56788e-07 DIIS
   @DF-RHF iter  11: -3953.65703430962594   -1.69277e-07   6.59727e-08 DIIS
   @DF-RHF iter  12: -3953.65703434425859   -3.46326e-08   3.54007e-08 DIIS
   @DF-RHF iter  13: -3953.65703435402065   -9.76206e-09   1.16667e-08 DIIS
   @DF-RHF iter  14: -3953.65703435516207   -1.14142e-09   5.03194e-09 DIIS
  Energy and wave function converged.


  ==> Post-Iterations <==

    Orbital Energies [Eh]
    ---------------------

    Doubly Occupied:                                                      

       1A    -15.789366     2A    -15.788979     3A    -11.479434  
       4A    -11.420032     5A    -11.418476     6A    -11.404319  
       7A    -11.403931     8A    -11.344156     9A    -11.343105  
      10A    -11.342879    11A    -11.342298    12A    -11.340808  
      13A    -11.340699    14A    -11.339879    15A    -11.339729  
      16A    -11.339305    17A    -11.339083    18A    -11.338910  
      19A    -11.338751    20A    -11.336869    21A    -11.336440  
      22A    -11.336299    23A    -11.335896    24A    -11.335752  
      25A    -11.334909    26A    -11.334751    27A    -11.333819  
      28A    -11.333669    29A    -11.333446    30A    -11.333446  
      31A    -11.333389    32A    -11.332010    33A    -11.331992  
      34A    -11.331480    35A    -11.331369    36A    -11.330535  
      37A    -11.330470    38A    -11.330408    39A    -11.330376  
      40A    -11.330280    41A    -11.329761    42A    -11.329743  
      43A    -11.329460    44A    -11.329444    45A    -11.329263  
      46A    -11.329199    47A    -11.329185    48A    -11.328440  
      49A    -11.328379    50A    -11.327994    51A    -11.327905  
      52A    -11.327614    53A    -11.327591    54A    -11.327309  
      55A    -11.327232    56A    -11.327045    57A    -11.327009  
      58A    -11.326657    59A    -11.326596    60A    -11.326015  
      61A    -11.325941    62A    -11.325891    63A    -11.325718  
      64A    -11.325389    65A    -11.325345    66A    -11.324439  
      67A    -11.324396    68A    -11.324067    69A    -11.324044  
      70A    -11.324040    71A    -11.323986    72A    -11.323388  
      73A    -11.323042    74A    -11.323019    75A    -11.322367  
      76A    -11.322237    77A    -11.322209    78A    -11.321290  
      79A    -11.321284    80A    -11.320433    81A    -11.320361  
      82A    -11.320252    83A    -11.320177    84A    -11.318494  
      85A    -11.318400    86A    -11.317527    87A    -11.317479  
      88A    -11.317310    89A    -11.317246    90A    -11.315825  
      91A    -11.315760    92A    -11.315151    93A    -11.315130  
      94A    -11.315079    95A    -11.315014    96A    -11.314683  
      97A    -11.314599    98A    -11.313411    99A    -11.313349  
     100A    -11.311794   101A    -11.311778   102A    -11.310271  
     103A    -11.310259   104A     -1.533851   105A     -1.389348  
     106A     -1.328891   107A     -1.309789   108A     -1.308818  
     109A     -1.288543   110A     -1.288531   111A     -1.286648  
     112A     -1.267336   113A     -1.262789   114A     -1.258729  
     115A     -1.258271   116A     -1.239632   117A     -1.239580  
     118A     -1.225048   119A     -1.225023   120A     -1.222962  
     121A     -1.210043   122A     -1.210003   123A     -1.196182  
     124A     -1.195983   125A     -1.183897   126A     -1.182350  
     127A     -1.182047   128A     -1.178352   129A     -1.176415  
     130A     -1.155882   131A     -1.155808   132A     -1.144985  
     133A     -1.141924   134A     -1.141903   135A     -1.136123  
     136A     -1.135948   137A     -1.134222   138A     -1.113409  
     139A     -1.113347   140A     -1.107340   141A     -1.103628  
     142A     -1.103614   143A     -1.094960   144A     -1.092595  
     145A     -1.092480   146A     -1.075272   147A     -1.074343  
     148A     -1.072920   149A     -1.069897   150A     -1.068709  
     151A     -1.068589   152A     -1.055401   153A     -1.038405  
     154A     -1.038356   155A     -1.021427   156A     -1.021312  
     157A     -0.979562   158A     -0.976448   159A     -0.976407  
     160A     -0.975664   161A     -0.969779   162A     -0.969729  
     163A     -0.962409   164A     -0.962292   165A     -0.959632  
     166A     -0.959049   167A     -0.956626   168A     -0.953147  
     169A     -0.937194   170A     -0.932011   171A     -0.918311  
     172A     -0.916916   173A     -0.916316   174A     -0.913517  
     175A     -0.910400   176A     -0.900850   177A     -0.900723  
     178A     -0.892351   179A     -0.892316   180A     -0.873822  
     181A     -0.853862   182A     -0.853645   183A     -0.851463  
     184A     -0.849378   185A     -0.848577   186A     -0.847692  
     187A     -0.847382   188A     -0.834182   189A     -0.830447  
     190A     -0.818418   191A     -0.806727   192A     -0.798601  
     193A     -0.794058   194A     -0.793648   195A     -0.792257  
     196A     -0.791369   197A     -0.791111   198A     -0.787040  
     199A     -0.781962   200A     -0.781769   201A     -0.775252  
     202A     -0.770299   203A     -0.765130   204A     -0.765057  
     205A     -0.754710   206A     -0.751456   207A     -0.751383  
     208A     -0.748192   209A     -0.748182   210A     -0.747522  
     211A     -0.745819   212A     -0.743116   213A     -0.741433  
     214A     -0.719107   215A     -0.718492   216A     -0.718333  
     217A     -0.716849   218A     -0.716513   219A     -0.714391  
     220A     -0.709213   221A     -0.709013   222A     -0.705827  
     223A     -0.704547   224A     -0.703132   225A     -0.703079  
     226A     -0.702289   227A     -0.695488   228A     -0.687473  
     229A     -0.679909   230A     -0.679792   231A     -0.678340  
     232A     -0.674726   233A     -0.674692   234A     -0.674320  
     235A     -0.668361   236A     -0.667797   237A     -0.667098  
     238A     -0.666457   239A     -0.666233   240A     -0.665347  
     241A     -0.661386   242A     -0.660932   243A     -0.660812  
     244A     -0.660331   245A     -0.656769   246A     -0.656747  
     247A     -0.656554   248A     -0.643528   249A     -0.643329  
     250A     -0.641038   251A     -0.641027   252A     -0.639541  
     253A     -0.639478   254A     -0.636809   255A     -0.636450  
     256A     -0.632234   257A     -0.631926   258A     -0.625451  
     259A     -0.625447   260A     -0.623912   261A     -0.622086  
     262A     -0.620365   263A     -0.616473   264A     -0.611056  
     265A     -0.610255   266A     -0.605115   267A     -0.604890  
     268A     -0.599671   269A     -0.599307   270A     -0.596277  
     271A     -0.593079   272A     -0.593044   273A     -0.583924  
     274A     -0.583806   275A     -0.580633   276A     -0.580578  
     277A     -0.574368   278A     -0.574128   279A     -0.563834  
     280A     -0.563357   281A     -0.563140   282A     -0.562620  
     283A     -0.562551   284A     -0.560353   285A     -0.553580  
     286A     -0.546120   287A     -0.542051   288A     -0.542004  
     289A     -0.539490   290A     -0.537047   291A     -0.533180  
     292A     -0.532910   293A     -0.526314   294A     -0.515849  
     295A     -0.515606   296A     -0.511408   297A     -0.510935  
     298A     -0.510003   299A     -0.498653   300A     -0.498447  
     301A     -0.482799   302A     -0.474715   303A     -0.474697  
     304A     -0.455271   305A     -0.455192   306A     -0.453506  
     307A     -0.449802   308A     -0.449727   309A     -0.420923  
     310A     -0.420829   311A     -0.417662   312A     -0.410803  
     313A     -0.409482   314A     -0.409167   315A     -0.396600  
     316A     -0.396503   317A     -0.375787   318A     -0.371618  
     319A     -0.371436   320A     -0.366598   321A     -0.351659  
     322A     -0.322448   323A     -0.322387   324A     -0.318961  
     325A     -0.270674   326A     -0.270337  

    Virtual:                                                              

     327A     -0.078367   328A     -0.077978   329A     -0.035101  
     330A     -0.034395   331A     -0.033897   332A     -0.025633  
     333A     -0.025327   334A     -0.022520   335A     -0.012753  
     336A     -0.005816   337A     -0.005199   338A     -0.004874  
     339A     -0.004286   340A     -0.002589   341A     -0.001104  
     342A      0.000444   343A      0.000847   344A      0.000966  
     345A      0.003691   346A      0.004376   347A      0.005338  
     348A      0.007647   349A      0.008882   350A      0.009948  
     351A      0.010922   352A      0.013367   353A      0.013985  
     354A      0.014221   355A      0.015082   356A      0.018310  
     357A      0.019167   358A      0.024195   359A      0.025144  
     360A      0.025188   361A      0.025733   362A      0.027720  
     363A      0.032011   364A      0.033714   365A      0.034256  
     366A      0.035131   367A      0.035355   368A      0.037829  
     369A      0.039644   370A      0.039999   371A      0.042563  
     372A      0.043011   373A      0.043354   374A      0.044498  
     375A      0.048496   376A      0.049851   377A      0.051114  
     378A      0.051600   379A      0.051793   380A      0.052279  
     381A      0.052640   382A      0.054171   383A      0.054352  
     384A      0.055294   385A      0.056684   386A      0.058876  
     387A      0.058949   388A      0.062643   389A      0.063149  
     390A      0.067441   391A      0.067461   392A      0.069573  
     393A      0.070437   394A      0.073081   395A      0.074242  
     396A      0.075324   397A      0.075722   398A      0.077092  
     399A      0.077404   400A      0.079002   401A      0.080195  
     402A      0.080474   403A      0.082048   404A      0.084263  
     405A      0.085699   406A      0.086021   407A      0.088109  
     408A      0.088232   409A      0.090552   410A      0.090838  
     411A      0.095424   412A      0.096669   413A      0.099038  
     414A      0.101942   415A      0.102690   416A      0.104928  
     417A      0.105816   418A      0.105915   419A      0.107003  
     420A      0.107693   421A      0.107739   422A      0.108655  
     423A      0.111964   424A      0.112208   425A      0.112809  
     426A      0.114672   427A      0.115096   428A      0.115550  
     429A      0.116553   430A      0.118630   431A      0.122921  
     432A      0.123177   433A      0.126434   434A      0.126713  
     435A      0.127565   436A      0.129307   437A      0.129953  
     438A      0.133613   439A      0.134397   440A      0.134858  
     441A      0.135009   442A      0.135389   443A      0.136310  
     444A      0.137313   445A      0.138170   446A      0.138761  
     447A      0.141290   448A      0.143739   449A      0.143780  
     450A      0.145146   451A      0.146073   452A      0.146279  
     453A      0.147567   454A      0.148025   455A      0.149185  
     456A      0.150384   457A      0.151465   458A      0.151869  
     459A      0.152564   460A      0.152732   461A      0.153547  
     462A      0.154500   463A      0.155133   464A      0.158092  
     465A      0.158582   466A      0.158793   467A      0.159956  
     468A      0.160815   469A      0.163723   470A      0.164323  
     471A      0.165090   472A      0.165654   473A      0.166470  
     474A      0.166839   475A      0.167191   476A      0.169163  
     477A      0.169685   478A      0.170089   479A      0.171909  
     480A      0.173610   481A      0.174013   482A      0.174360  
     483A      0.175651   484A      0.176618   485A      0.178873  
     486A      0.179420   487A      0.180281   488A      0.181660  
     489A      0.183006   490A      0.184365   491A      0.185988  
     492A      0.186846   493A      0.189434   494A      0.191059  
     495A      0.191442   496A      0.192474   497A      0.193728  
     498A      0.194241   499A      0.194934   500A      0.196067  
     501A      0.196104   502A      0.198927   503A      0.200592  
     504A      0.200702   505A      0.202313   506A      0.202981  
     507A      0.203960   508A      0.205682   509A      0.205885  
     510A      0.207171   511A      0.208058   512A      0.208238  
     513A      0.208454   514A      0.211129   515A      0.211752  
     516A      0.212257   517A      0.213611   518A      0.214596  
     519A      0.215766   520A      0.218001   521A      0.219016  
     522A      0.220110   523A      0.221317   524A      0.221676  
     525A      0.223133   526A      0.223682   527A      0.224666  
     528A      0.225276   529A      0.225817   530A      0.227609  
     531A      0.228115   532A      0.228257   533A      0.228479  
     534A      0.229601   535A      0.231604   536A      0.235345  
     537A      0.235495   538A      0.236333   539A      0.237246  
     540A      0.237824   541A      0.238343   542A      0.238940  
     543A      0.242551   544A      0.243591   545A      0.244155  
     546A      0.244884   547A      0.245803   548A      0.246552  
     549A      0.247396   550A      0.249672   551A      0.250627  
     552A      0.252256   553A      0.252455   554A      0.253586  
     555A      0.254364   556A      0.254971   557A      0.255624  
     558A      0.258102   559A      0.258552   560A      0.259756  
     561A      0.260218   562A      0.260922   563A      0.261795  
     564A      0.261941   565A      0.262895   566A      0.263473  
     567A      0.265664   568A      0.266335   569A      0.268095  
     570A      0.269012   571A      0.269644   572A      0.270962  
     573A      0.271522   574A      0.271920   575A      0.273161  
     576A      0.273673   577A      0.273833   578A      0.274393  
     579A      0.274700   580A      0.275307   581A      0.278137  
     582A      0.279180   583A      0.279345   584A      0.280264  
     585A      0.281310   586A      0.281795   587A      0.282885  
     588A      0.283661   589A      0.286088   590A      0.287103  
     591A      0.287238   592A      0.288374   593A      0.288498  
     594A      0.288867   595A      0.290117   596A      0.292250  
     597A      0.292603   598A      0.295672   599A      0.295977  
     600A      0.297729   601A      0.299121   602A      0.300224  
     603A      0.300510   604A      0.301279   605A      0.301951  
     606A      0.302372   607A      0.304387   608A      0.304791  
     609A      0.307085   610A      0.307209   611A      0.308128  
     612A      0.308580   613A      0.309729   614A      0.310696  
     615A      0.311707   616A      0.313579   617A      0.314636  
     618A      0.316122   619A      0.316335   620A      0.317581  
     621A      0.318058   622A      0.318188   623A      0.318714  
     624A      0.320281   625A      0.321447   626A      0.321890  
     627A      0.322627   628A      0.323296   629A      0.324145  
     630A      0.324837   631A      0.326287   632A      0.327969  
     633A      0.328762   634A      0.329549   635A      0.330052  
     636A      0.331396   637A      0.331942   638A      0.333189  
     639A      0.333935   640A      0.334357   641A      0.335311  
     642A      0.336775   643A      0.337156   644A      0.338527  
     645A      0.339411   646A      0.340792   647A      0.341431  
     648A      0.341648   649A      0.341929   650A      0.342766  
     651A      0.343450   652A      0.343545   653A      0.343965  
     654A      0.344252   655A      0.346123   656A      0.347450  
     657A      0.349020   658A      0.349827   659A      0.350305  
     660A      0.351345   661A      0.352117   662A      0.352344  
     663A      0.353467   664A      0.354462   665A      0.355343  
     666A      0.356676   667A      0.357192   668A      0.358553  
     669A      0.358758   670A      0.359650   671A      0.360342  
     672A      0.363379   673A      0.363659   674A      0.365463  
     675A      0.365592   676A      0.366130   677A      0.367003  
     678A      0.367654   679A      0.368598   680A      0.369150  
     681A      0.369643   682A      0.371505   683A      0.372107  
     684A      0.374001   685A      0.374254   686A      0.375421  
     687A      0.375685   688A      0.378232   689A      0.379508  
     690A      0.380583   691A      0.381404   692A      0.382223  
     693A      0.385220   694A      0.385789   695A      0.388655  
     696A      0.389460   697A      0.390058   698A      0.390400  
     699A      0.391226   700A      0.392547   701A      0.392620  
     702A      0.393570   703A      0.393803   704A      0.394608  
     705A      0.394974   706A      0.396438   707A      0.396869  
     708A      0.398970   709A      0.401832   710A      0.402482  
     711A      0.402988   712A      0.403788   713A      0.404077  
     714A      0.404299   715A      0.404870   716A      0.406577  
     717A      0.407714   718A      0.408696   719A      0.409659  
     720A      0.410761   721A      0.411965   722A      0.412519  
     723A      0.413329   724A      0.413987   725A      0.414476  
     726A      0.416098   727A      0.417387   728A      0.419102  
     729A      0.420103   730A      0.421048   731A      0.423840  
     732A      0.425247   733A      0.426319   734A      0.426924  
     735A      0.428098   736A      0.428774   737A      0.430610  
     738A      0.431477   739A      0.432574   740A      0.434568  
     741A      0.435167   742A      0.436206   743A      0.437524  
     744A      0.438268   745A      0.438696   746A      0.440546  
     747A      0.442950   748A      0.443954   749A      0.444396  
     750A      0.445331   751A      0.446559   752A      0.446889  
     753A      0.449890   754A      0.450333   755A      0.451537  
     756A      0.452249   757A      0.453628   758A      0.455951  
     759A      0.456394   760A      0.456755   761A      0.457723  
     762A      0.458821   763A      0.459557   764A      0.460335  
     765A      0.463203   766A      0.463794   767A      0.466534  
     768A      0.466812   769A      0.467500   770A      0.467989  
     771A      0.470988   772A      0.472993   773A      0.474926  
     774A      0.475450   775A      0.477418   776A      0.477886  
     777A      0.479694   778A      0.481518   779A      0.483021  
     780A      0.485920   781A      0.487520   782A      0.494156  
     783A      0.497091   784A      0.497341   785A      0.499279  
     786A      0.499747   787A      0.500649   788A      0.501796  
     789A      0.502893   790A      0.503320   791A      0.504250  
     792A      0.505723   793A      0.506865   794A      0.507324  
     795A      0.508886   796A      0.510923   797A      0.511491  
     798A      0.512374   799A      0.513591   800A      0.515416  
     801A      0.516612   802A      0.518117   803A      0.519801  
     804A      0.520836   805A      0.522437   806A      0.524614  
     807A      0.526455   808A      0.528444   809A      0.528522  
     810A      0.530199   811A      0.530904   812A      0.531738  
     813A      0.533601   814A      0.535484   815A      0.536384  
     816A      0.539994   817A      0.540446   818A      0.541193  
     819A      0.541856   820A      0.542526   821A      0.550852  
     822A      0.552249   823A      0.555858   824A      0.556424  
     825A      0.557378   826A      0.558113   827A      0.558434  
     828A      0.563713   829A      0.564593   830A      0.566552  
     831A      0.567817   832A      0.569245   833A      0.574392  
     834A      0.574802   835A      0.579196   836A      0.582998  
     837A      0.585368   838A      0.588280   839A      0.588721  
     840A      0.590715   841A      0.591140   842A      0.593000  
     843A      0.594476   844A      0.595358   845A      0.598180  
     846A      0.601571   847A      0.604249   848A      0.605830  
     849A      0.612877   850A      0.614688   851A      0.616426  
     852A      0.621060   853A      0.622298   854A      0.623284  
     855A      0.624751   856A      0.625775   857A      0.627005  
     858A      0.629702   859A      0.633037   860A      0.634032  
     861A      0.634501   862A      0.637105   863A      0.639717  
     864A      0.641337   865A      0.644315   866A      0.649874  
     867A      0.658924   868A      0.660129   869A      0.663352  
     870A      0.670243   871A      0.673246   872A      0.675461  
     873A      0.675998   874A      0.676407   875A      0.676680  
     876A      0.678851   877A      0.679832   878A      0.684309  
     879A      0.685518   880A      0.688593   881A      0.705767  
     882A      0.716378   883A      0.719150   884A      0.720279  
     885A      0.722906   886A      0.723657   887A      0.724665  
     888A      0.727200   889A      0.728996   890A      0.730636  
     891A      0.738386   892A      0.739394   893A      0.741786  
     894A      0.743638   895A      0.746429   896A      0.748181  
     897A      0.749639   898A      0.752730   899A      0.754326  
     900A      0.755893   901A      0.757738   902A      0.758786  
     903A      0.760558   904A      0.761915   905A      0.762207  
     906A      0.762798   907A      0.765660   908A      0.768782  
     909A      0.769427   910A      0.771155   911A      0.772479  
     912A      0.775336   913A      0.779286   914A      0.780990  
     915A      0.781980   916A      0.784206   917A      0.785838  
     918A      0.787341   919A      0.787755   920A      0.789786  
     921A      0.790557   922A      0.793198   923A      0.795437  
     924A      0.797842   925A      0.799299   926A      0.799487  
     927A      0.801805   928A      0.802894   929A      0.805757  
     930A      0.807298   931A      0.808713   932A      0.810501  
     933A      0.812531   934A      0.813302   935A      0.814832  
     936A      0.815541   937A      0.818631   938A      0.820923  
     939A      0.823691   940A      0.824284   941A      0.824961  
     942A      0.825280   943A      0.826293   944A      0.828448  
     945A      0.830228   946A      0.831402   947A      0.833606  
     948A      0.835090   949A      0.836035   950A      0.838970  
     951A      0.840667   952A      0.842434   953A      0.842724  
     954A      0.844605   955A      0.847610   956A      0.848307  
     957A      0.851187   958A      0.853637   959A      0.854582  
     960A      0.856489   961A      0.856801   962A      0.858231  
     963A      0.859553   964A      0.861186   965A      0.862642  
     966A      0.864761   967A      0.865955   968A      0.866866  
     969A      0.867749   970A      0.869785   971A      0.870673  
     972A      0.871861   973A      0.873199   974A      0.874889  
     975A      0.875671   976A      0.877031   977A      0.879104  
     978A      0.881433   979A      0.882723   980A      0.883259  
     981A      0.886014   982A      0.886590   983A      0.887141  
     984A      0.888592   985A      0.890380   986A      0.891324  
     987A      0.892289   988A      0.893113   989A      0.894197  
     990A      0.896084   991A      0.896560   992A      0.900141  
     993A      0.900440   994A      0.902324   995A      0.902818  
     996A      0.905363   997A      0.906433   998A      0.907990  
     999A      0.911963  1000A      0.915901  1001A      0.917078  
    1002A      0.921165  1003A      0.924167  1004A      0.926450  
    1005A      0.927312  1006A      0.927864  1007A      0.928808  
    1008A      0.929041  1009A      0.931855  1010A      0.935512  
    1011A      0.936315  1012A      0.937568  1013A      0.937964  
    1014A      0.939758  1015A      0.940344  1016A      0.940936  
    1017A      0.942969  1018A      0.947566  1019A      0.948404  
    1020A      0.950259  1021A      0.952268  1022A      0.953802  
    1023A      0.953964  1024A      0.957309  1025A      0.958179  
    1026A      0.959461  1027A      0.960887  1028A      0.961651  
    1029A      0.964081  1030A      0.966645  1031A      0.967870  
    1032A      0.968689  1033A      0.970610  1034A      0.973336  
    1035A      0.975093  1036A      0.975722  1037A      0.977580  
    1038A      0.978897  1039A      0.981220  1040A      0.981553  
    1041A      0.982082  1042A      0.984006  1043A      0.984803  
    1044A      0.985294  1045A      0.986625  1046A      0.987403  
    1047A      0.989625  1048A      0.990712  1049A      0.991680  
    1050A      0.993485  1051A      0.994839  1052A      0.997238  
    1053A      0.997720  1054A      0.998184  1055A      0.999442  
    1056A      1.000366  1057A      1.001749  1058A      1.002256  
    1059A      1.003317  1060A      1.004921  1061A      1.005617  
    1062A      1.006334  1063A      1.007864  1064A      1.007953  
    1065A      1.008226  1066A      1.008405  1067A      1.010761  
    1068A      1.011280  1069A      1.012850  1070A      1.013362  
    1071A      1.014289  1072A      1.014623  1073A      1.015313  
    1074A      1.016072  1075A      1.016993  1076A      1.018244  
    1077A      1.018486  1078A      1.020049  1079A      1.021499  
    1080A      1.021729  1081A      1.023025  1082A      1.023317  
    1083A      1.024402  1084A      1.024935  1085A      1.026193  
    1086A      1.027071  1087A      1.027353  1088A      1.028301  
    1089A      1.029197  1090A      1.030529  1091A      1.032503  
    1092A      1.032983  1093A      1.034334  1094A      1.036523  
    1095A      1.037823  1096A      1.040296  1097A      1.041593  
    1098A      1.043303  1099A      1.044534  1100A      1.046663  
    1101A      1.047654  1102A      1.048963  1103A      1.050142  
    1104A      1.051614  1105A      1.052260  1106A      1.053582  
    1107A      1.055339  1108A      1.056137  1109A      1.057555  
    1110A      1.059523  1111A      1.060618  1112A      1.063798  
    1113A      1.066581  1114A      1.067001  1115A      1.068271  
    1116A      1.070040  1117A      1.070381  1118A      1.073628  
    1119A      1.074760  1120A      1.076297  1121A      1.077831  
    1122A      1.078823  1123A      1.079962  1124A      1.081348  
    1125A      1.083583  1126A      1.084981  1127A      1.085655  
    1128A      1.087443  1129A      1.088545  1130A      1.090141  
    1131A      1.091751  1132A      1.093029  1133A      1.096977  
    1134A      1.098294  1135A      1.100532  1136A      1.101154  
    1137A      1.101649  1138A      1.105174  1139A      1.105648  
    1140A      1.106926  1141A      1.110205  1142A      1.111516  
    1143A      1.112923  1144A      1.116153  1145A      1.118652  
    1146A      1.120000  1147A      1.122329  1148A      1.123475  
    1149A      1.125353  1150A      1.127348  1151A      1.130040  
    1152A      1.131940  1153A      1.134384  1154A      1.136095  
    1155A      1.137985  1156A      1.139445  1157A      1.143794  
    1158A      1.144852  1159A      1.146383  1160A      1.149103  
    1161A      1.150870  1162A      1.152228  1163A      1.155561  
    1164A      1.156282  1165A      1.157340  1166A      1.159487  
    1167A      1.161140  1168A      1.162113  1169A      1.163561  
    1170A      1.164654  1171A      1.167572  1172A      1.167973  
    1173A      1.175739  1174A      1.177890  1175A      1.180460  
    1176A      1.181609  1177A      1.185870  1178A      1.187562  
    1179A      1.189004  1180A      1.194892  1181A      1.196496  
    1182A      1.197968  1183A      1.198360  1184A      1.199623  
    1185A      1.201454  1186A      1.206098  1187A      1.208526  
    1188A      1.209092  1189A      1.212059  1190A      1.214924  
    1191A      1.219051  1192A      1.222830  1193A      1.224090  
    1194A      1.224138  1195A      1.225205  1196A      1.226657  
    1197A      1.229295  1198A      1.231083  1199A      1.232684  
    1200A      1.232890  1201A      1.235984  1202A      1.236418  
    1203A      1.239729  1204A      1.240327  1205A      1.243942  
    1206A      1.245998  1207A      1.247852  1208A      1.248876  
    1209A      1.249315  1210A      1.251212  1211A      1.254876  
    1212A      1.256366  1213A      1.256518  1214A      1.257707  
    1215A      1.258505  1216A      1.260302  1217A      1.260668  
    1218A      1.264564  1219A      1.267251  1220A      1.269101  
    1221A      1.270515  1222A      1.272195  1223A      1.274225  
    1224A      1.274723  1225A      1.275437  1226A      1.276411  
    1227A      1.280631  1228A      1.286123  1229A      1.287927  
    1230A      1.288612  1231A      1.289341  1232A      1.295038  
    1233A      1.297137  1234A      1.298388  1235A      1.299330  
    1236A      1.300302  1237A      1.302035  1238A      1.303061  
    1239A      1.305218  1240A      1.307535  1241A      1.308952  
    1242A      1.310483  1243A      1.313552  1244A      1.314436  
    1245A      1.320235  1246A      1.325012  1247A      1.327232  
    1248A      1.330285  1249A      1.331824  1250A      1.333128  
    1251A      1.334292  1252A      1.338242  1253A      1.340837  
    1254A      1.343019  1255A      1.344143  1256A      1.345491  
    1257A      1.347749  1258A      1.350607  1259A      1.352035  
    1260A      1.353356  1261A      1.355447  1262A      1.357462  
    1263A      1.358565  1264A      1.360035  1265A      1.363927  
    1266A      1.365379  1267A      1.366389  1268A      1.367984  
    1269A      1.370145  1270A      1.371774  1271A      1.371875  
    1272A      1.373332  1273A      1.374322  1274A      1.375723  
    1275A      1.378326  1276A      1.380844  1277A      1.383430  
    1278A      1.384789  1279A      1.386176  1280A      1.389096  
    1281A      1.391630  1282A      1.393450  1283A      1.394565  
    1284A      1.396233  1285A      1.396752  1286A      1.399739  
    1287A      1.404932  1288A      1.405655  1289A      1.407779  
    1290A      1.408067  1291A      1.408335  1292A      1.411598  
    1293A      1.419408  1294A      1.421465  1295A      1.423271  
    1296A      1.425809  1297A      1.425961  1298A      1.429657  
    1299A      1.434208  1300A      1.436392  1301A      1.438444  
    1302A      1.442479  1303A      1.444706  1304A      1.447881  
    1305A      1.453686  1306A      1.456467  1307A      1.471156  
    1308A      1.475520  1309A      1.477434  1310A      1.479093  
    1311A      1.480880  1312A      1.484460  1313A      1.487114  
    1314A      1.493521  1315A      1.506647  1316A      1.511292  
    1317A      1.514914  1318A      1.522230  1319A      1.525149  
    1320A      1.527345  1321A      1.531324  1322A      1.531522  
    1323A      1.536026  1324A      1.537707  1325A      1.539210  
    1326A      1.542748  1327A      1.543259  1328A      1.544299  
    1329A      1.546725  1330A      1.547165  1331A      1.550257  
    1332A      1.550645  1333A      1.551543  1334A      1.553769  
    1335A      1.555176  1336A      1.556199  1337A      1.556681  
    1338A      1.558982  1339A      1.560130  1340A      1.562643  
    1341A      1.563555  1342A      1.564151  1343A      1.566972  
    1344A      1.569078  1345A      1.569527  1346A      1.570374  
    1347A      1.570974  1348A      1.572777  1349A      1.573204  
    1350A      1.574611  1351A      1.575508  1352A      1.578448  
    1353A      1.579534  1354A      1.579932  1355A      1.583529  
    1356A      1.586414  1357A      1.587213  1358A      1.589263  
    1359A      1.590279  1360A      1.593344  1361A      1.594271  
    1362A      1.595600  1363A      1.596729  1364A      1.598565  
    1365A      1.598900  1366A      1.600140  1367A      1.601190  
    1368A      1.602450  1369A      1.603366  1370A      1.605330  
    1371A      1.608318  1372A      1.611737  1373A      1.611915  
    1374A      1.614787  1375A      1.621282  1376A      1.623885  
    1377A      1.625469  1378A      1.626546  1379A      1.629704  
    1380A      1.630193  1381A      1.630836  1382A      1.634954  
    1383A      1.635256  1384A      1.636568  1385A      1.637135  
    1386A      1.643234  1387A      1.644715  1388A      1.647172  
    1389A      1.649877  1390A      1.650575  1391A      1.651444  
    1392A      1.651992  1393A      1.654029  1394A      1.655630  
    1395A      1.655933  1396A      1.660871  1397A      1.663800  
    1398A      1.664516  1399A      1.674378  1400A      1.674766  
    1401A      1.679635  1402A      1.681524  1403A      1.683839  
    1404A      1.684776  1405A      1.689878  1406A      1.694060  
    1407A      1.697080  1408A      1.698243  1409A      1.701606  
    1410A      1.705434  1411A      1.710641  1412A      1.719351  
    1413A      1.722947  1414A      1.727832  1415A      1.730087  
    1416A      1.731220  1417A      1.732466  1418A      1.732909  
    1419A      1.743477  1420A      1.751764  1421A      1.752300  
    1422A      1.758485  1423A      1.760386  1424A      1.761073  
    1425A      1.762076  1426A      1.763450  1427A      1.764119  
    1428A      1.767633  1429A      1.768526  1430A      1.769909  
    1431A      1.772252  1432A      1.774198  1433A      1.775755  
    1434A      1.779331  1435A      1.781877  1436A      1.782225  
    1437A      1.786085  1438A      1.788833  1439A      1.792275  
    1440A      1.792970  1441A      1.794357  1442A      1.795917  
    1443A      1.796299  1444A      1.798181  1445A      1.801860  
    1446A      1.805172  1447A      1.807911  1448A      1.808364  
    1449A      1.810774  1450A      1.811999  1451A      1.812732  
    1452A      1.814478  1453A      1.816631  1454A      1.816819  
    1455A      1.819115  1456A      1.819498  1457A      1.820508  
    1458A      1.822256  1459A      1.822770  1460A      1.823666  
    1461A      1.826689  1462A      1.827375  1463A      1.833144  
    1464A      1.841309  1465A      1.841951  1466A      1.843643  
    1467A      1.843767  1468A      1.848215  1469A      1.849412  
    1470A      1.850718  1471A      1.852133  1472A      1.854497  
    1473A      1.854911  1474A      1.855842  1475A      1.857982  
    1476A      1.858127  1477A      1.859638  1478A      1.862567  
    1479A      1.864659  1480A      1.865633  1481A      1.869865  
    1482A      1.871349  1483A      1.872373  1484A      1.874610  
    1485A      1.875862  1486A      1.877183  1487A      1.878223  
    1488A      1.880676  1489A      1.880764  1490A      1.885008  
    1491A      1.886771  1492A      1.889376  1493A      1.890828  
    1494A      1.892044  1495A      1.893069  1496A      1.893913  
    1497A      1.895507  1498A      1.897318  1499A      1.898179  
    1500A      1.901109  1501A      1.904184  1502A      1.907086  
    1503A      1.908802  1504A      1.909274  1505A      1.912719  
    1506A      1.914354  1507A      1.916774  1508A      1.917019  
    1509A      1.919228  1510A      1.924409  1511A      1.926500  
    1512A      1.927251  1513A      1.930043  1514A      1.932498  
    1515A      1.932582  1516A      1.935426  1517A      1.935529  
    1518A      1.936093  1519A      1.944072  1520A      1.945042  
    1521A      1.948187  1522A      1.949159  1523A      1.949826  
    1524A      1.950562  1525A      1.952631  1526A      1.953444  
    1527A      1.954231  1528A      1.955195  1529A      1.955901  
    1530A      1.956675  1531A      1.959598  1532A      1.961870  
    1533A      1.965215  1534A      1.966778  1535A      1.967225  
    1536A      1.969697  1537A      1.971382  1538A      1.973223  
    1539A      1.976395  1540A      1.978291  1541A      1.978368  
    1542A      1.979995  1543A      1.984784  1544A      1.987655  
    1545A      1.989540  1546A      1.991405  1547A      1.992359  
    1548A      1.993909  1549A      1.994721  1550A      1.996189  
    1551A      2.000438  1552A      2.002216  1553A      2.004232  
    1554A      2.006021  1555A      2.007811  1556A      2.009041  
    1557A      2.010256  1558A      2.012580  1559A      2.014756  
    1560A      2.015403  1561A      2.016776  1562A      2.017143  
    1563A      2.018072  1564A      2.020146  1565A      2.020390  
    1566A      2.021224  1567A      2.022444  1568A      2.024160  
    1569A      2.025324  1570A      2.026354  1571A      2.027682  
    1572A      2.028196  1573A      2.028967  1574A      2.029935  
    1575A      2.030312  1576A      2.032736  1577A      2.035128  
    1578A      2.036530  1579A      2.037206  1580A      2.038821  
    1581A      2.040164  1582A      2.041934  1583A      2.042537  
    1584A      2.047574  1585A      2.048132  1586A      2.049166  
    1587A      2.051613  1588A      2.052234  1589A      2.052487  
    1590A      2.053877  1591A      2.055389  1592A      2.056001  
    1593A      2.057230  1594A      2.061877  1595A      2.062521  
    1596A      2.063419  1597A      2.064326  1598A      2.064748  
    1599A      2.066307  1600A      2.066824  1601A      2.068106  
    1602A      2.069296  1603A      2.071653  1604A      2.073548  
    1605A      2.077422  1606A      2.079077  1607A      2.080041  
    1608A      2.081322  1609A      2.082717  1610A      2.082964  
    1611A      2.084510  1612A      2.090645  1613A      2.094027  
    1614A      2.094628  1615A      2.095689  1616A      2.096537  
    1617A      2.097323  1618A      2.098202  1619A      2.100791  
    1620A      2.102873  1621A      2.104370  1622A      2.106658  
    1623A      2.109856  1624A      2.111373  1625A      2.113344  
    1626A      2.116722  1627A      2.117289  1628A      2.118896  
    1629A      2.120708  1630A      2.123213  1631A      2.125104  
    1632A      2.125470  1633A      2.126843  1634A      2.127904  
    1635A      2.130547  1636A      2.132471  1637A      2.133632  
    1638A      2.136384  1639A      2.139120  1640A      2.140934  
    1641A      2.142860  1642A      2.144295  1643A      2.146063  
    1644A      2.149730  1645A      2.151035  1646A      2.152272  
    1647A      2.153178  1648A      2.154449  1649A      2.156443  
    1650A      2.158680  1651A      2.160147  1652A      2.162766  
    1653A      2.163419  1654A      2.166532  1655A      2.167747  
    1656A      2.169625  1657A      2.170253  1658A      2.170330  
    1659A      2.172294  1660A      2.173255  1661A      2.174637  
    1662A      2.180279  1663A      2.180823  1664A      2.185296  
    1665A      2.187941  1666A      2.191910  1667A      2.194336  
    1668A      2.201762  1669A      2.203475  1670A      2.204269  
    1671A      2.207625  1672A      2.210044  1673A      2.212009  
    1674A      2.218612  1675A      2.218942  1676A      2.220489  
    1677A      2.225173  1678A      2.227613  1679A      2.228966  
    1680A      2.230147  1681A      2.231182  1682A      2.233028  
    1683A      2.237747  1684A      2.241843  1685A      2.243170  
    1686A      2.254003  1687A      2.257305  1688A      2.258374  
    1689A      2.259787  1690A      2.263158  1691A      2.263994  
    1692A      2.264947  1693A      2.266672  1694A      2.267524  
    1695A      2.267604  1696A      2.269510  1697A      2.270738  
    1698A      2.274115  1699A      2.275487  1700A      2.276285  
    1701A      2.277022  1702A      2.277212  1703A      2.278612  
    1704A      2.279183  1705A      2.281878  1706A      2.282050  
    1707A      2.284958  1708A      2.294092  1709A      2.300473  
    1710A      2.304728  1711A      2.309246  1712A      2.315268  
    1713A      2.317419  1714A      2.321973  1715A      2.323203  
    1716A      2.333984  1717A      2.334078  1718A      2.336950  
    1719A      2.348682  1720A      2.353523  1721A      2.355577  
    1722A      2.357978  1723A      2.362380  1724A      2.364283  
    1725A      2.371671  1726A      2.377084  1727A      2.381216  
    1728A      2.384840  1729A      2.387371  1730A      2.397202  
    1731A      2.400192  1732A      2.400882  1733A      2.403060  
    1734A      2.405545  1735A      2.406775  1736A      2.407302  
    1737A      2.426205  1738A      2.428351  1739A      2.429418  
    1740A      2.431936  1741A      2.438470  1742A      2.444579  
    1743A      2.445563  1744A      2.446578  1745A      2.453146  
    1746A      2.461062  1747A      2.472634  1748A      2.473046  
    1749A      2.474906  1750A      2.478131  1751A      2.479436  
    1752A      2.481760  1753A      2.484726  1754A      2.485583  
    1755A      2.486146  1756A      2.486804  1757A      2.487425  
    1758A      2.488327  1759A      2.498153  1760A      2.506307  
    1761A      2.509118  1762A      2.518397  1763A      2.520659  
    1764A      2.521762  1765A      2.522753  1766A      2.523829  
    1767A      2.525720  1768A      2.527758  1769A      2.527962  
    1770A      2.533321  1771A      2.535827  1772A      2.537776  
    1773A      2.539887  1774A      2.548721  1775A      2.549424  
    1776A      2.550723  1777A      2.551146  1778A      2.555754  
    1779A      2.560263  1780A      2.568190  1781A      2.569153  
    1782A      2.574181  1783A      2.578580  1784A      2.579843  
    1785A      2.580447  1786A      2.582312  1787A      2.585853  
    1788A      2.587750  1789A      2.592612  1790A      2.593123  
    1791A      2.594554  1792A      2.596394  1793A      2.596859  
    1794A      2.604192  1795A      2.605656  1796A      2.607183  
    1797A      2.609164  1798A      2.609729  1799A      2.616266  
    1800A      2.618265  1801A      2.623362  1802A      2.623649  
    1803A      2.625415  1804A      2.625702  1805A      2.628267  
    1806A      2.629553  1807A      2.631129  1808A      2.632127  
    1809A      2.634173  1810A      2.644003  1811A      2.656047  
    1812A      2.658697  1813A      2.661877  1814A      2.666043  
    1815A      2.666898  1816A      2.668943  1817A      2.670609  
    1818A      2.682589  1819A      2.689117  1820A      2.698395  
    1821A      2.699361  1822A      2.707624  1823A      2.710244  
    1824A      2.714099  1825A      2.715243  1826A      2.731074  
    1827A      2.731586  1828A      2.733651  1829A      2.734124  
    1830A      2.735078  1831A      2.739435  1832A      2.744381  
    1833A      2.746325  1834A      2.747844  1835A      2.751036  
    1836A      2.751867  1837A      2.755924  1838A      2.758786  
    1839A      2.760493  1840A      2.768489  1841A      2.773488  
    1842A      2.775802  1843A      2.776245  1844A      2.779645  
    1845A      2.781541  1846A      2.783937  1847A      2.796313  
    1848A      2.797915  1849A      2.800545  1850A      2.804576  
    1851A      2.805959  1852A      2.807548  1853A      2.814079  
    1854A      2.815555  1855A      2.824036  1856A      2.825078  
    1857A      2.831199  1858A      2.854364  1859A      2.855714  
    1860A      2.858541  1861A      2.864321  1862A      2.866527  
    1863A      2.867292  1864A      2.872956  1865A      2.876440  
    1866A      2.899526  1867A      2.899857  1868A      2.906769  
    1869A      2.910341  1870A      2.913124  1871A      2.925443  
    1872A      2.931496  1873A      2.952150  1874A      2.963468  
    1875A      2.964948  1876A      2.975545  1877A      2.980946  
    1878A      2.984977  1879A      2.986399  1880A      2.988180  
    1881A      2.990870  1882A      2.992350  1883A      3.001087  
    1884A      3.005585  1885A      3.007453  1886A      3.048070  
    1887A      3.050749  1888A      3.052781  1889A      3.058164  
    1890A      3.065008  1891A      3.066567  1892A      3.068554  
    1893A      3.072762  1894A      3.075313  1895A      3.081032  
    1896A      3.083794  1897A      3.089216  1898A      3.091724  
    1899A      3.092080  1900A      3.092608  1901A      3.095118  
    1902A      3.098890  1903A      3.099866  1904A      3.111712  
    1905A      3.114640  1906A      3.115428  1907A      3.120923  
    1908A      3.132438  1909A      3.133120  1910A      3.143935  
    1911A      3.158894  1912A      3.191588  1913A      3.196560  
    1914A      3.197785  1915A      3.199066  1916A      3.200282  
    1917A      3.201352  1918A      3.207080  1919A      3.208261  
    1920A      3.212748  1921A      3.213109  1922A      3.235102  
    1923A      3.236037  1924A      3.243082  1925A      3.248429  
    1926A      3.295304  1927A      3.296173  1928A      3.307463  
    1929A      3.349865  1930A      3.366241  1931A      3.376323  
    1932A      3.385853  1933A      3.392008  1934A      3.397268  
    1935A      3.399941  1936A      3.404591  1937A      3.408265  
    1938A      3.416214  1939A      3.426557  1940A      3.438560  
    1941A      3.441619  1942A      3.449213  1943A      3.462501  
    1944A      3.495827  1945A      3.507408  1946A      3.515874  
    1947A      3.525595  1948A      3.527062  1949A      3.548658  
    1950A      3.604416  1951A      3.607255  1952A      3.611948  
    1953A      3.627939  1954A      3.632091  1955A      3.647798  
    1956A      3.691739  1957A      3.693671  1958A      3.702991  
    1959A      3.713936  1960A      3.714929  1961A      3.766315  
    1962A      3.780638  1963A      3.786688  1964A      3.812162  
    1965A      3.816044  1966A      3.854814  1967A      3.867398  
    1968A      3.882125  1969A      3.883231  1970A      3.886673  
    1971A      3.906675  1972A      3.917805  1973A      3.929025  
    1974A      3.954976  1975A      3.956906  1976A      3.969957  
    1977A      4.040893  1978A      4.202986  1979A      4.265158  
    1980A      4.367676  

    Final Occupation by Irrep:
              A 
    DOCC [   326 ]
    NA   [   326 ]
    NB   [   326 ]

  @DF-RHF Final Energy: -3953.65703435516207

   => Energetics <=

    Nuclear Repulsion Energy =          18258.8381953792086279
    One-Electron Energy =              -41722.2054269347863737
    Two-Electron Energy =               19509.7101972004165873
    Total Energy =                      -3953.6570343551611586

Computation Completed


Properties will be evaluated at   0.000000,   0.000000,   0.000000 [a0]

Properties computed using the SCF density matrix


 Multipole Moments:

 ------------------------------------------------------------------------------------
     Multipole            Electronic (a.u.)      Nuclear  (a.u.)        Total (a.u.)
 ------------------------------------------------------------------------------------

 L = 1.  Multiply by 2.5417464519 to convert [e a0] to [Debye]
 Dipole X            :         -0.0062145            0.0004804           -0.0057341
 Dipole Y            :         -7.3357728            8.7122315            1.3764587
 Dipole Z            :         18.6186474          -23.6212722           -5.0026249
 Magnitude           :                                                    5.1885380

 ------------------------------------------------------------------------------------

*** tstop() called on n2cn0577 at Sat Jan 27 01:48:28 2024
Module time:
	user time   =   30243.46 seconds =     504.06 minutes
	system time =    2227.18 seconds =      37.12 minutes
	total time  =       5670 seconds =      94.50 minutes
Total time:
	user time   =   30243.46 seconds =     504.06 minutes
	system time =    2227.18 seconds =      37.12 minutes
	total time  =       5670 seconds =      94.50 minutes

  //>>>>>>>>>>>>>>>>>>>>>>>>>>>>>>>>>>>//
  //            Monomer A HF           //
  //<<<<<<<<<<<<<<<<<<<<<<<<<<<<<<<<<<<//

   => Libint2 <=

    Primary   basis highest AM E, G, H:  5, 4, 3
    Auxiliary basis highest AM E, G, H:  6, 5, 4
    Onebody   basis highest AM E, G, H:  6, 5, 4
    Solid Harmonics ordering:            gaussian

*** tstart() called on n2cn0577
*** at Sat Jan 27 01:48:28 2024

   => Loading Basis Set <=

    Name: JUN-CC-PVDZ
    Role: ORBITAL
    Keyword: BASIS
    atoms 1-2, 4-5, 10, 17-34, 41-53, 56-70, 73-89, 92-104, 109-119, 122-130 entry C          line   164 file /opt/software/pc2/EB-SW/software/PSI4/1.9-foss-2022a/share/psi4/basis/jun-cc-pvdz.gbs 
    atoms 3, 6                                                               entry N          line   198 file /opt/software/pc2/EB-SW/software/PSI4/1.9-foss-2022a/share/psi4/basis/jun-cc-pvdz.gbs 
    atoms 7-9, 11-16, 35-40, 54-55, 71-72, 90-91, 105-108, 120-121, 131-136  entry H          line    36 file /opt/software/pc2/EB-SW/software/PSI4/1.9-foss-2022a/share/psi4/basis/jun-cc-pvdz.gbs 


         ---------------------------------------------------------
                                   SCF
               by Justin Turney, Rob Parrish, Andy Simmonett
                          and Daniel G. A. Smith
                              RHF Reference
                       16 Threads,  61035 MiB Core
         ---------------------------------------------------------

  ==> Geometry <==

    Molecular point group: c1
    Full point group: C1

    Geometry (in Angstrom), charge = 1, multiplicity = 1:

       Center              X                  Y                   Z               Mass       
    ------------   -----------------  -----------------  -----------------  -----------------
         C            0.680062820275     1.308604348936    -5.095717220331    12.000000000000
         C           -0.680508179725     1.310632348936    -5.095333220331    12.000000000000
         N           -1.085639179725     1.311630348936    -3.777009220331    14.003074004430
[...]
    1594A      2.213157  1595A      2.214914  1596A      2.217234  
    1597A      2.218920  1598A      2.220839  1599A      2.222694  
    1600A      2.223235  1601A      2.225385  1602A      2.228063  
    1603A      2.229341  1604A      2.230647  1605A      2.231848  
    1606A      2.232534  1607A      2.234190  1608A      2.235237  
    1609A      2.238118  1610A      2.240332  1611A      2.242079  
    1612A      2.244121  1613A      2.246932  1614A      2.249185  
    1615A      2.249485  1616A      2.255073  1617A      2.257364  
    1618A      2.261093  1619A      2.263931  1620A      2.264763  
    1621A      2.266265  1622A      2.268595  1623A      2.270198  
    1624A      2.271506  1625A      2.275539  1626A      2.280430  
    1627A      2.280953  1628A      2.283331  1629A      2.287027  
    1630A      2.292135  1631A      2.295377  1632A      2.297088  
    1633A      2.297382  1634A      2.299264  1635A      2.302274  
    1636A      2.305067  1637A      2.307238  1638A      2.313641  
    1639A      2.320778  1640A      2.322844  1641A      2.325083  
    1642A      2.327032  1643A      2.329892  1644A      2.330667  
    1645A      2.330823  1646A      2.331470  1647A      2.333976  
    1648A      2.335485  1649A      2.337286  1650A      2.340308  
    1651A      2.340635  1652A      2.342474  1653A      2.343798  
    1654A      2.345911  1655A      2.346407  1656A      2.347500  
    1657A      2.349262  1658A      2.349637  1659A      2.351763  
    1660A      2.353620  1661A      2.365772  1662A      2.373026  
    1663A      2.376704  1664A      2.382606  1665A      2.384521  
    1666A      2.388330  1667A      2.390221  1668A      2.396978  
    1669A      2.397981  1670A      2.403029  1671A      2.404628  
    1672A      2.415026  1673A      2.418165  1674A      2.419320  
    1675A      2.423358  1676A      2.427799  1677A      2.428735  
    1678A      2.432320  1679A      2.441215  1680A      2.443927  
    1681A      2.445778  1682A      2.449070  1683A      2.453496  
    1684A      2.458439  1685A      2.464905  1686A      2.466496  
    1687A      2.467998  1688A      2.469767  1689A      2.472046  
    1690A      2.472465  1691A      2.477267  1692A      2.485668  
    1693A      2.492200  1694A      2.492616  1695A      2.497845  
    1696A      2.503952  1697A      2.508315  1698A      2.509713  
    1699A      2.512439  1700A      2.515756  1701A      2.517069  
    1702A      2.520761  1703A      2.539090  1704A      2.540806  
    1705A      2.541066  1706A      2.542359  1707A      2.545105  
    1708A      2.546266  1709A      2.546765  1710A      2.548751  
    1711A      2.551974  1712A      2.554530  1713A      2.555682  
    1714A      2.557204  1715A      2.559033  1716A      2.564940  
    1717A      2.571328  1718A      2.572331  1719A      2.574379  
    1720A      2.580746  1721A      2.583913  1722A      2.585847  
    1723A      2.586330  1724A      2.586540  1725A      2.589182  
    1726A      2.591366  1727A      2.593147  1728A      2.594057  
    1729A      2.595104  1730A      2.603126  1731A      2.604012  
    1732A      2.611814  1733A      2.614366  1734A      2.615635  
    1735A      2.616114  1736A      2.617787  1737A      2.619394  
    1738A      2.621641  1739A      2.635111  1740A      2.639301  
    1741A      2.643714  1742A      2.644149  1743A      2.646054  
    1744A      2.648231  1745A      2.649912  1746A      2.651408  
    1747A      2.654442  1748A      2.658096  1749A      2.659544  
    1750A      2.660655  1751A      2.663077  1752A      2.666881  
    1753A      2.669225  1754A      2.671344  1755A      2.672868  
    1756A      2.676002  1757A      2.679431  1758A      2.681032  
    1759A      2.683253  1760A      2.684051  1761A      2.687761  
    1762A      2.691352  1763A      2.691910  1764A      2.692663  
    1765A      2.694389  1766A      2.696022  1767A      2.696900  
    1768A      2.699028  1769A      2.706722  1770A      2.710289  
    1771A      2.721233  1772A      2.725008  1773A      2.727924  
    1774A      2.731361  1775A      2.731947  1776A      2.733370  
    1777A      2.736669  1778A      2.746600  1779A      2.751194  
    1780A      2.758487  1781A      2.763910  1782A      2.768692  
    1783A      2.770615  1784A      2.780548  1785A      2.781269  
    1786A      2.783383  1787A      2.793426  1788A      2.799371  
    1789A      2.800630  1790A      2.801157  1791A      2.802386  
    1792A      2.802868  1793A      2.805192  1794A      2.811604  
    1795A      2.816269  1796A      2.817480  1797A      2.819061  
    1798A      2.822523  1799A      2.824362  1800A      2.828648  
    1801A      2.833031  1802A      2.835362  1803A      2.841962  
    1804A      2.843787  1805A      2.847424  1806A      2.849687  
    1807A      2.853755  1808A      2.858030  1809A      2.866944  
    1810A      2.867471  1811A      2.872079  1812A      2.874854  
    1813A      2.876807  1814A      2.891116  1815A      2.896350  
    1816A      2.897325  1817A      2.918092  1818A      2.918808  
    1819A      2.921457  1820A      2.928653  1821A      2.931119  
    1822A      2.936138  1823A      2.936942  1824A      2.941918  
    1825A      2.953591  1826A      2.957861  1827A      2.967054  
    1828A      2.968194  1829A      2.971349  1830A      2.977552  
    1831A      2.983568  1832A      2.996482  1833A      3.002813  
    1834A      3.008250  1835A      3.015554  1836A      3.030093  
    1837A      3.033241  1838A      3.036892  1839A      3.046661  
    1840A      3.049282  1841A      3.049999  1842A      3.052056  
    1843A      3.059049  1844A      3.061080  1845A      3.063282  
    1846A      3.068141  1847A      3.073417  1848A      3.095544  
    1849A      3.110840  1850A      3.113810  1851A      3.115626  
    1852A      3.120147  1853A      3.124931  1854A      3.131656  
    1855A      3.133289  1856A      3.134347  1857A      3.139422  
    1858A      3.141784  1859A      3.145301  1860A      3.147881  
    1861A      3.151061  1862A      3.154965  1863A      3.155699  
    1864A      3.161000  1865A      3.162723  1866A      3.166065  
    1867A      3.169127  1868A      3.173175  1869A      3.176039  
    1870A      3.178606  1871A      3.186937  1872A      3.195430  
    1873A      3.200306  1874A      3.207387  1875A      3.222178  
    1876A      3.256801  1877A      3.262747  1878A      3.263007  
    1879A      3.264591  1880A      3.266047  1881A      3.268201  
    1882A      3.273073  1883A      3.273835  1884A      3.277810  
    1885A      3.278098  1886A      3.301488  1887A      3.302596  
    1888A      3.307652  1889A      3.311836  1890A      3.317621  
    1891A      3.358096  1892A      3.364149  1893A      3.367510  
    1894A      3.378557  1895A      3.404598  1896A      3.420706  
    1897A      3.435133  1898A      3.445078  1899A      3.458742  
    1900A      3.464037  1901A      3.468601  1902A      3.471073  
    1903A      3.476134  1904A      3.478902  1905A      3.490231  
    1906A      3.495890  1907A      3.502613  1908A      3.507057  
    1909A      3.512332  1910A      3.531293  1911A      3.535854  
    1912A      3.561449  1913A      3.569843  1914A      3.584014  
    1915A      3.591932  1916A      3.593475  1917A      3.607251  
    1918A      3.652006  1919A      3.659760  1920A      3.672822  
    1921A      3.680301  1922A      3.700445  1923A      3.702331  
    1924A      3.717209  1925A      3.757767  1926A      3.762599  
    1927A      3.766557  1928A      3.770735  1929A      3.779216  
    1930A      3.783694  1931A      3.823119  1932A      3.840695  
    1933A      3.847349  1934A      3.853067  1935A      3.877811  
    1936A      3.881624  1937A      3.883658  1938A      3.921686  
    1939A      3.934011  1940A      3.948980  1941A      3.950111  
    1942A      3.952599  1943A      3.967994  1944A      3.987398  
    1945A      3.990726  1946A      4.004968  1947A      4.025166  
    1948A      4.027811  1949A      4.088954  1950A      4.110460  
    1951A      4.235337  1952A      4.255080  1953A      4.303649  
    1954A      4.347090  1955A      4.426554  1956A      4.447595  
    1957A      4.457022  1958A      4.528879  1959A      4.817479  
    1960A      4.857214  1961A      4.910793  1962A      4.934457  
    1963A      4.981200  1964A      5.087842  1965A      5.097810  
    1966A      5.113216  1967A      5.149301  1968A      5.233593  
    1969A      5.428261  1970A      5.445424  1971A      5.775679  
    1972A      5.808398  1973A      6.081992  1974A     18.207392  
    1975A     18.492749  1976A     18.520077  1977A     18.606818  
    1978A     18.861882  1979A     25.360034  1980A     25.394873  

    Final Occupation by Irrep:
              A 
    DOCC [   300 ]
    NA   [   300 ]
    NB   [   300 ]

  @DF-RHF Final Energy: -3650.34161715017308

   => Energetics <=

    Nuclear Repulsion Energy =          15611.4211649754306563
    One-Electron Energy =              -36072.1938088505994529
    Two-Electron Energy =               16810.4310267249966273
    Total Energy =                      -3650.3416171501739882

Computation Completed


Properties will be evaluated at   0.000000,   0.000000,   0.000000 [a0]

Properties computed using the SCF density matrix


 Multipole Moments:

 ------------------------------------------------------------------------------------
     Multipole            Electronic (a.u.)      Nuclear  (a.u.)        Total (a.u.)
 ------------------------------------------------------------------------------------

 L = 1.  Multiply by 2.5417464519 to convert [e a0] to [Debye]
 Dipole X            :         -0.0008079            0.0002112           -0.0005967
 Dipole Y            :        123.2196721         -123.2131634            0.0065087
 Dipole Z            :       -363.0648727          363.0709313            0.0060586
 Magnitude           :                                                    0.0089121

 ------------------------------------------------------------------------------------

*** tstop() called on n2cn0577 at Sat Jan 27 03:15:56 2024
Module time:
	user time   =   20193.37 seconds =     336.56 minutes
	system time =    1621.85 seconds =      27.03 minutes
	total time  =       3516 seconds =      58.60 minutes
Total time:
	user time   =   56929.02 seconds =     948.82 minutes
	system time =    4407.89 seconds =      73.46 minutes
	total time  =      10918 seconds =     181.97 minutes
  Constructing Basis Sets for SAPT...

   => Loading Basis Set <=

    Name: (JUN-CC-PVDZ AUX)
    Role: RIFIT
    Keyword: DF_BASIS_SAPT
    atoms 1-2, 4-5, 10, 17-34, 41-53, 56-70, 73-89, 92-104, 109-119, 122-130 entry C          line   100 file /opt/software/pc2/EB-SW/software/PSI4/1.9-foss-2022a/share/psi4/basis/jun-cc-pvdz-ri.gbs 
    atoms 3, 6                                                               entry N          line   144 file /opt/software/pc2/EB-SW/software/PSI4/1.9-foss-2022a/share/psi4/basis/jun-cc-pvdz-ri.gbs 
    atoms 7-9, 11-16, 35-40, 54-55, 71-72, 90-91, 105-108, 120-121, 131-136  entry H          line    30 file /opt/software/pc2/EB-SW/software/PSI4/1.9-foss-2022a/share/psi4/basis/jun-cc-pvdz-ri.gbs 

   => Loading Basis Set <=

    Name: (JUN-CC-PVDZ AUX)
    Role: JKFIT
    Keyword: DF_BASIS_ELST
    atoms 1-2, 4-5, 10, 17-34, 41-53, 56-70, 73-89, 92-104, 109-119, 122-130 entry C          line   146 file /opt/software/pc2/EB-SW/software/PSI4/1.9-foss-2022a/share/psi4/basis/jun-cc-pvdz-jkfit.gbs 
    atoms 3, 6                                                               entry N          line   202 file /opt/software/pc2/EB-SW/software/PSI4/1.9-foss-2022a/share/psi4/basis/jun-cc-pvdz-jkfit.gbs 
    atoms 7-9, 11-16, 35-40, 54-55, 71-72, 90-91, 105-108, 120-121, 131-136  entry H          line    70 file /opt/software/pc2/EB-SW/software/PSI4/1.9-foss-2022a/share/psi4/basis/jun-cc-pvdz-jkfit.gbs 


  //>>>>>>>>>>>>>>>>>>>>>>>>>>>>>>>>>>>//
  //               SSAPT0              //
  //<<<<<<<<<<<<<<<<<<<<<<<<<<<<<<<<<<<//


*** tstart() called on n2cn0577
*** at Sat Jan 27 03:15:58 2024

        SAPT0  
    Ed Hohenstein
     6 June 2009

      Orbital Information
  --------------------------
    NSO        =      2019
    NMO        =      1980
    NRI        =      7157
    NRI (Elst) =      8896
    NOCC A     =        26
    NOCC B     =       300
    FOCC A     =         7
    FOCC B     =        96
    NVIR A     =      1954
    NVIR B     =      1680

    Elst10,r            =    -0.018418157850 [Eh]
    Exch10              =     0.023137909216 [Eh]
    Exch10 (S^2)        =     0.022983210967 [Eh]

    Iter     Energy [mEh]          dE [mEh]         Residual      Time [s]
       1      -1.56200411       1.562004107       5.764314830           297
       2      -1.88192721       0.319923102       1.863984301           588
       3      -1.91804914       0.036121933       0.289974590           849
       4      -1.91484107      -0.003208073       0.085793225          1083
       5      -1.91425284      -0.000588230       0.018880119          1298
       6      -1.91445675       0.000203914       0.005121644          1569
       7      -1.91444976      -0.000006988       0.003028276          1837
       8      -1.91443470      -0.000015068       0.001056878          2064
       9      -1.91443605       0.000001351       0.000334107          2277
      10      -1.91443724       0.000001192       0.000104212          2654
      11      -1.91443728       0.000000044       0.000030987          2848
      12      -1.91443718      -0.000000108       0.000008832          3059
      13      -1.91443716      -0.000000011       0.000002379          3258
      14      -1.91443717       0.000000009       0.000000707          3487

    CHF Iterations converged


    Iter     Energy [mEh]          dE [mEh]         Residual      Time [s]
       1     -28.88637958      28.886379575      86.805436642           245
       2     -20.31640387      -8.569975703      12.548964330           509
       3     -20.71219262       0.395788744       5.567228939           758
       4     -21.37863200       0.666439384       1.528738402          1002
       5     -21.42650905       0.047877045       0.659250794          1261
       6     -21.39529087      -0.031218177       0.415106085          1480
       7     -21.38318189      -0.012108981       0.219926825          1696
       8     -21.39062590       0.007444011       0.141890961          2000
       9     -21.39488720       0.004261300       0.087201064          2230
      10     -21.39235367      -0.002533531       0.058628605          2485
      11     -21.39158882      -0.000764850       0.027459222          2742
      12     -21.39191405       0.000325234       0.014227081          3008
      13     -21.39220018       0.000286127       0.006544281          3266
      14     -21.39217301      -0.000027165       0.003695282          3521
      15     -21.39211871      -0.000054301       0.001881229          3753
      16     -21.39210564      -0.000013069       0.000795121          4018
      17     -21.39212233       0.000016692       0.000432417          4227
      18     -21.39212626       0.000003925       0.000264268          4495
      19     -21.39212238      -0.000003880       0.000144916          4725
      20     -21.39212036      -0.000002020       0.000061940          4997
      21     -21.39212103       0.000000667       0.000031489          5219
      22     -21.39212153       0.000000500       0.000014712          5416
      23     -21.39212144      -0.000000091       0.000008898          5601
      24     -21.39212130      -0.000000137       0.000005282          5809
      25     -21.39212130       0.000000001       0.000002926          6031
      26     -21.39212135       0.000000047       0.000001352          6239
      27     -21.39212135       0.000000004       0.000000586          6517

    CHF Iterations converged

    Ind20,r (A<-B)      =    -0.001914437174 [Eh]
    Ind20,r (B<-A)      =    -0.021392121349 [Eh]
    Ind20,r             =    -0.023306558523 [Eh]
    Exch-Ind20,r (A<-B) =     0.001812620655 [Eh]
    Exch-Ind20,r (B<-A) =     0.004438341878 [Eh]
    Exch-Ind20,r        =     0.006250962533 [Eh]
    Disp20              =    -0.027414194923 [Eh]
    Disp20 (SS)         =    -0.013707097462 [Eh]
    Disp20 (OS)         =    -0.013707097462 [Eh]
    Exch-Disp20         =     0.001772615862 [Eh]
    Exch-Disp20 (SS)    =     0.001091517853 [Eh]
    Exch-Disp20 (OS)    =     0.000681098009 [Eh]

    SAPT Results 
  --------------------------------------------------------------------------------------------------------
    Electrostatics                -18.41815785 [mEh]     -11.55756854 [kcal/mol]     -48.35686677 [kJ/mol]
      Elst10,r                    -18.41815785 [mEh]     -11.55756854 [kcal/mol]     -48.35686677 [kJ/mol]

    Exchange                       23.13790922 [mEh]      14.51925724 [kcal/mol]      60.74857228 [kJ/mol]
      Exch10                       23.13790922 [mEh]      14.51925724 [kcal/mol]      60.74857228 [kJ/mol]
      Exch10(S^2)                  22.98321097 [mEh]      14.42218262 [kcal/mol]      60.34241208 [kJ/mol]

    Induction                     -21.67916444 [mEh]     -13.60388107 [kcal/mol]     -56.91863840 [kJ/mol]
      Ind20,r                     -23.30655852 [mEh]     -14.62508627 [kcal/mol]     -61.19136097 [kJ/mol]
      Exch-Ind20,r                  6.25096253 [mEh]       3.92253821 [kcal/mol]      16.41189987 [kJ/mol]
      delta HF,r (2)               -4.62356845 [mEh]      -2.90133301 [kcal/mol]     -12.13917730 [kJ/mol]

    Dispersion                    -25.64157906 [mEh]     -16.09033378 [kcal/mol]     -67.32195655 [kJ/mol]
      Disp20                      -27.41419492 [mEh]     -17.20266703 [kcal/mol]     -71.97595886 [kJ/mol]
      Exch-Disp20                   1.77261586 [mEh]       1.11233325 [kcal/mol]       4.65400230 [kJ/mol]
      Disp20 (SS)                 -13.70709746 [mEh]      -8.60133352 [kcal/mol]     -35.98797943 [kJ/mol]
      Disp20 (OS)                 -13.70709746 [mEh]      -8.60133352 [kcal/mol]     -35.98797943 [kJ/mol]
      Exch-Disp20 (SS)              1.09151785 [mEh]       0.68493779 [kcal/mol]       2.86577973 [kJ/mol]
      Exch-Disp20 (OS)              0.68109801 [mEh]       0.42739545 [kcal/mol]       1.78822258 [kJ/mol]

  Total HF                        -16.95941308 [mEh]     -10.64219238 [kcal/mol]     -44.52693290 [kJ/mol]
  Total SAPT0                     -42.60099214 [mEh]     -26.73252616 [kcal/mol]    -111.84888945 [kJ/mol]

  Special recipe for scaled SAPT0 (see Manual):
    Electrostatics sSAPT0         -18.41815785 [mEh]     -11.55756854 [kcal/mol]     -48.35686677 [kJ/mol]
    Exchange sSAPT0                23.13790922 [mEh]      14.51925724 [kcal/mol]      60.74857228 [kJ/mol]
    Induction sSAPT0              -21.55208867 [mEh]     -13.52413982 [kcal/mol]     -56.58500100 [kJ/mol]
    Dispersion sSAPT0             -25.60554357 [mEh]     -16.06772117 [kcal/mol]     -67.22734537 [kJ/mol]
  Total sSAPT0                    -42.43788087 [mEh]     -26.63017229 [kcal/mol]    -111.42064087 [kJ/mol]
  --------------------------------------------------------------------------------------------------------

*** tstop() called on n2cn0577 at Sat Jan 27 10:52:43 2024
Module time:
	user time   =   91383.41 seconds =    1523.06 minutes
	system time =    4498.36 seconds =      74.97 minutes
	total time  =      27405 seconds =     456.75 minutes
Total time:
	user time   =  148313.85 seconds =    2471.90 minutes
	system time =    8906.25 seconds =     148.44 minutes
	total time  =      38325 seconds =     638.75 minutes

    Psi4 stopped on: Saturday, 27 January 2024 10:52AM
    Psi4 wall time for execution: 10:38:46.16

*** Psi4 exiting successfully. Buy a developer a beer!
