
    -----------------------------------------------------------------------
          Psi4: An Open-Source Ab Initio Electronic Structure Package
                               Psi4 1.9 release

                         Git: Rev {} zzzzzzz 


    D. G. A. Smith, L. A. Burns, A. C. Simmonett, R. M. Parrish,
    M. C. Schieber, R. Galvelis, P. Kraus, H. Kruse, R. Di Remigio,
    A. Alenaizan, A. M. James, S. Lehtola, J. P. Misiewicz, M. Scheurer,
    R. A. Shaw, J. B. Schriber, Y. Xie, Z. L. Glick, D. A. Sirianni,
    J. S. O'Brien, J. M. Waldrop, A. Kumar, E. G. Hohenstein,
    B. P. Pritchard, B. R. Brooks, H. F. Schaefer III, A. Yu. Sokolov,
    K. Patkowski, A. E. DePrince III, U. Bozkaya, R. A. King,
    F. A. Evangelista, J. M. Turney, T. D. Crawford, C. D. Sherrill,
    J. Chem. Phys. 152(18) 184108 (2020). https://doi.org/10.1063/5.0006002

                            Additional Code Authors
    E. T. Seidl, C. L. Janssen, E. F. Valeev, M. L. Leininger,
    J. F. Gonthier, R. M. Richard, H. R. McAlexander, M. Saitow, X. Wang,
    P. Verma, M. H. Lechner, A. Jiang, S. Behnle, A. G. Heide,
    M. F. Herbst, and D. L. Poole

             Previous Authors, Complete List of Code Contributors,
                       and Citations for Specific Modules
    https://github.com/psi4/psi4/blob/master/codemeta.json
    https://github.com/psi4/psi4/graphs/contributors
    http://psicode.org/psi4manual/master/introduction.html#citing-psifour

    -----------------------------------------------------------------------


    Psi4 started on: Saturday, 20 January 2024 11:34PM

    Process ID: 3316193
    Host:       d-6-9-4
    PSIDATADIR: /home/gridsan/tfroembgen/.conda/envs/psi4test/share/psi4
    Memory:     500.0 MiB
    Threads:    12
    
  ==> Input File <==

--------------------------------------------------------------------------
memory 32 GB # how much memory is available ! Depends on the nodes/cores !

molecule dimer {
# monomer A
-1 1    # Charge and multiplicity
B -1.977592e-04  2.742729e-04 2.200034
F  1.123153e-16  1.430594e-17 3.612819
F  1.147860e+00  6.757812e-01 1.728893
F  1.191806e-02 -1.332011e+00 1.729095
F -1.159666e+00  6.560735e-01 1.729174
--
# monomer B
0 1     # Charge and multiplicity
C   1.22531237526482      0.70753866091955      0.00613762728373
C   1.22532433589282     -0.70753852257020     -0.00619318228664
C   -0.00000567409046      1.41496628609039     -0.00672680580738
C   2.45644923379077      1.41832825917820      0.00902448468363
C   0.00001130712078     -1.41497612663474      0.00347275151708
C   -1.22530046906674      0.70754574598412      0.00838914760619
C   2.45643823516184     -1.41832293188077     -0.00843833914343
C   -0.00000085313587      2.83680140328112     -0.00913035594137
C   3.68182717731192      0.70931832800114     -0.00808954934571
C   2.45512052870677      2.83422403348893     -0.00819210630633
C   3.68182158506039     -0.70933346742900      0.00798293467272
C   -1.22531311884624     -0.70752714354401     -0.00512042085974
C   1.22670006104402      3.54346985599427      0.00816696660346
C   0.00000526469929     -2.83678176723568      0.00832091913869
C   -2.45643555300670      1.41831729028492      0.00842454345199
C   2.45512389762097     -2.83422965658853      0.00783102630520
C   -1.22671388474763      3.54346943575023      0.00827029982280
C   4.91451777504333      1.42717324448953     -0.00160886631602
C   3.69315067131765      3.54279566454522     -0.00155906667985
C   -2.45643712022637     -1.41831290883911     -0.00846337726810
C   1.22670532178455     -3.54347386990643     -0.00780316414624
C   -2.45512491866593      2.83421703463423     -0.00818572995999
C   4.91452486062398     -1.42718653794377      0.00136387641845
C   1.22142509354026      4.97013443726031      0.00150231067809
C   4.89300870916237      2.82518837202648     -0.00039219795739
C   -1.22669652864725     -3.54347062507680     -0.00753595973677
C   -3.68181849668397      0.70932533873199     -0.00807686886569
C   3.69314758099218     -3.54280096939050      0.00148176697923
C   -1.22143177215231      4.97012866986289      0.00168580605083
C   6.13477145276790      0.68054831910577     -0.00083909176631
C   3.65678936045204      4.97295361556775     -0.00065042889723
C   -2.45512642789169     -2.83421472106065      0.00758666850712
C   -3.68181869921921     -0.70932533146830      0.00810055625144
C   4.89301309775526     -2.82519973363176      0.00021895393805
C   -0.00000059327114      5.65044773803267      0.00045449734393
C   6.13477559217374     -0.68055448207492      0.00042622874941
C   2.47813196269732      5.65357712333155      0.00063835075260
C   1.22142288457925     -4.97012668293268     -0.00129718634452
C   -3.69316190412301      3.54279732619245     -0.00139355922051
C   -1.22142804110313     -4.97011793159564     -0.00140994817719
C   -4.91452132810043      1.42717581899491     -0.00153192130862
C   3.65678749952045     -4.97295485423912      0.00080007163680
C   -2.47813805026426      5.65357479452875      0.00092287576113
C   -3.69314125872231     -3.54278984697859      0.00136564082345
C   -4.91451200321153     -1.42718062802730      0.00139857359209
C   -0.00000552908399     -5.65043791501335      0.00005899322272
C   -4.89302000425900      2.82518897091939     -0.00040227981744
C   2.47812647313991     -5.65357317188818     -0.00029052915548
C   -3.65679823041642      4.97295655404175     -0.00047374852278
C   -4.89299899901461     -2.82519139505969      0.00006491824035
C   -2.47812801824129     -5.65356579800621     -0.00056571680280
C   -6.13477002348955      0.68054913825639     -0.00086464346868
C   -3.65678835334731     -4.97294365097028      0.00058578382008
C   -6.13476456307132     -0.68055354348201      0.00040575295444
H   5.83528897565761      3.36927626695423      0.00396712770529
H   7.07385965258860      1.22821762089947     -0.00037744837300
H   4.60066374401555      5.51238117445323     -0.00014522814529
H   5.83528386714679     -3.36930568472863     -0.00423551337640
H   -0.00001167146422      6.73853104613662     -0.00389474766392
H   7.07386165167227     -1.22822657074368     -0.00008250934481
H   2.47331421164041      6.74068466339473      0.00017162982210
H   4.60066897122302     -5.51237575717576      0.00039007446835
H   -2.47331820069565      6.74068209160650      0.00047297644710
H   -0.00000978838621     -6.73852780445195      0.00458867820736
H   -5.83530143450167      3.36927132229595      0.00410314985360
H   2.47330840367253     -6.74068500242887      0.00027980126949
H   -4.60067436136587      5.51237839860371      0.00002010017831
H   -5.83527902699321     -3.36928859177951     -0.00451481925734
H   -2.47329986759855     -6.74067870613986     -0.00016951527498
H   -7.07385728692578      1.22822084484047     -0.00046143985387
H   -4.60067330624313     -5.51236229778631      0.00021776644566
H   -7.07385645456741     -1.22822025997701     -0.00017736581114

    units angstrom      # Angstroms are the default
    no_reorient         # Geometry fixed, default
    symmetry c1         # C1 symmetry, default
}

set {
    scf_type DF         # Density fitting, faster than exact integrals
    freeze_core True    # Freeze core electrons
    basis jun-cc-pVDZ   # Jun-cc-pVDZ basis set, recommended for sSAPT0 in https://doi.org/10.1063/1.4867135
}

energy('ssapt0')        # Compute sSAPT0 energy, includes also SAPT0
--------------------------------------------------------------------------

  Memory set to  29.802 GiB by Python driver.

Scratch directory: /state/partition1/slurm_tmp/24778964.4294967291.0/
   => Loading Basis Set <=

    Name: JUN-CC-PVDZ
    Role: ORBITAL
    Keyword: BASIS
    atoms 1     entry B          line   130 file /home/gridsan/tfroembgen/.conda/envs/psi4test/share/psi4/basis/jun-cc-pvdz.gbs 
    atoms 2-5   entry F          line   266 file /home/gridsan/tfroembgen/.conda/envs/psi4test/share/psi4/basis/jun-cc-pvdz.gbs 
    atoms 6-59  entry C          line   164 file /home/gridsan/tfroembgen/.conda/envs/psi4test/share/psi4/basis/jun-cc-pvdz.gbs 
    atoms 60-77 entry H          line    36 file /home/gridsan/tfroembgen/.conda/envs/psi4test/share/psi4/basis/jun-cc-pvdz.gbs 

   => Loading Basis Set <=

    Name: JUN-CC-PVDZ
    Role: ORBITAL
    Keyword: BASIS
    atoms 1     entry B          line   130 file /home/gridsan/tfroembgen/.conda/envs/psi4test/share/psi4/basis/jun-cc-pvdz.gbs 
    atoms 2-5   entry F          line   266 file /home/gridsan/tfroembgen/.conda/envs/psi4test/share/psi4/basis/jun-cc-pvdz.gbs 
    atoms 6-59  entry C          line   164 file /home/gridsan/tfroembgen/.conda/envs/psi4test/share/psi4/basis/jun-cc-pvdz.gbs 
    atoms 60-77 entry H          line    36 file /home/gridsan/tfroembgen/.conda/envs/psi4test/share/psi4/basis/jun-cc-pvdz.gbs 


  //>>>>>>>>>>>>>>>>>>>>>>>>>>>>>>>>>>>//
  //              Dimer HF             //
  //<<<<<<<<<<<<<<<<<<<<<<<<<<<<<<<<<<<//

   => Libint2 <=

    Primary   basis highest AM E, G, H:  7, 7, 4
    Auxiliary basis highest AM E, G, H:  7, 7, 5
    Onebody   basis highest AM E, G, H:  7, 7, 5
    Solid Harmonics ordering:            gaussian

*** tstart() called on d-6-9-4
*** at Sat Jan 20 23:34:06 2024

   => Loading Basis Set <=

    Name: JUN-CC-PVDZ
    Role: ORBITAL
    Keyword: BASIS
    atoms 1     entry B          line   130 file /home/gridsan/tfroembgen/.conda/envs/psi4test/share/psi4/basis/jun-cc-pvdz.gbs 
    atoms 2-5   entry F          line   266 file /home/gridsan/tfroembgen/.conda/envs/psi4test/share/psi4/basis/jun-cc-pvdz.gbs 
    atoms 6-59  entry C          line   164 file /home/gridsan/tfroembgen/.conda/envs/psi4test/share/psi4/basis/jun-cc-pvdz.gbs 
    atoms 60-77 entry H          line    36 file /home/gridsan/tfroembgen/.conda/envs/psi4test/share/psi4/basis/jun-cc-pvdz.gbs 


         ---------------------------------------------------------
                                   SCF
               by Justin Turney, Rob Parrish, Andy Simmonett
                          and Daniel G. A. Smith
                              RHF Reference
                       12 Threads,  30517 MiB Core
         ---------------------------------------------------------

  ==> Geometry <==

    Molecular point group: c1
    Full point group: C1

    Geometry (in Angstrom), charge = -1, multiplicity = 1:

       Center              X                  Y                   Z               Mass       
    ------------   -----------------  -----------------  -----------------  -----------------
         B           -0.000198161052     0.000273808717     1.945892941868    11.009305360000
         F           -0.000000401852    -0.000000464183     3.358677941868    18.998403162730
         F            1.147859598148     0.675780735817     1.474751941868    18.998403162730
         F            0.011917658148    -1.332011464183     1.474953941868    18.998403162730
         F           -1.159666401852     0.656073035817     1.475032941868    18.998403162730
         C            1.225311973413     0.707538196736    -0.248003430849    12.000000000000
         C            1.225323934041    -0.707538986754    -0.260334240419    12.000000000000
         C           -0.000006075942     1.414965821907    -0.260867863940    12.000000000000
         C            2.456448831939     1.418327794995    -0.245116573449    12.000000000000
         C            0.000010905269    -1.414976590818    -0.250668306615    12.000000000000
         C           -1.225300870919     0.707545281801    -0.245751910526    12.000000000000
         C            2.456437833310    -1.418323396064    -0.262579397276    12.000000000000
         C           -0.000001254988     2.836800939098    -0.263271414074    12.000000000000
         C            3.681826775460     0.709317863818    -0.262230607478    12.000000000000
         C            2.455120126855     2.834223569306    -0.262333164439    12.000000000000
         C            3.681821183209    -0.709333931612    -0.246158123460    12.000000000000
         C           -1.225313520698    -0.707527607727    -0.259261478992    12.000000000000
         C            1.226699659192     3.543469391811    -0.245974091529    12.000000000000
         C            0.000004862847    -2.836782231419    -0.245820138994    12.000000000000
         C           -2.456435954859     1.418316826102    -0.245716514680    12.000000000000
         C            2.455123495769    -2.834230120772    -0.246310031827    12.000000000000
         C           -1.226714286599     3.543468971567    -0.245870758310    12.000000000000
         C            4.914517373191     1.427172780306    -0.255749924448    12.000000000000
         C            3.693150269466     3.542795200362    -0.255700124812    12.000000000000
         C           -2.456437522078    -1.418313373022    -0.262604435400    12.000000000000
         C            1.226704919933    -3.543474334090    -0.261944222279    12.000000000000
         C           -2.455125320518     2.834216570451    -0.262326788092    12.000000000000
         C            4.914524458772    -1.427187002127    -0.252777181714    12.000000000000
         C            1.221424691688     4.970133973077    -0.252638747454    12.000000000000
         C            4.893008307311     2.825187907843    -0.254533256090    12.000000000000
         C           -1.226696930499    -3.543471089260    -0.261677017869    12.000000000000
         C           -3.681818898536     0.709324874549    -0.262217926998    12.000000000000
         C            3.693147179140    -3.542801433574    -0.252659291153    12.000000000000
         C           -1.221432174004     4.970128205680    -0.252455252081    12.000000000000
         C            6.134771050916     0.680547854922    -0.254980149899    12.000000000000
         C            3.656788958600     4.972953151384    -0.254791487030    12.000000000000
         C           -2.455126829744    -2.834215185244    -0.246554389625    12.000000000000
         C           -3.681819101071    -0.709325795652    -0.246040501881    12.000000000000
         C            4.893012695903    -2.825200197815    -0.253922104194    12.000000000000
         C           -0.000000995123     5.650447273849    -0.253686560788    12.000000000000
         C            6.134775190322    -0.680554946258    -0.253714829383    12.000000000000
         C            2.478131560845     5.653576659148    -0.253502707380    12.000000000000
         C            1.221422482727    -4.970127147116    -0.255438244477    12.000000000000
         C           -3.693162305975     3.542796862009    -0.255534617353    12.000000000000
         C           -1.221428442955    -4.970118395779    -0.255551006310    12.000000000000
         C           -4.914521729952     1.427175354812    -0.255672979441    12.000000000000
         C            3.656787097669    -4.972955318422    -0.253340986496    12.000000000000
         C           -2.478138452116     5.653574330345    -0.253218182371    12.000000000000
         C           -3.693141660574    -3.542790311162    -0.252775417309    12.000000000000
         C           -4.914512405063    -1.427181092211    -0.252742484540    12.000000000000
         C           -0.000005930936    -5.650438379197    -0.254082064910    12.000000000000
         C           -4.893020406111     2.825188506736    -0.254543337950    12.000000000000
         C            2.478126071288    -5.653573636072    -0.254431587288    12.000000000000
         C           -3.656798632268     4.972956089858    -0.254614806655    12.000000000000
         C           -4.892999400866    -2.825191859243    -0.254076139892    12.000000000000
         C           -2.478128420093    -5.653566262190    -0.254706774935    12.000000000000
         C           -6.134770425341     0.680548674073    -0.255005701601    12.000000000000
         C           -3.656788755199    -4.972944115154    -0.253555274312    12.000000000000
         C           -6.134764964923    -0.680554007665    -0.253735305178    12.000000000000
         H            5.835288573806     3.369275802771    -0.250173930427     1.007825032230
         H            7.073859250737     1.228217156716    -0.254518506505     1.007825032230
         H            4.600663342164     5.512380710270    -0.254286286278     1.007825032230
         H            5.835283465295    -3.369306148912    -0.258376571509     1.007825032230
         H           -0.000012073316     6.738530581953    -0.258035805796     1.007825032230
         H            7.073861249820    -1.228227034927    -0.254223567477     1.007825032230
         H            2.473313809789     6.740684199211    -0.253969428310     1.007825032230
         H            4.600668569371    -5.512376221359    -0.253750983664     1.007825032230
         H           -2.473318602548     6.740681627423    -0.253668081685     1.007825032230
         H           -0.000010190238    -6.738528268635    -0.249552379925     1.007825032230
         H           -5.835301836354     3.369270858113    -0.250037908279     1.007825032230
         H            2.473308001821    -6.740685466612    -0.253861256863     1.007825032230
         H           -4.600674763218     5.512377934420    -0.254120957954     1.007825032230
         H           -5.835279428845    -3.369289055963    -0.258655877390     1.007825032230
         H           -2.473300269450    -6.740679170323    -0.254310573407     1.007825032230
         H           -7.073857688778     1.228220380657    -0.254602497986     1.007825032230
         H           -4.600673708095    -5.512362761970    -0.253923291687     1.007825032230
         H           -7.073856856419    -1.228220724160    -0.254318423943     1.007825032230

  Running in c1 symmetry.

  Rotational constants: A =      0.00209  B =      0.00209  C =      0.00110 [cm^-1]
  Rotational constants: A =     62.58964  B =     62.58058  C =     33.02251 [MHz]
  Nuclear repulsion = 8207.533345714524330

  Charge       = -1
  Multiplicity = 1
  Electrons    = 384
  Nalpha       = 192
  Nbeta        = 192

  ==> Algorithm <==

  SCF Algorithm Type is DF.
  DIIS enabled.
  MOM disabled.
  Fractional occupation disabled.
  Guess Type is SAD.
  Energy threshold   = 1.00e-08
  Density threshold  = 1.00e-08
  Integral threshold = 1.00e-12

  ==> Primary Basis <==

  Basis Set: JUN-CC-PVDZ
    Blend: JUN-CC-PVDZ
    Number of shells: 526
    Number of basis functions: 1152
    Number of Cartesian functions: 1211
    Spherical Harmonics?: true
    Max angular momentum: 2

   => Loading Basis Set <=

    Name: (JUN-CC-PVDZ AUX)
    Role: JKFIT
    Keyword: DF_BASIS_SCF
    atoms 1     entry B          line    90 file /home/gridsan/tfroembgen/.conda/envs/psi4test/share/psi4/basis/jun-cc-pvdz-jkfit.gbs 
    atoms 2-5   entry F          line   314 file /home/gridsan/tfroembgen/.conda/envs/psi4test/share/psi4/basis/jun-cc-pvdz-jkfit.gbs 
    atoms 6-59  entry C          line   146 file /home/gridsan/tfroembgen/.conda/envs/psi4test/share/psi4/basis/jun-cc-pvdz-jkfit.gbs 
    atoms 60-77 entry H          line    70 file /home/gridsan/tfroembgen/.conda/envs/psi4test/share/psi4/basis/jun-cc-pvdz-jkfit.gbs 

  ==> Integral Setup <==

  ==> DiskDFJK: Density-Fitted J/K Matrices <==

    J tasked:                  Yes
    K tasked:                  Yes
    wK tasked:                  No
    OpenMP threads:             12
    Integrals threads:          12
    Memory [MiB]:            22888
    Algorithm:                Core
    Integral Cache:           SAVE
    Schwarz Cutoff:          1E-12
    Fitting Condition:       1E-10

   => Auxiliary Basis Set <=

  Basis Set: (JUN-CC-PVDZ AUX)
    Blend: JUN-CC-PVDZ-JKFIT
    Number of shells: 1755
    Number of basis functions: 5075
    Number of Cartesian functions: 5819
    Spherical Harmonics?: true
    Max angular momentum: 3

  Minimum eigenvalue in the overlap matrix is 2.8072637490E-10.
  Reciprocal condition number of the overlap matrix is 1.1133314972E-11.
    Using canonical orthogonalization.
  Overall, 14 of 1152 possible MOs eliminated.


  ==> Pre-Iterations <==

  SCF Guess: Superposition of Atomic Densities via on-the-fly atomic UHF (no occupation information).

   -------------------------
    Irrep   Nso     Nmo    
   -------------------------
     A       1152    1138 
   -------------------------
    Total    1152    1138
   -------------------------

  ==> Iterations <==

                           Total Energy        Delta E     RMS |[F,P]|

   @DF-RHF iter SAD: -2485.52187383304545   -2.48552e+03   0.00000e+00 
   @DF-RHF iter   1: -2477.20903784815391    8.31284e+00   1.10137e-03 ADIIS/DIIS
   @DF-RHF iter   2: -2478.12512927335820   -9.16091e-01   4.81491e-04 ADIIS/DIIS
   @DF-RHF iter   3: -2478.27465770850085   -1.49528e-01   1.81626e-04 ADIIS/DIIS
   @DF-RHF iter   4: -2478.29754513114585   -2.28874e-02   8.56315e-05 DIIS
   @DF-RHF iter   5: -2478.30362968440750   -6.08455e-03   2.18837e-05 DIIS
   @DF-RHF iter   6: -2478.30419820329826   -5.68519e-04   8.73923e-06 DIIS
   @DF-RHF iter   7: -2478.30448488008642   -2.86677e-04   5.49486e-06 DIIS
   @DF-RHF iter   8: -2478.30462700973249   -1.42130e-04   3.23013e-06 DIIS
   @DF-RHF iter   9: -2478.30469597898400   -6.89693e-05   1.40871e-06 DIIS
   @DF-RHF iter  10: -2478.30470899082457   -1.30118e-05   8.93260e-07 DIIS
   @DF-RHF iter  11: -2478.30471356671251   -4.57589e-06   4.73921e-07 DIIS
   @DF-RHF iter  12: -2478.30471500481372   -1.43810e-06   2.17727e-07 DIIS
   @DF-RHF iter  13: -2478.30471520823357   -2.03420e-07   9.69807e-08 DIIS
   @DF-RHF iter  14: -2478.30471524746190   -3.92283e-08   3.77450e-08 DIIS
   @DF-RHF iter  15: -2478.30471525201438   -4.55248e-09   1.77440e-08 DIIS
   @DF-RHF iter  16: -2478.30471525279381   -7.79437e-10   8.85090e-09 DIIS
  Energy and wave function converged.


  ==> Post-Iterations <==

    Orbital Energies [Eh]
    ---------------------

    Doubly Occupied:                                                      

       1A    -26.178891     2A    -26.178388     3A    -26.177657  
       4A    -26.143761     5A    -11.188738     6A    -11.188448  
       7A    -11.188001     8A    -11.168440     9A    -11.168423  
      10A    -11.168395    11A    -11.168395    12A    -11.168386  
      13A    -11.168360    14A    -11.168052    15A    -11.168029  
      16A    -11.167979    17A    -11.167851    18A    -11.167827  
      19A    -11.167801    20A    -11.167800    21A    -11.167780  
      22A    -11.167768    23A    -11.165091    24A    -11.165079  
      25A    -11.165049    26A    -11.165018    27A    -11.165015  
      28A    -11.164970    29A    -11.163923    30A    -11.163904  
      31A    -11.163858    32A    -11.163809    33A    -11.163790  
      34A    -11.163745    35A    -11.162922    36A    -11.162901  
      37A    -11.162897    38A    -11.162893    39A    -11.162878  
      40A    -11.162861    41A    -11.160868    42A    -11.160805  
      43A    -11.160783    44A    -11.151671    45A    -11.151670  
      46A    -11.151643    47A    -11.150501    48A    -11.150477  
      49A    -11.150455    50A    -11.150415    51A    -11.150394  
      52A    -11.150385    53A    -11.146627    54A    -11.146577  
      55A    -11.146573    56A    -11.118836    57A    -11.118810  
      58A    -11.118769    59A     -7.651796    60A     -1.556519  
      61A     -1.504683    62A     -1.503794    63A     -1.437141  
      64A     -1.144519    65A     -1.123064    66A     -1.123047  
      67A     -1.094754    68A     -1.094746    69A     -1.086869  
      70A     -1.065430    71A     -1.054421    72A     -1.041269  
      73A     -1.041219    74A     -1.021244    75A     -1.021239  
      76A     -0.987656    77A     -0.987651    78A     -0.987452  
      79A     -0.974616    80A     -0.974610    81A     -0.946021  
      82A     -0.930308    83A     -0.930267    84A     -0.928531  
      85A     -0.926023    86A     -0.921426    87A     -0.893242  
      88A     -0.893188    89A     -0.870992    90A     -0.870962  
      91A     -0.803497    92A     -0.803478    93A     -0.801323  
      94A     -0.797786    95A     -0.797713    96A     -0.788233  
      97A     -0.788204    98A     -0.770076    99A     -0.751337  
     100A     -0.748469   101A     -0.725264   102A     -0.722489  
     103A     -0.722403   104A     -0.709082   105A     -0.706721  
     106A     -0.706679   107A     -0.670101   108A     -0.669948  
     109A     -0.663593   110A     -0.653137   111A     -0.643491  
     112A     -0.642202   113A     -0.642183   114A     -0.628876  
     115A     -0.628680   116A     -0.618629   117A     -0.608019  
     118A     -0.608007   119A     -0.606785   120A     -0.606683  
     121A     -0.587065   122A     -0.587039   123A     -0.573944  
     124A     -0.569852   125A     -0.562472   126A     -0.561779  
     127A     -0.561769   128A     -0.549081   129A     -0.548988  
     130A     -0.545932   131A     -0.545867   132A     -0.543580  
     133A     -0.534212   134A     -0.525962   135A     -0.525865  
     136A     -0.523066   137A     -0.520142   138A     -0.507638  
     139A     -0.507603   140A     -0.498997   141A     -0.498564  
     142A     -0.496147   143A     -0.491905   144A     -0.491884  
     145A     -0.489497   146A     -0.489446   147A     -0.482022  
     148A     -0.476184   149A     -0.476176   150A     -0.470555  
     151A     -0.470546   152A     -0.469818   153A     -0.469785  
     154A     -0.461524   155A     -0.461489   156A     -0.459085  
     157A     -0.447415   158A     -0.447406   159A     -0.443650  
     160A     -0.443647   161A     -0.436404   162A     -0.429241  
     163A     -0.429231   164A     -0.409936   165A     -0.405389  
     166A     -0.401559   167A     -0.396093   168A     -0.389466  
     169A     -0.388144   170A     -0.388127   171A     -0.373051  
     172A     -0.354138   173A     -0.354063   174A     -0.353781  
     175A     -0.353698   176A     -0.347452   177A     -0.347450  
     178A     -0.306338   179A     -0.306315   180A     -0.285431  
     181A     -0.285430   182A     -0.275327   183A     -0.257016  
     184A     -0.231662   185A     -0.220764   186A     -0.211728  
     187A     -0.211548   188A     -0.204800   189A     -0.180204  
     190A     -0.180188   191A     -0.120688   192A     -0.120427  

    Virtual:                                                              

     193A      0.110487   194A      0.110511   195A      0.112043  
     196A      0.112064   197A      0.112679   198A      0.115043  
     199A      0.115051   200A      0.121649   201A      0.125585  
     202A      0.136610   203A      0.136612   204A      0.139107  
     205A      0.151339   206A      0.151342   207A      0.155303  
     208A      0.155311   209A      0.157869   210A      0.160515  
     211A      0.160560   212A      0.163743   213A      0.163767  
     214A      0.164671   215A      0.166966   216A      0.166998  
     217A      0.171153   218A      0.172766   219A      0.173566  
     220A      0.176135   221A      0.181652   222A      0.181658  
     223A      0.183840   224A      0.187703   225A      0.187721  
     226A      0.193503   227A      0.195662   228A      0.195666  
     229A      0.200989   230A      0.201004   231A      0.201996  
     232A      0.202981   233A      0.206671   234A      0.211363  
     235A      0.212783   236A      0.218752   237A      0.218755  
     238A      0.221219   239A      0.221299   240A      0.221497  
     241A      0.221542   242A      0.227335   243A      0.227342  
     244A      0.228345   245A      0.228448   246A      0.230104  
     247A      0.240479   248A      0.248945   249A      0.248996  
     250A      0.249511   251A      0.254394   252A      0.254421  
     253A      0.256128   254A      0.256156   255A      0.259790  
     256A      0.264042   257A      0.267402   258A      0.267871  
     259A      0.267890   260A      0.270951   261A      0.270980  
     262A      0.273105   263A      0.273112   264A      0.276295  
     265A      0.278124   266A      0.279933   267A      0.279961  
     268A      0.281306   269A      0.282273   270A      0.284209  
     271A      0.284241   272A      0.285468   273A      0.287755  
     274A      0.287760   275A      0.291689   276A      0.294161  
     277A      0.295419   278A      0.296522   279A      0.297882  
     280A      0.297889   281A      0.299770   282A      0.299787  
     283A      0.300337   284A      0.302320   285A      0.302340  
     286A      0.312230   287A      0.312250   288A      0.313511  
     289A      0.314749   290A      0.314757   291A      0.318272  
     292A      0.324081   293A      0.324104   294A      0.328179  
     295A      0.328197   296A      0.328842   297A      0.328849  
     298A      0.334454   299A      0.334479   300A      0.340107  
     301A      0.340582   302A      0.340606   303A      0.346919  
     304A      0.346936   305A      0.353693   306A      0.354106  
     307A      0.354114   308A      0.356752   309A      0.356777  
     310A      0.360612   311A      0.367061   312A      0.367083  
     313A      0.369200   314A      0.369249   315A      0.371136  
     316A      0.371445   317A      0.372679   318A      0.372694  
     319A      0.378056   320A      0.378086   321A      0.379888  
     322A      0.382149   323A      0.382159   324A      0.385545  
     325A      0.388393   326A      0.388395   327A      0.390013  
     328A      0.390112   329A      0.390229   330A      0.390559  
     331A      0.392449   332A      0.395853   333A      0.396414  
     334A      0.397089   335A      0.397114   336A      0.400618  
     337A      0.404901   338A      0.406845   339A      0.409594  
     340A      0.409736   341A      0.413291   342A      0.413331  
     343A      0.413377   344A      0.416570   345A      0.420509  
     346A      0.420529   347A      0.422492   348A      0.422581  
     349A      0.422596   350A      0.424937   351A      0.429749  
     352A      0.429752   353A      0.435510   354A      0.438355  
     355A      0.438409   356A      0.450102   357A      0.451072  
     358A      0.451077   359A      0.451666   360A      0.453460  
     361A      0.453489   362A      0.460865   363A      0.463194  
     364A      0.463282   365A      0.466333   366A      0.466335  
     367A      0.467108   368A      0.468956   369A      0.469005  
     370A      0.471821   371A      0.471901   372A      0.472241  
     373A      0.472404   374A      0.474743   375A      0.478650  
     376A      0.478660   377A      0.483078   378A      0.483092  
     379A      0.486663   380A      0.486678   381A      0.487096  
     382A      0.487315   383A      0.493399   384A      0.493427  
     385A      0.495473   386A      0.501346   387A      0.501793  
     388A      0.501911   389A      0.502946   390A      0.503472  
     391A      0.503618   392A      0.506385   393A      0.509820  
     394A      0.509849   395A      0.514100   396A      0.514787  
     397A      0.514876   398A      0.517354   399A      0.517530  
     400A      0.518487   401A      0.518894   402A      0.520157  
     403A      0.527807   404A      0.528715   405A      0.528726  
     406A      0.532344   407A      0.532367   408A      0.535999  
     409A      0.536028   410A      0.536886   411A      0.538081  
     412A      0.538138   413A      0.545740   414A      0.545776  
     415A      0.546891   416A      0.548453   417A      0.548534  
     418A      0.548732   419A      0.555903   420A      0.555959  
     421A      0.558990   422A      0.560093   423A      0.560275  
     424A      0.560919   425A      0.560993   426A      0.561408  
     427A      0.561426   428A      0.573252   429A      0.573371  
     430A      0.577043   431A      0.577061   432A      0.578897  
     433A      0.578904   434A      0.579844   435A      0.581047  
     436A      0.583946   437A      0.584779   438A      0.585348  
     439A      0.585409   440A      0.592656   441A      0.592693  
     442A      0.595006   443A      0.595036   444A      0.595537  
     445A      0.600189   446A      0.600258   447A      0.611831  
     448A      0.611982   449A      0.612051   450A      0.618294  
     451A      0.619236   452A      0.619580   453A      0.628466  
     454A      0.629717   455A      0.629780   456A      0.631707  
     457A      0.632664   458A      0.632702   459A      0.637987  
     460A      0.638081   461A      0.638226   462A      0.641374  
     463A      0.643409   464A      0.643457   465A      0.649493  
     466A      0.655713   467A      0.655788   468A      0.658052  
     469A      0.660102   470A      0.660271   471A      0.667658  
     472A      0.674076   473A      0.675068   474A      0.675086  
     475A      0.680057   476A      0.680866   477A      0.685993  
     478A      0.687927   479A      0.687953   480A      0.697629  
     481A      0.704394   482A      0.704480   483A      0.710553  
     484A      0.710895   485A      0.714613   486A      0.714670  
     487A      0.729849   488A      0.730092   489A      0.736339  
     490A      0.736674   491A      0.743899   492A      0.745603  
     493A      0.746217   494A      0.748242   495A      0.748351  
     496A      0.760530   497A      0.765396   498A      0.765548  
     499A      0.771171   500A      0.771238   501A      0.782734  
     502A      0.809831   503A      0.809854   504A      0.822502  
     505A      0.828733   506A      0.831927   507A      0.832223  
     508A      0.832245   509A      0.835643   510A      0.835735  
     511A      0.838854   512A      0.847601   513A      0.847605  
     514A      0.863269   515A      0.868635   516A      0.882099  
     517A      0.885962   518A      0.886182   519A      0.890074  
     520A      0.890174   521A      0.902303   522A      0.906927  
     523A      0.907372   524A      0.907439   525A      0.907531  
     526A      0.913652   527A      0.913733   528A      0.916954  
     529A      0.917918   530A      0.918040   531A      0.924703  
     532A      0.925319   533A      0.932258   534A      0.932439  
     535A      0.942991   536A      0.943009   537A      0.956001  
     538A      0.956029   539A      0.964241   540A      0.964300  
     541A      0.969295   542A      0.976265   543A      0.976310  
     544A      0.977414   545A      0.977474   546A      0.980211  
     547A      0.985785   548A      0.985822   549A      0.986751  
     550A      0.991624   551A      0.996105   552A      0.997054  
     553A      0.998331   554A      0.998384   555A      0.998716  
     556A      1.006895   557A      1.006956   558A      1.007495  
     559A      1.007527   560A      1.010261   561A      1.011020  
     562A      1.015616   563A      1.019505   564A      1.019602  
     565A      1.028629   566A      1.028832   567A      1.029601  
     568A      1.029844   569A      1.032181   570A      1.032240  
     571A      1.037618   572A      1.037668   573A      1.043364  
     574A      1.048902   575A      1.058783   576A      1.058885  
     577A      1.059292   578A      1.060426   579A      1.060702  
     580A      1.066554   581A      1.070580   582A      1.078603  
     583A      1.079597   584A      1.079614   585A      1.085527  
     586A      1.088130   587A      1.088386   588A      1.088934  
     589A      1.100225   590A      1.100231   591A      1.106341  
     592A      1.106362   593A      1.108467   594A      1.122168  
     595A      1.122222   596A      1.123196   597A      1.126783  
     598A      1.126814   599A      1.127274   600A      1.130553  
     601A      1.130674   602A      1.132200   603A      1.132275  
     604A      1.134310   605A      1.140538   606A      1.140583  
     607A      1.142562   608A      1.144343   609A      1.144556  
     610A      1.144591   611A      1.147711   612A      1.156255  
     613A      1.156336   614A      1.162869   615A      1.162909  
     616A      1.165424   617A      1.166957   618A      1.168452  
     619A      1.168561   620A      1.174072   621A      1.175325  
     622A      1.177820   623A      1.179367   624A      1.179516  
     625A      1.183913   626A      1.183970   627A      1.191153  
     628A      1.191162   629A      1.193975   630A      1.194066  
     631A      1.197751   632A      1.207313   633A      1.207366  
     634A      1.211261   635A      1.211398   636A      1.218947  
     637A      1.220312   638A      1.220587   639A      1.223081  
     640A      1.223249   641A      1.224438   642A      1.226851  
     643A      1.238854   644A      1.240145   645A      1.240254  
     646A      1.241175   647A      1.244367   648A      1.250310  
     649A      1.250326   650A      1.255205   651A      1.256828  
     652A      1.270203   653A      1.270803   654A      1.270908  
     655A      1.272283   656A      1.272342   657A      1.275523  
     658A      1.282444   659A      1.282471   660A      1.291051  
     661A      1.300300   662A      1.300419   663A      1.301707  
     664A      1.305586   665A      1.305643   666A      1.311938  
     667A      1.311984   668A      1.312251   669A      1.312430  
     670A      1.312584   671A      1.323996   672A      1.325389  
     673A      1.325488   674A      1.333882   675A      1.334075  
     676A      1.338301   677A      1.347613   678A      1.347828  
     679A      1.350129   680A      1.350239   681A      1.357182  
     682A      1.357256   683A      1.359608   684A      1.359673  
     685A      1.362880   686A      1.366490   687A      1.385525  
     688A      1.386276   689A      1.388336   690A      1.389940  
     691A      1.398512   692A      1.398537   693A      1.399170  
     694A      1.399317   695A      1.401399   696A      1.401486  
     697A      1.412979   698A      1.413047   699A      1.415443  
     700A      1.415468   701A      1.418907   702A      1.420349  
     703A      1.420419   704A      1.430805   705A      1.435354  
     706A      1.435401   707A      1.436002   708A      1.438887  
     709A      1.448017   710A      1.448064   711A      1.451203  
     712A      1.451234   713A      1.457235   714A      1.457376  
     715A      1.465551   716A      1.470658   717A      1.472000  
     718A      1.472113   719A      1.478898   720A      1.479603  
     721A      1.479731   722A      1.493935   723A      1.494011  
     724A      1.502690   725A      1.504171   726A      1.504216  
     727A      1.514220   728A      1.514849   729A      1.514990  
     730A      1.518134   731A      1.521961   732A      1.523771  
     733A      1.523827   734A      1.525481   735A      1.529184  
     736A      1.533382   737A      1.533632   738A      1.537586  
     739A      1.537839   740A      1.541520   741A      1.541543  
     742A      1.541556   743A      1.547797   744A      1.559054  
     745A      1.559149   746A      1.584355   747A      1.590646  
     748A      1.590712   749A      1.614808   750A      1.614944  
     751A      1.620752   752A      1.640322   753A      1.640685  
     754A      1.645692   755A      1.651557   756A      1.675257  
     757A      1.675685   758A      1.681407   759A      1.695711  
     760A      1.695921   761A      1.702417   762A      1.716369  
     763A      1.716547   764A      1.724391   765A      1.724539  
     766A      1.731416   767A      1.731679   768A      1.734249  
     769A      1.734478   770A      1.736194   771A      1.738871  
     772A      1.739136   773A      1.751704   774A      1.751834  
     775A      1.754983   776A      1.755140   777A      1.759123  
     778A      1.759846   779A      1.767768   780A      1.767857  
     781A      1.770189   782A      1.774315   783A      1.777797  
     784A      1.777901   785A      1.784040   786A      1.786693  
     787A      1.786777   788A      1.789428   789A      1.792315  
     790A      1.792483   791A      1.792555   792A      1.801044  
     793A      1.801230   794A      1.822972   795A      1.823170  
     796A      1.833913   797A      1.842041   798A      1.844740  
     799A      1.846759   800A      1.846842   801A      1.847187  
     802A      1.852566   803A      1.852572   804A      1.858267  
     805A      1.882066   806A      1.882130   807A      1.894305  
     808A      1.894336   809A      1.908692   810A      1.915499  
     811A      1.915689   812A      1.920257   813A      1.920320  
     814A      1.931218   815A      1.935094   816A      1.937298  
     817A      1.940572   818A      1.943159   819A      1.943280  
     820A      1.951046   821A      1.952069   822A      1.952103  
     823A      1.955771   824A      1.961911   825A      1.961998  
     826A      1.968922   827A      1.975104   828A      1.975278  
     829A      1.988278   830A      1.988393   831A      1.994902  
     832A      1.994991   833A      1.996126   834A      2.001584  
     835A      2.001874   836A      2.010999   837A      2.011130  
     838A      2.012107   839A      2.016366   840A      2.017454  
     841A      2.017558   842A      2.020737   843A      2.020883  
     844A      2.028496   845A      2.032965   846A      2.033065  
     847A      2.034893   848A      2.034988   849A      2.051428  
     850A      2.058077   851A      2.058453   852A      2.060943  
     853A      2.060992   854A      2.065251   855A      2.079907  
     856A      2.081289   857A      2.081397   858A      2.088053  
     859A      2.088500   860A      2.088692   861A      2.092311  
     862A      2.093248   863A      2.103343   864A      2.103814  
     865A      2.107830   866A      2.107982   867A      2.119057  
     868A      2.123748   869A      2.124123   870A      2.125863  
     871A      2.126210   872A      2.134639   873A      2.134849  
     874A      2.141429   875A      2.143734   876A      2.143945  
     877A      2.155540   878A      2.155833   879A      2.162016  
     880A      2.162910   881A      2.164181   882A      2.164338  
     883A      2.173987   884A      2.174693   885A      2.174737  
     886A      2.183840   887A      2.183934   888A      2.187072  
     889A      2.187244   890A      2.191720   891A      2.193681  
     892A      2.193888   893A      2.194151   894A      2.195277  
     895A      2.199662   896A      2.199788   897A      2.200983  
     898A      2.201024   899A      2.205512   900A      2.207298  
     901A      2.207390   902A      2.211087   903A      2.211111  
     904A      2.216728   905A      2.216816   906A      2.223818  
     907A      2.226153   908A      2.226300   909A      2.227182  
     910A      2.229490   911A      2.231712   912A      2.231778  
     913A      2.234899   914A      2.234979   915A      2.250632  
     916A      2.250757   917A      2.252425   918A      2.259908  
     919A      2.259976   920A      2.263652   921A      2.269900  
     922A      2.271686   923A      2.271858   924A      2.280055  
     925A      2.283197   926A      2.283599   927A      2.284110  
     928A      2.288427   929A      2.300466   930A      2.306735  
     931A      2.307110   932A      2.309484   933A      2.309673  
     934A      2.310803   935A      2.327890   936A      2.328038  
     937A      2.332372   938A      2.334443   939A      2.334747  
     940A      2.335466   941A      2.344297   942A      2.344428  
     943A      2.351092   944A      2.351162   945A      2.357441  
     946A      2.357593   947A      2.360167   948A      2.363721  
     949A      2.363827   950A      2.368281   951A      2.369473  
     952A      2.380058   953A      2.380526   954A      2.392116  
     955A      2.398509   956A      2.398729   957A      2.399637  
     958A      2.425538   959A      2.426515   960A      2.441198  
     961A      2.441533   962A      2.449244   963A      2.449369  
     964A      2.454081   965A      2.454392   966A      2.457620  
     967A      2.463050   968A      2.486386   969A      2.502590  
     970A      2.504163   971A      2.504710   972A      2.511330  
     973A      2.516628   974A      2.516821   975A      2.519059  
     976A      2.526435   977A      2.531848   978A      2.532318  
     979A      2.539506   980A      2.566238   981A      2.567339  
     982A      2.567434   983A      2.571171   984A      2.571751  
     985A      2.591443   986A      2.591754   987A      2.604953  
     988A      2.613970   989A      2.615811   990A      2.615896  
     991A      2.624727   992A      2.638158   993A      2.643700  
     994A      2.643730   995A      2.644599   996A      2.645844  
     997A      2.651517   998A      2.651682   999A      2.655260  
    1000A      2.655318  1001A      2.666360  1002A      2.666619  
    1003A      2.668806  1004A      2.671753  1005A      2.671859  
    1006A      2.684346  1007A      2.695220  1008A      2.698778  
    1009A      2.703726  1010A      2.704114  1011A      2.727241  
    1012A      2.727738  1013A      2.731781  1014A      2.732829  
    1015A      2.733163  1016A      2.738502  1017A      2.738637  
    1018A      2.748078  1019A      2.756677  1020A      2.757233  
    1021A      2.760405  1022A      2.776384  1023A      2.784089  
    1024A      2.784873  1025A      2.786107  1026A      2.807436  
    1027A      2.807614  1028A      2.812247  1029A      2.812363  
    1030A      2.817704  1031A      2.817775  1032A      2.835073  
    1033A      2.835193  1034A      2.856920  1035A      2.857063  
    1036A      2.875138  1037A      2.893626  1038A      2.893650  
    1039A      2.901648  1040A      2.920551  1041A      2.928445  
    1042A      2.937039  1043A      2.950058  1044A      2.952851  
    1045A      2.958597  1046A      2.958664  1047A      2.977541  
    1048A      2.977613  1049A      3.008514  1050A      3.008527  
    1051A      3.013159  1052A      3.030021  1053A      3.032066  
    1054A      3.032116  1055A      3.051231  1056A      3.051304  
    1057A      3.053869  1058A      3.105656  1059A      3.126678  
    1060A      3.127159  1061A      3.145111  1062A      3.161368  
    1063A      3.161383  1064A      3.173858  1065A      3.174032  
    1066A      3.211918  1067A      3.212300  1068A      3.229799  
    1069A      3.230006  1070A      3.233851  1071A      3.234110  
    1072A      3.240027  1073A      3.240073  1074A      3.242087  
    1075A      3.246462  1076A      3.246590  1077A      3.254149  
    1078A      3.254887  1079A      3.268369  1080A      3.268800  
    1081A      3.280600  1082A      3.300339  1083A      3.317831  
    1084A      3.334685  1085A      3.373411  1086A      3.374393  
    1087A      3.374499  1088A      3.381662  1089A      3.382110  
    1090A      3.398429  1091A      3.504755  1092A      3.505163  
    1093A      3.536132  1094A      3.537148  1095A      3.572351  
    1096A      3.597985  1097A      3.599537  1098A      3.698202  
    1099A      3.723110  1100A      3.724405  1101A      3.736861  
    1102A      3.752774  1103A      3.768903  1104A      3.769000  
    1105A      3.782023  1106A      3.892464  1107A      3.962762  
    1108A      3.962817  1109A      3.997164  1110A      3.998763  
    1111A      4.020623  1112A      4.022895  1113A      4.050752  
    1114A      4.076786  1115A      4.110544  1116A      4.128220  
    1117A      4.133138  1118A      4.133499  1119A      4.168017  
    1120A      4.168165  1121A      4.227652  1122A      4.230565  
    1123A      4.275835  1124A      4.286060  1125A      4.307694  
    1126A      4.309065  1127A      4.401499  1128A      4.408501  
    1129A      4.408769  1130A      4.562892  1131A      4.562996  
    1132A      4.564887  1133A      4.654217  1134A      4.672636  
    1135A      4.672849  1136A      4.794448  1137A      4.797447  
    1138A      4.857879  

    Final Occupation by Irrep:
              A 
    DOCC [   192 ]
    NA   [   192 ]
    NB   [   192 ]

  @DF-RHF Final Energy: -2478.30471525279381

   => Energetics <=

    Nuclear Repulsion Energy =           8207.5333457145243301
    One-Electron Energy =              -19773.1831939674630121
    Two-Electron Energy =                9087.3451330001444148
    Total Energy =                      -2478.3047152527942671

Computation Completed


Properties will be evaluated at   0.000000,   0.000000,   0.000000 [a0]

Properties computed using the SCF density matrix


 Multipole Moments:

 ------------------------------------------------------------------------------------
     Multipole            Electronic (a.u.)      Nuclear  (a.u.)        Total (a.u.)
 ------------------------------------------------------------------------------------

 L = 1.  Multiply by 2.5417464519 to convert [e a0] to [Debye]
 Dipole X            :         -0.0011672            0.0000481           -0.0011191
 Dipole Y            :          0.0048802           -0.0001453            0.0047349
 Dipole Z            :         12.3522573          -13.4865782           -1.1343209
 Magnitude           :                                                    1.1343314

 ------------------------------------------------------------------------------------

*** tstop() called on d-6-9-4 at Sat Jan 20 23:40:46 2024
Module time:
	user time   =    4054.92 seconds =      67.58 minutes
	system time =      65.00 seconds =       1.08 minutes
	total time  =        400 seconds =       6.67 minutes
Total time:
	user time   =    4054.92 seconds =      67.58 minutes
	system time =      65.00 seconds =       1.08 minutes
	total time  =        400 seconds =       6.67 minutes

  //>>>>>>>>>>>>>>>>>>>>>>>>>>>>>>>>>>>//
  //            Monomer A HF           //
  //<<<<<<<<<<<<<<<<<<<<<<<<<<<<<<<<<<<//

   => Libint2 <=

    Primary   basis highest AM E, G, H:  7, 7, 4
    Auxiliary basis highest AM E, G, H:  7, 7, 5
    Onebody   basis highest AM E, G, H:  7, 7, 5
    Solid Harmonics ordering:            gaussian

*** tstart() called on d-6-9-4
*** at Sat Jan 20 23:40:46 2024

   => Loading Basis Set <=

    Name: JUN-CC-PVDZ
    Role: ORBITAL
    Keyword: BASIS
    atoms 1     entry B          line   130 file /home/gridsan/tfroembgen/.conda/envs/psi4test/share/psi4/basis/jun-cc-pvdz.gbs 
    atoms 2-5   entry F          line   266 file /home/gridsan/tfroembgen/.conda/envs/psi4test/share/psi4/basis/jun-cc-pvdz.gbs 
    atoms 6-59  entry C          line   164 file /home/gridsan/tfroembgen/.conda/envs/psi4test/share/psi4/basis/jun-cc-pvdz.gbs 
    atoms 60-77 entry H          line    36 file /home/gridsan/tfroembgen/.conda/envs/psi4test/share/psi4/basis/jun-cc-pvdz.gbs 


         ---------------------------------------------------------
                                   SCF
               by Justin Turney, Rob Parrish, Andy Simmonett
                          and Daniel G. A. Smith
                              RHF Reference
                       12 Threads,  30517 MiB Core
         ---------------------------------------------------------

  ==> Geometry <==

    Molecular point group: c1
    Full point group: C1

    Geometry (in Angstrom), charge = -1, multiplicity = 1:

       Center              X                  Y                   Z               Mass       
    ------------   -----------------  -----------------  -----------------  -----------------
         B           -0.000198161052     0.000273808717     1.945892941868    11.009305360000
         F           -0.000000401852    -0.000000464183     3.358677941868    18.998403162730
         F            1.147859598148     0.675780735817     1.474751941868    18.998403162730
         F            0.011917658148    -1.332011464183     1.474953941868    18.998403162730
         F           -1.159666401852     0.656073035817     1.475032941868    18.998403162730
      Gh(C)           1.225311973413     0.707538196736    -0.248003430849    12.000000000000
      Gh(C)           1.225323934041    -0.707538986754    -0.260334240419    12.000000000000
      Gh(C)          -0.000006075942     1.414965821907    -0.260867863940    12.000000000000
      Gh(C)           2.456448831939     1.418327794995    -0.245116573449    12.000000000000
      Gh(C)           0.000010905269    -1.414976590818    -0.250668306615    12.000000000000
      Gh(C)          -1.225300870919     0.707545281801    -0.245751910526    12.000000000000
      Gh(C)           2.456437833310    -1.418323396064    -0.262579397276    12.000000000000
      Gh(C)          -0.000001254988     2.836800939098    -0.263271414074    12.000000000000
      Gh(C)           3.681826775460     0.709317863818    -0.262230607478    12.000000000000
      Gh(C)           2.455120126855     2.834223569306    -0.262333164439    12.000000000000
      Gh(C)           3.681821183209    -0.709333931612    -0.246158123460    12.000000000000
      Gh(C)          -1.225313520698    -0.707527607727    -0.259261478992    12.000000000000
      Gh(C)           1.226699659192     3.543469391811    -0.245974091529    12.000000000000
      Gh(C)           0.000004862847    -2.836782231419    -0.245820138994    12.000000000000
      Gh(C)          -2.456435954859     1.418316826102    -0.245716514680    12.000000000000
      Gh(C)           2.455123495769    -2.834230120772    -0.246310031827    12.000000000000
      Gh(C)          -1.226714286599     3.543468971567    -0.245870758310    12.000000000000
      Gh(C)           4.914517373191     1.427172780306    -0.255749924448    12.000000000000
      Gh(C)           3.693150269466     3.542795200362    -0.255700124812    12.000000000000
      Gh(C)          -2.456437522078    -1.418313373022    -0.262604435400    12.000000000000
      Gh(C)           1.226704919933    -3.543474334090    -0.261944222279    12.000000000000
      Gh(C)          -2.455125320518     2.834216570451    -0.262326788092    12.000000000000
      Gh(C)           4.914524458772    -1.427187002127    -0.252777181714    12.000000000000
      Gh(C)           1.221424691688     4.970133973077    -0.252638747454    12.000000000000
      Gh(C)           4.893008307311     2.825187907843    -0.254533256090    12.000000000000
      Gh(C)          -1.226696930499    -3.543471089260    -0.261677017869    12.000000000000
      Gh(C)          -3.681818898536     0.709324874549    -0.262217926998    12.000000000000
      Gh(C)           3.693147179140    -3.542801433574    -0.252659291153    12.000000000000
      Gh(C)          -1.221432174004     4.970128205680    -0.252455252081    12.000000000000
      Gh(C)           6.134771050916     0.680547854922    -0.254980149899    12.000000000000
      Gh(C)           3.656788958600     4.972953151384    -0.254791487030    12.000000000000
      Gh(C)          -2.455126829744    -2.834215185244    -0.246554389625    12.000000000000
      Gh(C)          -3.681819101071    -0.709325795652    -0.246040501881    12.000000000000
      Gh(C)           4.893012695903    -2.825200197815    -0.253922104194    12.000000000000
      Gh(C)          -0.000000995123     5.650447273849    -0.253686560788    12.000000000000
      Gh(C)           6.134775190322    -0.680554946258    -0.253714829383    12.000000000000
      Gh(C)           2.478131560845     5.653576659148    -0.253502707380    12.000000000000
      Gh(C)           1.221422482727    -4.970127147116    -0.255438244477    12.000000000000
      Gh(C)          -3.693162305975     3.542796862009    -0.255534617353    12.000000000000
      Gh(C)          -1.221428442955    -4.970118395779    -0.255551006310    12.000000000000
      Gh(C)          -4.914521729952     1.427175354812    -0.255672979441    12.000000000000
      Gh(C)           3.656787097669    -4.972955318422    -0.253340986496    12.000000000000
      Gh(C)          -2.478138452116     5.653574330345    -0.253218182371    12.000000000000
      Gh(C)          -3.693141660574    -3.542790311162    -0.252775417309    12.000000000000
      Gh(C)          -4.914512405063    -1.427181092211    -0.252742484540    12.000000000000
      Gh(C)          -0.000005930936    -5.650438379197    -0.254082064910    12.000000000000
      Gh(C)          -4.893020406111     2.825188506736    -0.254543337950    12.000000000000
      Gh(C)           2.478126071288    -5.653573636072    -0.254431587288    12.000000000000
      Gh(C)          -3.656798632268     4.972956089858    -0.254614806655    12.000000000000
      Gh(C)          -4.892999400866    -2.825191859243    -0.254076139892    12.000000000000
      Gh(C)          -2.478128420093    -5.653566262190    -0.254706774935    12.000000000000
      Gh(C)          -6.134770425341     0.680548674073    -0.255005701601    12.000000000000
      Gh(C)          -3.656788755199    -4.972944115154    -0.253555274312    12.000000000000
      Gh(C)          -6.134764964923    -0.680554007665    -0.253735305178    12.000000000000
      Gh(H)           5.835288573806     3.369275802771    -0.250173930427     1.007825032230
      Gh(H)           7.073859250737     1.228217156716    -0.254518506505     1.007825032230
      Gh(H)           4.600663342164     5.512380710270    -0.254286286278     1.007825032230
      Gh(H)           5.835283465295    -3.369306148912    -0.258376571509     1.007825032230
      Gh(H)          -0.000012073316     6.738530581953    -0.258035805796     1.007825032230
      Gh(H)           7.073861249820    -1.228227034927    -0.254223567477     1.007825032230
      Gh(H)           2.473313809789     6.740684199211    -0.253969428310     1.007825032230
      Gh(H)           4.600668569371    -5.512376221359    -0.253750983664     1.007825032230
      Gh(H)          -2.473318602548     6.740681627423    -0.253668081685     1.007825032230
      Gh(H)          -0.000010190238    -6.738528268635    -0.249552379925     1.007825032230
      Gh(H)          -5.835301836354     3.369270858113    -0.250037908279     1.007825032230
      Gh(H)           2.473308001821    -6.740685466612    -0.253861256863     1.007825032230
      Gh(H)          -4.600674763218     5.512377934420    -0.254120957954     1.007825032230
      Gh(H)          -5.835279428845    -3.369289055963    -0.258655877390     1.007825032230
      Gh(H)          -2.473300269450    -6.740679170323    -0.254310573407     1.007825032230
      Gh(H)          -7.073857688778     1.228220380657    -0.254602497986     1.007825032230
      Gh(H)          -4.600673708095    -5.512362761970    -0.253923291687     1.007825032230
      Gh(H)          -7.073856856419    -1.228220724160    -0.254318423943     1.007825032230

  Running in c1 symmetry.

  Rotational constants: A =      0.00209  B =      0.00209  C =      0.00110 [cm^-1]
  Rotational constants: A =     62.58964  B =     62.58058  C =     33.02251 [MHz]
  Nuclear repulsion =  178.879455044809106

  Charge       = -1
  Multiplicity = 1
  Electrons    = 42
  Nalpha       = 21
  Nbeta        = 21

  ==> Algorithm <==

  SCF Algorithm Type is DF.
  DIIS enabled.
  MOM disabled.
  Fractional occupation disabled.
  Guess Type is SAD.
  Energy threshold   = 1.00e-08
  Density threshold  = 1.00e-08
  Integral threshold = 1.00e-12

  ==> Primary Basis <==

  Basis Set: JUN-CC-PVDZ
    Blend: JUN-CC-PVDZ
    Number of shells: 526
    Number of basis functions: 1152
    Number of Cartesian functions: 1211
    Spherical Harmonics?: true
    Max angular momentum: 2

   => Loading Basis Set <=

    Name: (JUN-CC-PVDZ AUX)
    Role: JKFIT
    Keyword: DF_BASIS_SCF
    atoms 1     entry B          line    90 file /home/gridsan/tfroembgen/.conda/envs/psi4test/share/psi4/basis/jun-cc-pvdz-jkfit.gbs 
    atoms 2-5   entry F          line   314 file /home/gridsan/tfroembgen/.conda/envs/psi4test/share/psi4/basis/jun-cc-pvdz-jkfit.gbs 
    atoms 6-59  entry C          line   146 file /home/gridsan/tfroembgen/.conda/envs/psi4test/share/psi4/basis/jun-cc-pvdz-jkfit.gbs 
    atoms 60-77 entry H          line    70 file /home/gridsan/tfroembgen/.conda/envs/psi4test/share/psi4/basis/jun-cc-pvdz-jkfit.gbs 

  ==> Integral Setup <==

  ==> DiskDFJK: Density-Fitted J/K Matrices <==

    J tasked:                  Yes
    K tasked:                  Yes
    wK tasked:                  No
    OpenMP threads:             12
    Integrals threads:          12
    Memory [MiB]:            22888
    Algorithm:                Core
    Integral Cache:           LOAD
    Schwarz Cutoff:          1E-12
    Fitting Condition:       1E-10

   => Auxiliary Basis Set <=

  Basis Set: (JUN-CC-PVDZ AUX)
    Blend: JUN-CC-PVDZ-JKFIT
    Number of shells: 1755
    Number of basis functions: 5075
    Number of Cartesian functions: 5819
    Spherical Harmonics?: true
    Max angular momentum: 3

  Minimum eigenvalue in the overlap matrix is 2.8072637490E-10.
  Reciprocal condition number of the overlap matrix is 1.1133314972E-11.
    Using canonical orthogonalization.
  Overall, 14 of 1152 possible MOs eliminated.


  ==> Pre-Iterations <==

  SCF Guess: Superposition of Atomic Densities via on-the-fly atomic UHF (no occupation information).

   -------------------------
    Irrep   Nso     Nmo    
   -------------------------
     A       1152    1138 
   -------------------------
    Total    1152    1138
   -------------------------

  ==> Iterations <==

                           Total Energy        Delta E     RMS |[F,P]|

   @DF-RHF iter SAD:  -421.23047744259418   -4.21230e+02   0.00000e+00 
   @DF-RHF iter   1:  -422.65694247881947   -1.42647e+00   5.31260e-04 ADIIS/DIIS
   @DF-RHF iter   2:  -422.73983499096374   -8.28925e-02   3.24420e-04 ADIIS/DIIS
   @DF-RHF iter   3:  -422.77794447446610   -3.81095e-02   1.76439e-05 DIIS
   @DF-RHF iter   4:  -422.77830802987080   -3.63555e-04   2.89044e-06 DIIS
   @DF-RHF iter   5:  -422.77831704051999   -9.01065e-06   7.80506e-07 DIIS
   @DF-RHF iter   6:  -422.77831772952698   -6.89007e-07   1.74620e-07 DIIS
   @DF-RHF iter   7:  -422.77831775650395   -2.69770e-08   5.90013e-08 DIIS
   @DF-RHF iter   8:  -422.77831775810881   -1.60486e-09   8.71650e-09 DIIS
  Energy and wave function converged.


  ==> Post-Iterations <==

    Orbital Energies [Eh]
    ---------------------

    Doubly Occupied:                                                      

       1A    -26.067594     2A    -26.067497     3A    -26.067409  
       4A    -26.065917     5A     -7.536239     6A     -1.409255  
       7A     -1.349921     8A     -1.349811     9A     -1.349646  
      10A     -0.600600    11A     -0.526963    12A     -0.526877  
      13A     -0.526790    14A     -0.445836    15A     -0.445794  
      16A     -0.407644    17A     -0.407270    18A     -0.407185  
      19A     -0.383813    20A     -0.383750    21A     -0.383446  

    Virtual:                                                              

      22A      0.095270    23A      0.096527    24A      0.096531  
      25A      0.102342    26A      0.102346    27A      0.113147  
      28A      0.113898    29A      0.129033    30A      0.129034  
      31A      0.134903    32A      0.142659    33A      0.142665  
      34A      0.146851    35A      0.146860    36A      0.146904  
      37A      0.152492    38A      0.152494    39A      0.156495  
      40A      0.156507    41A      0.163983    42A      0.165405  
      43A      0.165408    44A      0.167913    45A      0.170239  
      46A      0.175599    47A      0.176354    48A      0.181739  
      49A      0.183278    50A      0.185016    51A      0.186446  
      52A      0.186451    53A      0.193221    54A      0.193224  
      55A      0.194374    56A      0.194391    57A      0.200667  
      58A      0.200699    59A      0.201718    60A      0.206391  
      61A      0.206394    62A      0.208586    63A      0.208598  
      64A      0.212791    65A      0.212807    66A      0.217261  
      67A      0.217262    68A      0.220046    69A      0.223188  
      70A      0.223207    71A      0.223676    72A      0.226591  
      73A      0.226594    74A      0.228538    75A      0.236496  
      76A      0.237793    77A      0.238858    78A      0.238871  
      79A      0.243552    80A      0.243565    81A      0.244953  
      82A      0.247787    83A      0.247795    84A      0.249269  
      85A      0.249274    86A      0.249566    87A      0.256746  
      88A      0.259684    89A      0.261572    90A      0.265834  
      91A      0.266535    92A      0.266602    93A      0.268586  
      94A      0.273152    95A      0.273155    96A      0.274995  
      97A      0.280627    98A      0.286108    99A      0.286117  
     100A      0.286426   101A      0.286461   102A      0.287892  
     103A      0.287902   104A      0.288275   105A      0.288285  
     106A      0.292160   107A      0.292164   108A      0.296156  
     109A      0.297842   110A      0.301011   111A      0.304486  
     112A      0.304513   113A      0.309887   114A      0.309894  
     115A      0.313361   116A      0.316918   117A      0.317900  
     118A      0.317925   119A      0.321353   120A      0.325077  
     121A      0.325083   122A      0.325310   123A      0.330616  
     124A      0.330626   125A      0.333008   126A      0.333013  
     127A      0.338823   128A      0.338830   129A      0.340202  
     130A      0.344251   131A      0.344271   132A      0.349812  
     133A      0.349839   134A      0.350166   135A      0.352814  
     136A      0.353107   137A      0.353129   138A      0.357385  
     139A      0.360100   140A      0.360114   141A      0.362056  
     142A      0.363440   143A      0.363462   144A      0.366666  
     145A      0.366674   146A      0.372221   147A      0.373236  
     148A      0.381621   149A      0.387513   150A      0.389385  
     151A      0.389397   152A      0.394138   153A      0.394167  
     154A      0.395367   155A      0.398300   156A      0.399302  
     157A      0.399307   158A      0.407762   159A      0.407766  
     160A      0.408615   161A      0.414980   162A      0.414983  
     163A      0.418652   164A      0.418705   165A      0.420396  
     166A      0.421831   167A      0.423293   168A      0.433279  
     169A      0.433984   170A      0.434140   171A      0.437983  
     172A      0.438004   173A      0.443357   174A      0.445317  
     175A      0.446699   176A      0.447391   177A      0.447425  
     178A      0.452396   179A      0.452459   180A      0.453371  
     181A      0.453607   182A      0.453642   183A      0.453714  
     184A      0.463797   185A      0.463969   186A      0.464075  
     187A      0.468477   188A      0.468625   189A      0.471225  
     190A      0.471235   191A      0.477433   192A      0.477511  
     193A      0.481935   194A      0.482026   195A      0.485070  
     196A      0.492798   197A      0.492860   198A      0.494084  
     199A      0.496252   200A      0.496288   201A      0.496570  
     202A      0.502751   203A      0.502818   204A      0.509906  
     205A      0.510707   206A      0.516225   207A      0.516782  
     208A      0.516787   209A      0.517936   210A      0.519211  
     211A      0.519293   212A      0.522387   213A      0.522454  
     214A      0.524466   215A      0.525707   216A      0.526421  
     217A      0.527244   218A      0.527281   219A      0.530438  
     220A      0.530453   221A      0.535244   222A      0.535264  
     223A      0.537414   224A      0.538521   225A      0.538728  
     226A      0.540171   227A      0.540369   228A      0.549773  
     229A      0.550102   230A      0.560314   231A      0.562664  
     232A      0.562697   233A      0.566315   234A      0.566363  
     235A      0.570849   236A      0.570889   237A      0.571087  
     238A      0.571833   239A      0.572402   240A      0.572411  
     241A      0.580436   242A      0.580505   243A      0.584255  
     244A      0.585502   245A      0.585538   246A      0.589498  
     247A      0.595708   248A      0.595790   249A      0.602113  
     250A      0.602181   251A      0.605033   252A      0.608460  
     253A      0.609644   254A      0.609669   255A      0.612638  
     256A      0.613885   257A      0.613903   258A      0.614640  
     259A      0.616274   260A      0.616971   261A      0.617015  
     262A      0.620767   263A      0.622220   264A      0.622291  
     265A      0.639179   266A      0.640559   267A      0.644101  
     268A      0.644180   269A      0.652102   270A      0.652176  
     271A      0.653819   272A      0.654427   273A      0.654484  
     274A      0.659763   275A      0.659785   276A      0.663684  
     277A      0.664182   278A      0.664695   279A      0.669137  
     280A      0.669209   281A      0.672427   282A      0.683974  
     283A      0.684074   284A      0.688381   285A      0.689540  
     286A      0.689608   287A      0.690119   288A      0.690586  
     289A      0.691160   290A      0.691175   291A      0.700808  
     292A      0.700817   293A      0.700985   294A      0.701034  
     295A      0.704375   296A      0.704389   297A      0.706504  
     298A      0.715819   299A      0.723559   300A      0.723602  
     301A      0.730615   302A      0.732207   303A      0.733867  
     304A      0.733898   305A      0.735690   306A      0.742122  
     307A      0.742149   308A      0.746916   309A      0.747405  
     310A      0.754080   311A      0.754156   312A      0.756489  
     313A      0.759886   314A      0.759929   315A      0.762077  
     316A      0.768442   317A      0.768504   318A      0.774183  
     319A      0.774241   320A      0.774945   321A      0.781297  
     322A      0.781413   323A      0.783146   324A      0.784882  
     325A      0.784977   326A      0.794431   327A      0.799036  
     328A      0.801018   329A      0.801125   330A      0.805709  
     331A      0.805720   332A      0.813615   333A      0.813681  
     334A      0.823680   335A      0.825578   336A      0.825629  
     337A      0.828534   338A      0.834176   339A      0.836090  
     340A      0.836103   341A      0.841929   342A      0.845588  
     343A      0.847451   344A      0.847471   345A      0.852512  
     346A      0.852643   347A      0.852991   348A      0.862233  
     349A      0.863187   350A      0.863309   351A      0.863616  
     352A      0.863699   353A      0.873091   354A      0.873097  
     355A      0.881902   356A      0.883515   357A      0.883648  
     358A      0.883963   359A      0.886039   360A      0.886063  
     361A      0.889226   362A      0.891869   363A      0.896064  
     364A      0.898387   365A      0.898443   366A      0.899722  
     367A      0.906964   368A      0.911420   369A      0.911486  
     370A      0.913591   371A      0.913618   372A      0.921030  
     373A      0.921296   374A      0.935114   375A      0.935519  
     376A      0.940781   377A      0.942814   378A      0.944026  
     379A      0.944082   380A      0.962283   381A      0.963245  
     382A      0.963304   383A      0.975425   384A      0.981914  
     385A      0.984809   386A      0.984829   387A      0.996782  
     388A      0.996807   389A      0.998348   390A      1.000012  
     391A      1.000139   392A      1.019247   393A      1.024040  
     394A      1.035169   395A      1.035393   396A      1.054299  
     397A      1.055133   398A      1.055188   399A      1.057475  
     400A      1.057723   401A      1.068485   402A      1.068553  
     403A      1.070131   404A      1.077575   405A      1.077615  
     406A      1.082781   407A      1.090063   408A      1.090241  
     409A      1.108329   410A      1.120774   411A      1.121827  
     412A      1.121942   413A      1.152184   414A      1.152215  
     415A      1.153741   416A      1.158669   417A      1.158706  
     418A      1.162690   419A      1.191294   420A      1.191329  
     421A      1.194049   422A      1.194077   423A      1.199278  
     424A      1.205423   425A      1.205640   426A      1.210572  
     427A      1.254956   428A      1.264969   429A      1.269033  
     430A      1.269118   431A      1.271450   432A      1.271495  
     433A      1.278398   434A      1.278500   435A      1.297817  
     436A      1.304826   437A      1.304866   438A      1.329344  
     439A      1.329347   440A      1.332747   441A      1.349520  
     442A      1.373485   443A      1.399453   444A      1.399498  
     445A      1.413638   446A      1.413700   447A      1.419353  
     448A      1.419628   449A      1.419811   450A      1.434344  
     451A      1.434630   452A      1.434782   453A      1.441854  
     454A      1.450120   455A      1.465812   456A      1.490709  
     457A      1.490789   458A      1.541025   459A      1.574416  
     460A      1.574470   461A      1.584779   462A      1.584820  
     463A      1.593273   464A      1.593366   465A      1.606641  
     466A      1.606862   467A      1.621170   468A      1.641756  
     469A      1.667090   470A      1.674809   471A      1.675190  
     472A      1.689717   473A      1.691249   474A      1.691435  
     475A      1.699297   476A      1.700543   477A      1.701840  
     478A      1.753391   479A      1.771497   480A      1.771932  
     481A      1.778095   482A      1.778613   483A      1.783750  
     484A      1.790899   485A      1.804404   486A      1.817997  
     487A      1.818956   488A      1.824376   489A      1.825292  
     490A      1.827130   491A      1.844093   492A      1.844928  
     493A      1.846613   494A      1.858673   495A      1.859046  
     496A      1.862189   497A      1.863929   498A      1.866380  
     499A      1.870726   500A      1.887383   501A      1.888454  
     502A      1.889455   503A      1.889937   504A      1.896635  
     505A      1.897426   506A      1.900420   507A      1.906135  
     508A      1.923096   509A      1.928996   510A      1.929054  
     511A      1.929237   512A      1.930938   513A      1.931620  
     514A      1.932073   515A      1.934565   516A      1.944503  
     517A      1.944744   518A      1.944857   519A      1.947988  
     520A      1.949374   521A      1.949432   522A      1.955718  
     523A      1.956735   524A      1.973407   525A      1.980032  
     526A      1.985196   527A      1.985499   528A      1.987089  
     529A      1.990908   530A      1.991495   531A      2.005816  
     532A      2.006174   533A      2.006533   534A      2.016077  
     535A      2.016734   536A      2.016912   537A      2.019873  
     538A      2.021370   539A      2.026004   540A      2.030097  
     541A      2.030425   542A      2.033435   543A      2.038051  
     544A      2.038724   545A      2.050375   546A      2.050539  
     547A      2.058073   548A      2.066556   549A      2.066670  
     550A      2.066858   551A      2.071843   552A      2.073218  
     553A      2.073589   554A      2.083936   555A      2.083968  
     556A      2.086035   557A      2.086197   558A      2.090792  
     559A      2.091813   560A      2.097372   561A      2.097385  
     562A      2.102966   563A      2.103155   564A      2.108547  
     565A      2.121714   566A      2.123756   567A      2.123887  
     568A      2.128459   569A      2.128552   570A      2.151164  
     571A      2.151306   572A      2.171490   573A      2.172350  
     574A      2.175638   575A      2.175749   576A      2.182535  
     577A      2.186825   578A      2.186997   579A      2.191708  
     580A      2.197587   581A      2.197739   582A      2.202751  
     583A      2.209153   584A      2.209200   585A      2.213676  
     586A      2.216875   587A      2.221501   588A      2.224959  
     589A      2.227647   590A      2.227660   591A      2.232999  
     592A      2.233167   593A      2.235740   594A      2.235823  
     595A      2.237649   596A      2.241186   597A      2.241252  
     598A      2.244268   599A      2.244331   600A      2.245690  
     601A      2.249857   602A      2.252452   603A      2.253738  
     604A      2.253775   605A      2.257046   606A      2.258353  
     607A      2.258479   608A      2.259744   609A      2.259775  
     610A      2.260537   611A      2.265792   612A      2.266080  
     613A      2.270656   614A      2.270694   615A      2.276608  
     616A      2.278764   617A      2.278853   618A      2.280994  
     619A      2.287591   620A      2.289148   621A      2.289200  
     622A      2.292819   623A      2.298646   624A      2.298809  
     625A      2.303672   626A      2.303765   627A      2.304944  
     628A      2.307160   629A      2.313790   630A      2.327534  
     631A      2.327578   632A      2.330905   633A      2.338489  
     634A      2.338606   635A      2.350671   636A      2.351913  
     637A      2.352103   638A      2.361555   639A      2.361591  
     640A      2.361928   641A      2.368818   642A      2.368874  
     643A      2.373378   644A      2.373682   645A      2.380813  
     646A      2.383863   647A      2.384043   648A      2.386677  
     649A      2.391843   650A      2.393119   651A      2.393384  
     652A      2.394213   653A      2.403923   654A      2.403982  
     655A      2.405037   656A      2.405313   657A      2.412886  
     658A      2.413051   659A      2.422404   660A      2.431150  
     661A      2.431259   662A      2.436537   663A      2.441260  
     664A      2.453976   665A      2.459452   666A      2.459684  
     667A      2.459779   668A      2.460023   669A      2.465253  
     670A      2.469240   671A      2.470778   672A      2.470858  
     673A      2.474727   674A      2.474756   675A      2.480616  
     676A      2.484132   677A      2.484191   678A      2.484869  
     679A      2.488879   680A      2.490859   681A      2.490999  
     682A      2.498144   683A      2.498317   684A      2.500178  
     685A      2.512753   686A      2.512857   687A      2.518286  
     688A      2.523511   689A      2.523567   690A      2.526066  
     691A      2.536499   692A      2.536517   693A      2.549129  
     694A      2.549218   695A      2.549758   696A      2.558802  
     697A      2.558889   698A      2.566720   699A      2.570366  
     700A      2.570498   701A      2.576570   702A      2.576622  
     703A      2.581081   704A      2.587512   705A      2.593387  
     706A      2.594288   707A      2.599856   708A      2.599990  
     709A      2.603322   710A      2.603374   711A      2.611842  
     712A      2.611863   713A      2.616014   714A      2.626784  
     715A      2.626912   716A      2.628610   717A      2.636482  
     718A      2.644281   719A      2.644436   720A      2.646832  
     721A      2.650777   722A      2.650941   723A      2.651384  
     724A      2.661866   725A      2.662097   726A      2.663333  
     727A      2.677354   728A      2.677435   729A      2.686394  
     730A      2.686697   731A      2.687995   732A      2.688764  
     733A      2.701095   734A      2.701225   735A      2.717848  
     736A      2.719920   737A      2.719946   738A      2.725362  
     739A      2.732249   740A      2.732284   741A      2.735679  
     742A      2.740672   743A      2.741136   744A      2.742113  
     745A      2.742211   746A      2.744070   747A      2.750091  
     748A      2.755825   749A      2.756205   750A      2.765822  
     751A      2.766154   752A      2.779125   753A      2.779407  
     754A      2.780642   755A      2.784392   756A      2.785164  
     757A      2.785689   758A      2.786456   759A      2.786502  
     760A      2.803673   761A      2.803761   762A      2.804501  
     763A      2.811730   764A      2.812224   765A      2.812908  
     766A      2.819425   767A      2.819787   768A      2.836689  
     769A      2.837194   770A      2.838682   771A      2.842168  
     772A      2.844144   773A      2.844410   774A      2.859620  
     775A      2.864268   776A      2.868436   777A      2.868511  
[...]
     739A      1.561625   740A      1.561712   741A      1.587133  
     742A      1.595402   743A      1.601197   744A      1.601421  
     745A      1.609524   746A      1.609601   747A      1.622221  
     748A      1.622340   749A      1.633701   750A      1.634012  
     751A      1.637161   752A      1.640627   753A      1.640833  
     754A      1.644157   755A      1.648362   756A      1.658283  
     757A      1.658395   758A      1.658526   759A      1.668242  
     760A      1.668473   761A      1.668635   762A      1.674992  
     763A      1.675047   764A      1.681968   765A      1.686392  
     766A      1.687406   767A      1.687438   768A      1.696462  
     769A      1.696545   770A      1.698564   771A      1.699284  
     772A      1.699322   773A      1.699949   774A      1.708150  
     775A      1.708192   776A      1.712456   777A      1.741005  
     778A      1.741110   779A      1.750036   780A      1.754491  
     781A      1.756318   782A      1.761228   783A      1.761797  
     784A      1.761835   785A      1.768445   786A      1.773691  
     787A      1.774434   788A      1.783365   789A      1.783517  
     790A      1.791434   791A      1.791561   792A      1.793814  
     793A      1.804322   794A      1.805809   795A      1.806097  
     796A      1.819845   797A      1.819874   798A      1.832300  
     799A      1.841462   800A      1.841504   801A      1.843612  
     802A      1.845232   803A      1.850557   804A      1.852373  
     805A      1.852688   806A      1.866217   807A      1.866269  
     808A      1.866781   809A      1.870145   810A      1.870268  
     811A      1.877663   812A      1.877735   813A      1.882393  
     814A      1.882941   815A      1.896977   816A      1.897019  
     817A      1.907184   818A      1.907447   819A      1.912253  
     820A      1.912404   821A      1.914779   822A      1.918070  
     823A      1.918373   824A      1.919865   825A      1.919988  
     826A      1.923407   827A      1.923626   828A      1.924524  
     829A      1.941359   830A      1.942736   831A      1.947137  
     832A      1.947272   833A      1.951581   834A      1.951704  
     835A      1.955595   836A      1.955662   837A      1.958183  
     838A      1.972320   839A      1.972636   840A      1.979975  
     841A      1.980602   842A      1.980773   843A      1.992565  
     844A      1.996816   845A      1.996945   846A      1.997646  
     847A      2.004963   848A      2.019217   849A      2.019694  
     850A      2.022784   851A      2.028678   852A      2.028735  
     853A      2.028876   854A      2.032615   855A      2.035530  
     856A      2.036744   857A      2.037003   858A      2.039493  
     859A      2.039606   860A      2.048980   861A      2.049041  
     862A      2.059253   863A      2.062168   864A      2.062198  
     865A      2.064090   866A      2.067843   867A      2.067917  
     868A      2.083976   869A      2.084003   870A      2.085145  
     871A      2.086423   872A      2.090290   873A      2.093070  
     874A      2.095922   875A      2.096073   876A      2.097087  
     877A      2.100582   878A      2.101779   879A      2.101957  
     880A      2.105865   881A      2.106075   882A      2.107833  
     883A      2.109400   884A      2.112885   885A      2.113033  
     886A      2.117639   887A      2.117672   888A      2.123574  
     889A      2.123756   890A      2.124889   891A      2.129016  
     892A      2.129099   893A      2.134790   894A      2.135555  
     895A      2.135837   896A      2.142418   897A      2.142429  
     898A      2.148117   899A      2.151077   900A      2.151227  
     901A      2.152156   902A      2.172424   903A      2.172528  
     904A      2.180584   905A      2.180711   906A      2.181115  
     907A      2.187689   908A      2.187726   909A      2.195619  
     910A      2.195772   911A      2.198733   912A      2.203356  
     913A      2.203654   914A      2.211793   915A      2.220425  
     916A      2.220799   917A      2.220997   918A      2.243027  
     919A      2.243478   920A      2.243742   921A      2.244710  
     922A      2.244830   923A      2.247336   924A      2.247361  
     925A      2.247560   926A      2.248931   927A      2.257613  
     928A      2.257890   929A      2.270012   930A      2.270101  
     931A      2.273097   932A      2.273101   933A      2.275663  
     934A      2.275796   935A      2.281581   936A      2.300831  
     937A      2.307849   938A      2.319179   939A      2.319273  
     940A      2.322674   941A      2.329913   942A      2.331757  
     943A      2.351448   944A      2.352124   945A      2.356166  
     946A      2.356397   947A      2.358553   948A      2.367460  
     949A      2.367842   950A      2.377659   951A      2.377750  
     952A      2.395209   953A      2.409056   954A      2.411139  
     955A      2.412781   956A      2.412935   957A      2.425737  
     958A      2.433229   959A      2.433398   960A      2.435040  
     961A      2.436972   962A      2.455835   963A      2.455995  
     964A      2.470875   965A      2.491870   966A      2.491889  
     967A      2.496632   968A      2.496758   969A      2.517657  
     970A      2.523750   971A      2.532106   972A      2.547334  
     973A      2.550697   974A      2.550727   975A      2.555490  
     976A      2.558413   977A      2.558511   978A      2.563653  
     979A      2.563676   980A      2.572036   981A      2.573671  
     982A      2.573701   983A      2.579039   984A      2.579468  
     985A      2.595287   986A      2.596946   987A      2.597158  
     988A      2.599542   989A      2.605136   990A      2.607798  
     991A      2.637384   992A      2.638080   993A      2.638561  
     994A      2.638697   995A      2.643366   996A      2.643464  
     997A      2.643559   998A      2.656104   999A      2.656200  
    1000A      2.669598  1001A      2.684601  1002A      2.690879  
    1003A      2.691678  1004A      2.692918  1005A      2.714484  
    1006A      2.714496  1007A      2.716981  1008A      2.717351  
    1009A      2.721599  1010A      2.721670  1011A      2.723707  
    1012A      2.747130  1013A      2.747442  1014A      2.763383  
    1015A      2.763681  1016A      2.778704  1017A      2.799905  
    1018A      2.799930  1019A      2.827719  1020A      2.831288  
    1021A      2.837256  1022A      2.843161  1023A      2.856559  
    1024A      2.858159  1025A      2.868726  1026A      2.868776  
    1027A      2.871527  1028A      2.887299  1029A      2.887382  
    1030A      2.919529  1031A      2.919560  1032A      2.931375  
    1033A      2.934582  1034A      2.934610  1035A      2.960758  
    1036A      2.961011  1037A      2.963123  1038A      3.018666  
    1039A      3.032648  1040A      3.032778  1041A      3.047796  
    1042A      3.064734  1043A      3.064797  1044A      3.082966  
    1045A      3.083191  1046A      3.104578  1047A      3.104796  
    1048A      3.126406  1049A      3.126523  1050A      3.139706  
    1051A      3.142345  1052A      3.142510  1053A      3.143263  
    1054A      3.150812  1055A      3.153453  1056A      3.153604  
    1057A      3.167537  1058A      3.167804  1059A      3.178658  
    1060A      3.179437  1061A      3.191800  1062A      3.193923  
    1063A      3.194182  1064A      3.212084  1065A      3.217767  
    1066A      3.227089  1067A      3.259043  1068A      3.284830  
    1069A      3.285227  1070A      3.292431  1071A      3.306129  
    1072A      3.306238  1073A      3.428932  1074A      3.429016  
    1075A      3.498404  1076A      3.499600  1077A      3.564308  
    1078A      3.625979  1079A      3.627487  1080A      3.641972  
    1081A      3.653262  1082A      3.675000  1083A      3.678709  
    1084A      3.678775  1085A      3.816592  1086A      3.871672  
    1087A      3.871853  1088A      3.898731  1089A      3.900952  
    1090A      3.929719  1091A      3.932365  1092A      3.973243  
    1093A      3.985113  1094A      4.016120  1095A      4.249766  
    1096A      4.308770  1097A      4.310952  1098A      4.580520  
    1099A      4.760457  1100A      4.761271  1101A      4.890832  
    1102A      5.791457  1103A      5.791568  1104A      5.810819  
    1105A      5.850492  1106A      5.851716  1107A      5.907055  
    1108A      5.937049  1109A      5.937511  1110A      5.986669  
    1111A      6.041628  1112A      6.042155  1113A      6.097020  
    1114A      6.097631  1115A      6.147906  1116A      6.247414  
    1117A      6.359908  1118A      6.360172  1119A      6.405323  
    1120A      6.405660  1121A      6.447235  1122A      7.382021  
    1123A      7.382325  1124A      7.499155  1125A      7.663177  
    1126A      7.663896  1127A      7.691868  1128A      7.861121  
    1129A      7.862761  1130A      7.936080  1131A      8.027216  
    1132A      8.027594  1133A      8.132622  1134A     12.983536  
    1135A     42.966529  1136A     42.996122  1137A     42.996272  
    1138A     43.018690  

    Final Occupation by Irrep:
              A 
    DOCC [   171 ]
    NA   [   171 ]
    NB   [   171 ]

  @DF-RHF Final Energy: -2055.89521629143928

   => Energetics <=

    Nuclear Repulsion Energy =           6452.5568002797772351
    One-Electron Energy =              -15636.5106943797709391
    Two-Electron Energy =                7128.0586778085544211
    Total Energy =                      -2055.8952162914392829

Computation Completed


Properties will be evaluated at   0.000000,   0.000000,   0.000000 [a0]

Properties computed using the SCF density matrix


 Multipole Moments:

 ------------------------------------------------------------------------------------
     Multipole            Electronic (a.u.)      Nuclear  (a.u.)        Total (a.u.)
 ------------------------------------------------------------------------------------

 L = 1.  Multiply by 2.5417464519 to convert [e a0] to [Debye]
 Dipole X            :         -0.0000006            0.0000419            0.0000413
 Dipole Y            :          0.0000813           -0.0000426            0.0000388
 Dipole Z            :        164.2550713         -164.2493360            0.0057353
 Magnitude           :                                                    0.0057356

 ------------------------------------------------------------------------------------

*** tstop() called on d-6-9-4 at Sat Jan 20 23:47:28 2024
Module time:
	user time   =    2395.59 seconds =      39.93 minutes
	system time =      38.73 seconds =       0.65 minutes
	total time  =        247 seconds =       4.12 minutes
Total time:
	user time   =    7566.13 seconds =     126.10 minutes
	system time =     121.26 seconds =       2.02 minutes
	total time  =        802 seconds =      13.37 minutes
  Constructing Basis Sets for SAPT...

   => Loading Basis Set <=

    Name: (JUN-CC-PVDZ AUX)
    Role: RIFIT
    Keyword: DF_BASIS_SAPT
    atoms 1     entry B          line    56 file /home/gridsan/tfroembgen/.conda/envs/psi4test/share/psi4/basis/jun-cc-pvdz-ri.gbs 
    atoms 2-5   entry F          line   232 file /home/gridsan/tfroembgen/.conda/envs/psi4test/share/psi4/basis/jun-cc-pvdz-ri.gbs 
    atoms 6-59  entry C          line   100 file /home/gridsan/tfroembgen/.conda/envs/psi4test/share/psi4/basis/jun-cc-pvdz-ri.gbs 
    atoms 60-77 entry H          line    30 file /home/gridsan/tfroembgen/.conda/envs/psi4test/share/psi4/basis/jun-cc-pvdz-ri.gbs 

   => Loading Basis Set <=

    Name: (JUN-CC-PVDZ AUX)
    Role: JKFIT
    Keyword: DF_BASIS_ELST
    atoms 1     entry B          line    90 file /home/gridsan/tfroembgen/.conda/envs/psi4test/share/psi4/basis/jun-cc-pvdz-jkfit.gbs 
    atoms 2-5   entry F          line   314 file /home/gridsan/tfroembgen/.conda/envs/psi4test/share/psi4/basis/jun-cc-pvdz-jkfit.gbs 
    atoms 6-59  entry C          line   146 file /home/gridsan/tfroembgen/.conda/envs/psi4test/share/psi4/basis/jun-cc-pvdz-jkfit.gbs 
    atoms 60-77 entry H          line    70 file /home/gridsan/tfroembgen/.conda/envs/psi4test/share/psi4/basis/jun-cc-pvdz-jkfit.gbs 


  //>>>>>>>>>>>>>>>>>>>>>>>>>>>>>>>>>>>//
  //               SSAPT0              //
  //<<<<<<<<<<<<<<<<<<<<<<<<<<<<<<<<<<<//


*** tstart() called on d-6-9-4
*** at Sat Jan 20 23:47:29 2024

        SAPT0  
    Ed Hohenstein
     6 June 2009

      Orbital Information
  --------------------------
    NSO        =      1152
    NMO        =      1138
    NRI        =      4087
    NRI (Elst) =      5075
    NOCC A     =        21
    NOCC B     =       171
    FOCC A     =         5
    FOCC B     =        54
    NVIR A     =      1117
    NVIR B     =       967

    Elst10,r            =    -0.374119593067 [Eh]
    Exch10              =     0.860471447198 [Eh]
    Exch10 (S^2)        =     0.790952038964 [Eh]

    Iter     Energy [mEh]          dE [mEh]         Residual      Time [s]
       1    -155.76399201     155.763992007      98.238399780           243
       2    -184.46111814      28.697126129      43.311099674           290
       3    -196.32543884      11.864320707       7.865248247           302
       4    -195.86253128      -0.462907559       2.300735148           315
       5    -195.60656783      -0.255963450       0.532728011           328
       6    -195.60337973      -0.003188102       0.152521111           346
       7    -195.61889360       0.015513872       0.028897132           359
       8    -195.61828840      -0.000605208       0.007161318           373
       9    -195.61794371      -0.000344690       0.000926896           385
      10    -195.61800323       0.000059529       0.000144541           397
      11    -195.61799823      -0.000005003       0.000024838           412
      12    -195.61799841       0.000000182       0.000005329           425
      13    -195.61799852       0.000000104       0.000002107           437
      14    -195.61799853       0.000000014       0.000000471           451

    CHF Iterations converged


    Iter     Energy [mEh]          dE [mEh]         Residual      Time [s]
       1    -348.91343238     348.913432376     150.627075502           148
       2    -357.43605448       8.522622102      55.608489035           316
       3    -403.05700708      45.620952603      17.708316110           332
       4    -403.76980243       0.712795347      12.441529268           347
       5    -400.24296402      -3.526838405       7.483063689           366
       6    -401.03790146       0.794937436       3.990869549           386
       7    -401.90624486       0.868343403       2.031947607           406
       8    -401.73828355      -0.167961307       1.181992676           424
       9    -401.58132030      -0.156963252       0.470331413           442
      10    -401.60891255       0.027592244       0.184435649           459
      11    -401.63190164       0.022989095       0.058648982           476
      12    -401.63073581      -0.001165836       0.022081465           497
      13    -401.62873621      -0.001999600       0.007961427           518
      14    -401.62858386      -0.000152349       0.003416215           536
      15    -401.62884791       0.000264057       0.001350730           554
      16    -401.62888211       0.000034194       0.000612819           574
      17    -401.62883502      -0.000047088       0.000332804           595
      18    -401.62882591      -0.000009106       0.000207673           617
      19    -401.62883982       0.000013906       0.000099932           634
      20    -401.62884191       0.000002092       0.000051347           653
      21    -401.62883955      -0.000002365       0.000019910           671
      22    -401.62883898      -0.000000569       0.000007638           689
      23    -401.62883914       0.000000161       0.000003170           707
      24    -401.62883929       0.000000155       0.000001057           736
      25    -401.62883928      -0.000000012       0.000000368           755

    CHF Iterations converged

    Ind20,r (A<-B)      =    -0.195617998531 [Eh]
    Ind20,r (B<-A)      =    -0.401628839281 [Eh]
    Ind20,r             =    -0.597246837812 [Eh]
    Exch-Ind20,r (A<-B) =     0.140838001858 [Eh]
    Exch-Ind20,r (B<-A) =     0.320263364175 [Eh]
    Exch-Ind20,r        =     0.461101366034 [Eh]
    Disp20              =    -0.139874232759 [Eh]
    Disp20 (SS)         =    -0.069937116379 [Eh]
    Disp20 (OS)         =    -0.069937116379 [Eh]
    Exch-Disp20         =     0.053030262102 [Eh]
    Exch-Disp20 (SS)    =     0.025596633612 [Eh]
    Exch-Disp20 (OS)    =     0.027433628490 [Eh]

    SAPT Results 
  --------------------------------------------------------------------------------------------------------
    Electrostatics               -374.11959307 [mEh]    -234.76358898 [kcal/mol]    -982.25085627 [kJ/mol]
      Elst10,r                   -374.11959307 [mEh]    -234.76358898 [kcal/mol]    -982.25085627 [kJ/mol]

    Exchange                      860.47144720 [mEh]     539.95398503 [kcal/mol]    2259.16747337 [kJ/mol]
      Exch10                      860.47144720 [mEh]     539.95398503 [kcal/mol]    2259.16747337 [kJ/mol]
      Exch10(S^2)                 790.95203896 [mEh]     496.32989775 [kcal/mol]    2076.64429220 [kJ/mol]

    Induction                    -117.53305738 [mEh]     -73.75310699 [kcal/mol]    -308.58299963 [kJ/mol]
      Ind20,r                    -597.24683781 [mEh]    -374.77804891 [kcal/mol]   -1568.07135664 [kJ/mol]
      Exch-Ind20,r                461.10136603 [mEh]     289.34547556 [kcal/mol]    1210.62146973 [kJ/mol]
      delta HF,r (2)               18.61241440 [mEh]      11.67946637 [kcal/mol]      48.86688728 [kJ/mol]

    Dispersion                    -86.84397066 [mEh]     -54.49541433 [kcal/mol]    -228.00881355 [kJ/mol]
      Disp20                     -139.87423276 [mEh]     -87.77240619 [kcal/mol]    -367.23974751 [kJ/mol]
      Exch-Disp20                  53.03026210 [mEh]      33.27699187 [kcal/mol]     139.23093397 [kJ/mol]
      Disp20 (SS)                 -69.93711638 [mEh]     -43.88620310 [kcal/mol]    -183.61987376 [kJ/mol]
      Disp20 (OS)                 -69.93711638 [mEh]     -43.88620310 [kcal/mol]    -183.61987376 [kJ/mol]
      Exch-Disp20 (SS)             25.59663361 [mEh]      16.06213009 [kcal/mol]      67.20395229 [kJ/mol]
      Exch-Disp20 (OS)             27.43362849 [mEh]      17.21486178 [kcal/mol]      72.02698168 [kJ/mol]

  Total HF                        368.81879675 [mEh]     231.43728907 [kcal/mol]     968.33361747 [kJ/mol]
  Total SAPT0                     281.97482610 [mEh]     176.94187474 [kcal/mol]     740.32480392 [kJ/mol]

  Special recipe for scaled SAPT0 (see Manual):
    Electrostatics sSAPT0        -374.11959307 [mEh]    -234.76358898 [kcal/mol]    -982.25085627 [kJ/mol]
    Exchange sSAPT0               860.47144720 [mEh]     539.95398503 [kcal/mol]    2259.16747337 [kJ/mol]
    Induction sSAPT0               15.04958451 [mEh]       9.44375686 [kcal/mol]      39.51267869 [kJ/mol]
    Dispersion sSAPT0             -71.59593028 [mEh]     -44.92712453 [kcal/mol]    -187.97508904 [kJ/mol]
  Total sSAPT0                    429.80550837 [mEh]     269.70702838 [kcal/mol]    1128.45420675 [kJ/mol]
  --------------------------------------------------------------------------------------------------------

*** tstop() called on d-6-9-4 at Sun Jan 21 00:45:18 2024
Module time:
	user time   =    7225.39 seconds =     120.42 minutes
	system time =     699.08 seconds =      11.65 minutes
	total time  =       3469 seconds =      57.82 minutes
Total time:
	user time   =   14793.29 seconds =     246.55 minutes
	system time =     820.36 seconds =      13.67 minutes
	total time  =       4272 seconds =      71.20 minutes

    Psi4 stopped on: Sunday, 21 January 2024 12:45AM
    Psi4 wall time for execution: 1:11:13.45

*** Psi4 exiting successfully. Buy a developer a beer!
