
    -----------------------------------------------------------------------
          Psi4: An Open-Source Ab Initio Electronic Structure Package
                               Psi4 1.9 release

                         Git: Rev {} zzzzzzz 


    D. G. A. Smith, L. A. Burns, A. C. Simmonett, R. M. Parrish,
    M. C. Schieber, R. Galvelis, P. Kraus, H. Kruse, R. Di Remigio,
    A. Alenaizan, A. M. James, S. Lehtola, J. P. Misiewicz, M. Scheurer,
    R. A. Shaw, J. B. Schriber, Y. Xie, Z. L. Glick, D. A. Sirianni,
    J. S. O'Brien, J. M. Waldrop, A. Kumar, E. G. Hohenstein,
    B. P. Pritchard, B. R. Brooks, H. F. Schaefer III, A. Yu. Sokolov,
    K. Patkowski, A. E. DePrince III, U. Bozkaya, R. A. King,
    F. A. Evangelista, J. M. Turney, T. D. Crawford, C. D. Sherrill,
    J. Chem. Phys. 152(18) 184108 (2020). https://doi.org/10.1063/5.0006002

                            Additional Code Authors
    E. T. Seidl, C. L. Janssen, E. F. Valeev, M. L. Leininger,
    J. F. Gonthier, R. M. Richard, H. R. McAlexander, M. Saitow, X. Wang,
    P. Verma, M. H. Lechner, A. Jiang, S. Behnle, A. G. Heide,
    M. F. Herbst, and D. L. Poole

             Previous Authors, Complete List of Code Contributors,
                       and Citations for Specific Modules
    https://github.com/psi4/psi4/blob/master/codemeta.json
    https://github.com/psi4/psi4/graphs/contributors
    http://psicode.org/psi4manual/master/introduction.html#citing-psifour

    -----------------------------------------------------------------------


    Psi4 started on: Saturday, 10 February 2024 12:49PM

    Process ID: 1318115
    Host:       n2cn1075
    PSIDATADIR: /opt/software/pc2/EB-SW/software/PSI4/1.9-foss-2022a/share/psi4
    Memory:     500.0 MiB
    Threads:    16
    
  ==> Input File <==

--------------------------------------------------------------------------
memory 48 GB # how much memory is available ! Depends on the nodes/cores !

molecule dimer {
# monomer A
+1 1    # Charge and multiplicity
C  0.680067 -0.008042 -5.515929
C -0.680504 -0.006014 -5.515545
N -1.085635 -0.005016 -4.197221
C  0.000108 -0.001740 -3.415820
C -2.477365  0.044390 -3.729242
N  1.085222 -0.005016 -4.197221
H  1.385146 -0.015870 -6.333368
H -1.385302 -0.006204 -6.333214
H -0.000009  0.000007 -2.334731
C  2.478117 -0.021908 -3.732123
H  2.490592  0.005437 -2.641870
H  2.967028 -0.935354 -4.079299
H  3.001428  0.853575 -4.123595
H -2.857359  1.066461 -3.809201
H -3.082679 -0.625694 -4.342306
H -2.518128 -0.282594 -2.689294
--
# monomer B
0 1     # Charge and multiplicity
C   1.22531237526482      0.70753866091955      0.00613762728373
C   1.22532433589282     -0.70753852257020     -0.00619318228664
C   -0.00000567409046      1.41496628609039     -0.00672680580738
C   2.45644923379077      1.41832825917820      0.00902448468363
C   0.00001130712078     -1.41497612663474      0.00347275151708
C   -1.22530046906674      0.70754574598412      0.00838914760619
C   2.45643823516184     -1.41832293188077     -0.00843833914343
C   -0.00000085313587      2.83680140328112     -0.00913035594137
C   3.68182717731192      0.70931832800114     -0.00808954934571
C   2.45512052870677      2.83422403348893     -0.00819210630633
C   3.68182158506039     -0.70933346742900      0.00798293467272
C   -1.22531311884624     -0.70752714354401     -0.00512042085974
C   1.22670006104402      3.54346985599427      0.00816696660346
C   0.00000526469929     -2.83678176723568      0.00832091913869
C   -2.45643555300670      1.41831729028492      0.00842454345199
C   2.45512389762097     -2.83422965658853      0.00783102630520
C   -1.22671388474763      3.54346943575023      0.00827029982280
C   4.91451777504333      1.42717324448953     -0.00160886631602
C   3.69315067131765      3.54279566454522     -0.00155906667985
C   -2.45643712022637     -1.41831290883911     -0.00846337726810
C   1.22670532178455     -3.54347386990643     -0.00780316414624
C   -2.45512491866593      2.83421703463423     -0.00818572995999
C   4.91452486062398     -1.42718653794377      0.00136387641845
C   1.22142509354026      4.97013443726031      0.00150231067809
C   4.89300870916237      2.82518837202648     -0.00039219795739
C   -1.22669652864725     -3.54347062507680     -0.00753595973677
C   -3.68181849668397      0.70932533873199     -0.00807686886569
C   3.69314758099218     -3.54280096939050      0.00148176697923
C   -1.22143177215231      4.97012866986289      0.00168580605083
C   6.13477145276790      0.68054831910577     -0.00083909176631
C   3.65678936045204      4.97295361556775     -0.00065042889723
C   -2.45512642789169     -2.83421472106065      0.00758666850712
C   -3.68181869921921     -0.70932533146830      0.00810055625144
C   4.89301309775526     -2.82519973363176      0.00021895393805
C   -0.00000059327114      5.65044773803267      0.00045449734393
C   6.13477559217374     -0.68055448207492      0.00042622874941
C   2.47813196269732      5.65357712333155      0.00063835075260
C   1.22142288457925     -4.97012668293268     -0.00129718634452
C   -3.69316190412301      3.54279732619245     -0.00139355922051
C   -1.22142804110313     -4.97011793159564     -0.00140994817719
C   -4.91452132810043      1.42717581899491     -0.00153192130862
C   3.65678749952045     -4.97295485423912      0.00080007163680
C   -2.47813805026426      5.65357479452875      0.00092287576113
C   -3.69314125872231     -3.54278984697859      0.00136564082345
C   -4.91451200321153     -1.42718062802730      0.00139857359209
C   -0.00000552908399     -5.65043791501335      0.00005899322272
C   -4.89302000425900      2.82518897091939     -0.00040227981744
C   2.47812647313991     -5.65357317188818     -0.00029052915548
C   -3.65679823041642      4.97295655404175     -0.00047374852278
C   -4.89299899901461     -2.82519139505969      0.00006491824035
C   -2.47812801824129     -5.65356579800621     -0.00056571680280
C   -6.13477002348955      0.68054913825639     -0.00086464346868
C   -3.65678835334731     -4.97294365097028      0.00058578382008
C   -6.13476456307132     -0.68055354348201      0.00040575295444
H   5.83528897565761      3.36927626695423      0.00396712770529
H   7.07385965258860      1.22821762089947     -0.00037744837300
H   4.60066374401555      5.51238117445323     -0.00014522814529
H   5.83528386714679     -3.36930568472863     -0.00423551337640
H   -0.00001167146422      6.73853104613662     -0.00389474766392
H   7.07386165167227     -1.22822657074368     -0.00008250934481
H   2.47331421164041      6.74068466339473      0.00017162982210
H   4.60066897122302     -5.51237575717576      0.00039007446835
H   -2.47331820069565      6.74068209160650      0.00047297644710
H   -0.00000978838621     -6.73852780445195      0.00458867820736
H   -5.83530143450167      3.36927132229595      0.00410314985360
H   2.47330840367253     -6.74068500242887      0.00027980126949
H   -4.60067436136587      5.51237839860371      0.00002010017831
H   -5.83527902699321     -3.36928859177951     -0.00451481925734
H   -2.47329986759855     -6.74067870613986     -0.00016951527498
H   -7.07385728692578      1.22822084484047     -0.00046143985387
H   -4.60067330624313     -5.51236229778631      0.00021776644566
H   -7.07385645456741     -1.22822025997701     -0.00017736581114

    units angstrom      # Angstroms are the default
    no_reorient         # Geometry fixed, default
    symmetry c1         # C1 symmetry, default
}

set {
    scf_type DF         # Density fitting, faster than exact integrals
    freeze_core True    # Freeze core electrons
    basis jun-cc-pVDZ   # Jun-cc-pVDZ basis set, recommended for sSAPT0 in https://doi.org/10.1063/1.4867135
}

energy('ssapt0')        # Compute sSAPT0 energy, includes also SAPT0
--------------------------------------------------------------------------

  Memory set to  44.703 GiB by Python driver.

Scratch directory: /tmp/
   => Loading Basis Set <=

    Name: JUN-CC-PVDZ
    Role: ORBITAL
    Keyword: BASIS
    atoms 1-2, 4-5, 10, 17-70 entry C          line   164 file /opt/software/pc2/EB-SW/software/PSI4/1.9-foss-2022a/share/psi4/basis/jun-cc-pvdz.gbs 
    atoms 3, 6                entry N          line   198 file /opt/software/pc2/EB-SW/software/PSI4/1.9-foss-2022a/share/psi4/basis/jun-cc-pvdz.gbs 
    atoms 7-9, 11-16, 71-88   entry H          line    36 file /opt/software/pc2/EB-SW/software/PSI4/1.9-foss-2022a/share/psi4/basis/jun-cc-pvdz.gbs 

   => Loading Basis Set <=

    Name: JUN-CC-PVDZ
    Role: ORBITAL
    Keyword: BASIS
    atoms 1-2, 4-5, 10, 17-70 entry C          line   164 file /opt/software/pc2/EB-SW/software/PSI4/1.9-foss-2022a/share/psi4/basis/jun-cc-pvdz.gbs 
    atoms 3, 6                entry N          line   198 file /opt/software/pc2/EB-SW/software/PSI4/1.9-foss-2022a/share/psi4/basis/jun-cc-pvdz.gbs 
    atoms 7-9, 11-16, 71-88   entry H          line    36 file /opt/software/pc2/EB-SW/software/PSI4/1.9-foss-2022a/share/psi4/basis/jun-cc-pvdz.gbs 


  //>>>>>>>>>>>>>>>>>>>>>>>>>>>>>>>>>>>//
  //              Dimer HF             //
  //<<<<<<<<<<<<<<<<<<<<<<<<<<<<<<<<<<<//

   => Libint2 <=

    Primary   basis highest AM E, G, H:  5, 4, 3
    Auxiliary basis highest AM E, G, H:  6, 5, 4
    Onebody   basis highest AM E, G, H:  6, 5, 4
    Solid Harmonics ordering:            gaussian

*** tstart() called on n2cn1075
*** at Sat Feb 10 12:49:51 2024

   => Loading Basis Set <=

    Name: JUN-CC-PVDZ
    Role: ORBITAL
    Keyword: BASIS
    atoms 1-2, 4-5, 10, 17-70 entry C          line   164 file /opt/software/pc2/EB-SW/software/PSI4/1.9-foss-2022a/share/psi4/basis/jun-cc-pvdz.gbs 
    atoms 3, 6                entry N          line   198 file /opt/software/pc2/EB-SW/software/PSI4/1.9-foss-2022a/share/psi4/basis/jun-cc-pvdz.gbs 
    atoms 7-9, 11-16, 71-88   entry H          line    36 file /opt/software/pc2/EB-SW/software/PSI4/1.9-foss-2022a/share/psi4/basis/jun-cc-pvdz.gbs 


         ---------------------------------------------------------
                                   SCF
               by Justin Turney, Rob Parrish, Andy Simmonett
                          and Daniel G. A. Smith
                              RHF Reference
                       16 Threads,  45776 MiB Core
         ---------------------------------------------------------

  ==> Geometry <==

    Molecular point group: c1
    Full point group: C1

    Geometry (in Angstrom), charge = 1, multiplicity = 1:

       Center              X                  Y                   Z               Mass       
    ------------   -----------------  -----------------  -----------------  -----------------
         C            0.680066520158    -0.008042372515    -4.968997653585    12.000000000000
         C           -0.680504479842    -0.006014372515    -4.968613653585    12.000000000000
         N           -1.085635479842    -0.005016372515    -3.650289653585    14.003074004430
         C            0.000107520158    -0.001740372515    -2.868888653585    12.000000000000
         C           -2.477365479842     0.044389627485    -3.182310653585    12.000000000000
         N            1.085221520158    -0.005016372515    -3.650289653585    14.003074004430
         H            1.385145520158    -0.015870372515    -5.786436653585     1.007825032230
         H           -1.385302479842    -0.006204372515    -5.786282653585     1.007825032230
         H           -0.000009479842     0.000006627485    -1.787799653585     1.007825032230
         C            2.478116520158    -0.021908372515    -3.185191653585    12.000000000000
         H            2.490591520158     0.005436627485    -2.094938653585     1.007825032230
         H            2.967027520158    -0.935354372515    -3.532367653585     1.007825032230
         H            3.001427520158     0.853574627485    -3.576663653585     1.007825032230
         H           -2.857359479842     1.066460627485    -3.262269653585     1.007825032230
         H           -3.082679479842    -0.625694372515    -3.795374653585     1.007825032230
         H           -2.518128479842    -0.282594372515    -2.142362653585     1.007825032230
         C            1.225311895423     0.707538288405     0.553068973699    12.000000000000
         C            1.225323856051    -0.707538895085     0.540738164129    12.000000000000
         C           -0.000006153932     1.414965913575     0.540204540608    12.000000000000
         C            2.456448753949     1.418327886663     0.555955831099    12.000000000000
         C            0.000010827279    -1.414976499150     0.550404097933    12.000000000000
         C           -1.225300948908     0.707545373469     0.555320494022    12.000000000000
         C            2.456437755320    -1.418323304396     0.538493007272    12.000000000000
         C           -0.000001332978     2.836801030766     0.537800990474    12.000000000000
         C            3.681826697470     0.709317955486     0.538841797070    12.000000000000
         C            2.455120048865     2.834223660974     0.538739240109    12.000000000000
         C            3.681821105219    -0.709333839944     0.554914281088    12.000000000000
         C           -1.225313598688    -0.707527516059     0.541810925556    12.000000000000
         C            1.226699581202     3.543469483479     0.555098313019    12.000000000000
         C            0.000004784858    -2.836782139751     0.555252265554    12.000000000000
         C           -2.456436032848     1.418316917770     0.555355889867    12.000000000000
         C            2.455123417779    -2.834230029103     0.554762372721    12.000000000000
         C           -1.226714364589     3.543469063235     0.555201646238    12.000000000000
         C            4.914517295202     1.427172871975     0.545322480099    12.000000000000
         C            3.693150191476     3.542795292030     0.545372279736    12.000000000000
         C           -2.456437600068    -1.418313281354     0.538467969147    12.000000000000
         C            1.226704841943    -3.543474242421     0.539128182269    12.000000000000
         C           -2.455125398508     2.834216662119     0.538745616455    12.000000000000
         C            4.914524380782    -1.427186910459     0.548295222834    12.000000000000
         C            1.221424613699     4.970134064745     0.548433657094    12.000000000000
         C            4.893008229321     2.825187999512     0.546539148458    12.000000000000
         C           -1.226697008489    -3.543470997592     0.539395386679    12.000000000000
         C           -3.681818976526     0.709324966217     0.538854477550    12.000000000000
         C            3.693147101150    -3.542801341905     0.548413113395    12.000000000000
         C           -1.221432251994     4.970128297348     0.548617152466    12.000000000000
         C            6.134770972926     0.680547946591     0.546092254649    12.000000000000
         C            3.656788880610     4.972953243053     0.546280917518    12.000000000000
         C           -2.455126907733    -2.834215093576     0.554518014923    12.000000000000
         C           -3.681819179061    -0.709325703983     0.555031902667    12.000000000000
         C            4.893012617914    -2.825200106147     0.547150300353    12.000000000000
         C           -0.000001073113     5.650447365518     0.547385843759    12.000000000000
         C            6.134775112332    -0.680554854590     0.547357575165    12.000000000000
         C            2.478131482856     5.653576750817     0.547569697168    12.000000000000
         C            1.221422404738    -4.970127055448     0.545634160071    12.000000000000
         C           -3.693162383965     3.542796953677     0.545537787195    12.000000000000
         C           -1.221428520945    -4.970118304111     0.545521398238    12.000000000000
         C           -4.914521807942     1.427175446480     0.545399425107    12.000000000000
         C            3.656787019679    -4.972955226754     0.547731418052    12.000000000000
         C           -2.478138530106     5.653574422014     0.547854222177    12.000000000000
         C           -3.693141738564    -3.542790219494     0.548296987239    12.000000000000
         C           -4.914512483053    -1.427181000542     0.548329920008    12.000000000000
         C           -0.000006008926    -5.650438287528     0.546990339638    12.000000000000
         C           -4.893020484101     2.825188598404     0.546529066598    12.000000000000
         C            2.478125993298    -5.653573544403     0.546640817260    12.000000000000
         C           -3.656798710258     4.972956181527     0.546457597893    12.000000000000
         C           -4.892999478856    -2.825191767575     0.546996264656    12.000000000000
         C           -2.478128498083    -5.653566170521     0.546365629613    12.000000000000
         C           -6.134770503331     0.680548765741     0.546066702947    12.000000000000
         C           -3.656788833189    -4.972944023485     0.547517130236    12.000000000000
         C           -6.134765042913    -0.680553915997     0.547337099370    12.000000000000
         H            5.835288495816     3.369275894439     0.550898474121     1.007825032230
         H            7.073859172747     1.228217248385     0.546553898042     1.007825032230
         H            4.600663264174     5.512380801938     0.546786118270     1.007825032230
         H            5.835283387305    -3.369306057244     0.542695833039     1.007825032230
         H           -0.000012151306     6.738530673622     0.543036598752     1.007825032230
         H            7.073861171831    -1.228226943259     0.546848837071     1.007825032230
         H            2.473313731799     6.740684290880     0.547102976238     1.007825032230
         H            4.600668491381    -5.512376129691     0.547321420884     1.007825032230
         H           -2.473318680537     6.740681719092     0.547404322863     1.007825032230
         H           -0.000010268228    -6.738528176967     0.551520024623     1.007825032230
         H           -5.835301914343     3.369270949781     0.551034496269     1.007825032230
         H            2.473307923831    -6.740685374944     0.547211147685     1.007825032230
         H           -4.600674841208     5.512378026089     0.546951446594     1.007825032230
         H           -5.835279506835    -3.369288964294     0.542416527158     1.007825032230
         H           -2.473300347440    -6.740679078655     0.546761831140     1.007825032230
         H           -7.073857766768     1.228220472326     0.546469906562     1.007825032230
         H           -4.600673786085    -5.512362670301     0.547149112861     1.007825032230
         H           -7.073856934409    -1.228220632492     0.546753980604     1.007825032230

  Running in c1 symmetry.

  Rotational constants: A =      0.00182  B =      0.00178  C =      0.00109 [cm^-1]
  Rotational constants: A =     54.67816  B =     53.29820  C =     32.71081 [MHz]
  Nuclear repulsion = 8297.137576140974488

  Charge       = 1
  Multiplicity = 1
  Electrons    = 394
  Nalpha       = 197
  Nbeta        = 197

  ==> Algorithm <==

  SCF Algorithm Type is DF.
  DIIS enabled.
  MOM disabled.
  Fractional occupation disabled.
  Guess Type is SAD.
  Energy threshold   = 1.00e-08
  Density threshold  = 1.00e-08
  Integral threshold = 1.00e-12

  ==> Primary Basis <==

  Basis Set: JUN-CC-PVDZ
    Blend: JUN-CC-PVDZ
    Number of shells: 569
    Number of basis functions: 1233
    Number of Cartesian functions: 1294
    Spherical Harmonics?: true
    Max angular momentum: 2

   => Loading Basis Set <=

    Name: (JUN-CC-PVDZ AUX)
    Role: JKFIT
    Keyword: DF_BASIS_SCF
    atoms 1-2, 4-5, 10, 17-70 entry C          line   146 file /opt/software/pc2/EB-SW/software/PSI4/1.9-foss-2022a/share/psi4/basis/jun-cc-pvdz-jkfit.gbs 
    atoms 3, 6                entry N          line   202 file /opt/software/pc2/EB-SW/software/PSI4/1.9-foss-2022a/share/psi4/basis/jun-cc-pvdz-jkfit.gbs 
    atoms 7-9, 11-16, 71-88   entry H          line    70 file /opt/software/pc2/EB-SW/software/PSI4/1.9-foss-2022a/share/psi4/basis/jun-cc-pvdz-jkfit.gbs 

  ==> Integral Setup <==

  ==> DiskDFJK: Density-Fitted J/K Matrices <==

    J tasked:                  Yes
    K tasked:                  Yes
    wK tasked:                  No
    OpenMP threads:             16
    Integrals threads:          16
    Memory [MiB]:            34332
    Algorithm:                Core
    Integral Cache:           SAVE
    Schwarz Cutoff:          1E-12
    Fitting Condition:       1E-10

   => Auxiliary Basis Set <=

  Basis Set: (JUN-CC-PVDZ AUX)
    Blend: JUN-CC-PVDZ-JKFIT
    Number of shells: 1890
    Number of basis functions: 5440
    Number of Cartesian functions: 6226
    Spherical Harmonics?: true
    Max angular momentum: 3

  Minimum eigenvalue in the overlap matrix is 5.5262726623E-10.
  Reciprocal condition number of the overlap matrix is 2.2802299129E-11.
    Using canonical orthogonalization.
  Overall, 14 of 1233 possible MOs eliminated.


  ==> Pre-Iterations <==

  SCF Guess: Superposition of Atomic Densities via on-the-fly atomic UHF (no occupation information).

   -------------------------
    Irrep   Nso     Nmo    
   -------------------------
     A       1233    1219 
   -------------------------
    Total    1233    1219
   -------------------------

  ==> Iterations <==

                           Total Energy        Delta E     RMS |[F,P]|

   @DF-RHF iter SAD: -2365.71485198799610   -2.36571e+03   0.00000e+00 
   @DF-RHF iter   1: -2358.21751808548470    7.49733e+00   9.42681e-04 DIIS/ADIIS
   @DF-RHF iter   2: -2359.10900912379657   -8.91491e-01   3.18575e-04 DIIS/ADIIS
   @DF-RHF iter   3: -2359.19704328716534   -8.80342e-02   1.20351e-04 DIIS/ADIIS
   @DF-RHF iter   4: -2359.21018049680970   -1.31372e-02   4.46636e-05 DIIS
   @DF-RHF iter   5: -2359.21205940395703   -1.87891e-03   9.86710e-06 DIIS
   @DF-RHF iter   6: -2359.21223865916909   -1.79255e-04   5.36068e-06 DIIS
   @DF-RHF iter   7: -2359.21230942896773   -7.07698e-05   2.41861e-06 DIIS
   @DF-RHF iter   8: -2359.21233150172475   -2.20728e-05   1.16291e-06 DIIS
   @DF-RHF iter   9: -2359.21233692927444   -5.42755e-06   2.96467e-07 DIIS
   @DF-RHF iter  10: -2359.21233718773055   -2.58456e-07   1.08677e-07 DIIS
   @DF-RHF iter  11: -2359.21233720879627   -2.10657e-08   4.31058e-08 DIIS
   @DF-RHF iter  12: -2359.21233721313047   -4.33420e-09   2.15586e-08 DIIS
   @DF-RHF iter  13: -2359.21233721410863   -9.78162e-10   6.28767e-09 DIIS
  Energy and wave function converged.


  ==> Post-Iterations <==

    Orbital Energies [Eh]
    ---------------------

    Doubly Occupied:                                                      

       1A    -15.797103     2A    -15.796650     3A    -11.489230  
       4A    -11.427135     5A    -11.425577     6A    -11.412360  
       7A    -11.412325     8A    -11.349475     9A    -11.349134  
      10A    -11.348783    11A    -11.348044    12A    -11.347593  
      13A    -11.347238    14A    -11.342812    15A    -11.342806  
      16A    -11.342714    17A    -11.342666    18A    -11.341317  
      19A    -11.341182    20A    -11.340047    21A    -11.340030  
      22A    -11.339085    23A    -11.339042    24A    -11.338784  
      25A    -11.338661    26A    -11.338622    27A    -11.338546  
      28A    -11.337425    29A    -11.337384    30A    -11.337289  
      31A    -11.337254    32A    -11.336916    33A    -11.336908  
      34A    -11.336863    35A    -11.336851    36A    -11.336181  
      37A    -11.336177    38A    -11.336171    39A    -11.336137  
      40A    -11.335187    41A    -11.335111    42A    -11.335103  
      43A    -11.335025    44A    -11.329461    45A    -11.329356  
      46A    -11.329345    47A    -11.329296    48A    -11.328015  
      49A    -11.327984    50A    -11.327169    51A    -11.327165  
      52A    -11.325732    53A    -11.325728    54A    -11.325652  
      55A    -11.325641    56A    -11.325632    57A    -11.325614  
      58A    -11.324190    59A    -11.324189    60A    -11.324179  
      61A    -11.324151    62A     -1.541561    63A     -1.397027  
      64A     -1.329570    65A     -1.302137    66A     -1.300701  
      67A     -1.269349    68A     -1.269132    69A     -1.264117  
      70A     -1.235498    71A     -1.228134    72A     -1.217974  
      73A     -1.216792    74A     -1.203274    75A     -1.190895  
      76A     -1.190861    77A     -1.163081    78A     -1.162881  
      79A     -1.159842    80A     -1.152344    81A     -1.143199  
      82A     -1.143197    83A     -1.117913    84A     -1.105909  
      85A     -1.104736    86A     -1.103867    87A     -1.095102  
      88A     -1.089594    89A     -1.082607    90A     -1.067021  
      91A     -1.066746    92A     -1.039846    93A     -1.039679  
      94A     -0.987077    95A     -0.973479    96A     -0.973300  
      97A     -0.970367    98A     -0.967138    99A     -0.966800  
     100A     -0.961453   101A     -0.961363   102A     -0.960075  
     103A     -0.939707   104A     -0.912994   105A     -0.897373  
     106A     -0.896331   107A     -0.892341   108A     -0.891788  
     109A     -0.880997   110A     -0.871726   111A     -0.871609  
     112A     -0.827370   113A     -0.825047   114A     -0.814328  
     115A     -0.813990   116A     -0.813446   117A     -0.809379  
     118A     -0.809284   119A     -0.795980   120A     -0.782227  
     121A     -0.777178   122A     -0.776506   123A     -0.776167  
     124A     -0.772688   125A     -0.772039   126A     -0.754916  
     127A     -0.750585   128A     -0.748503   129A     -0.738089  
     130A     -0.733112   131A     -0.731562   132A     -0.727071  
     133A     -0.726984   134A     -0.716928   135A     -0.716503  
     136A     -0.708652   137A     -0.706827   138A     -0.706725  
     139A     -0.704186   140A     -0.692077   141A     -0.682014  
     142A     -0.681136   143A     -0.681014   144A     -0.679394  
     145A     -0.677345   146A     -0.676614   147A     -0.672633  
     148A     -0.672466   149A     -0.671827   150A     -0.660348  
     151A     -0.657657   152A     -0.656849   153A     -0.646409  
     154A     -0.645888   155A     -0.643421   156A     -0.643193  
     157A     -0.638239   158A     -0.631552   159A     -0.631161  
     160A     -0.617848   161A     -0.617825   162A     -0.615282  
     163A     -0.615225   164A     -0.611049   165A     -0.607701  
     166A     -0.600852   167A     -0.600229   168A     -0.576690  
     169A     -0.573065   170A     -0.570192   171A     -0.566710  
     172A     -0.564071   173A     -0.561092   174A     -0.560005  
     175A     -0.559830   176A     -0.553691   177A     -0.552784  
     178A     -0.531995   179A     -0.531536   180A     -0.516174  
     181A     -0.516086   182A     -0.489973   183A     -0.486157  
     184A     -0.485628   185A     -0.484198   186A     -0.451854  
     187A     -0.451559   188A     -0.427898   189A     -0.423141  
     190A     -0.421684   191A     -0.421441   192A     -0.388439  
     193A     -0.373242   194A     -0.365879   195A     -0.365806  
     196A     -0.304110   197A     -0.303590  

    Virtual:                                                              

     198A     -0.065048   199A     -0.064650   200A     -0.038190  
     201A     -0.031991   202A     -0.031440   203A     -0.018400  
     204A     -0.016509   205A     -0.016301   206A     -0.012026  
     207A     -0.011588   208A     -0.010026   209A     -0.007955  
     210A     -0.004849   211A     -0.002183   212A      0.001121  
     213A      0.002171   214A      0.005657   215A      0.005981  
     216A      0.007356   217A      0.008670   218A      0.010114  
     219A      0.013240   220A      0.013373   221A      0.015475  
     222A      0.016207   223A      0.018217   224A      0.018379  
     225A      0.022070   226A      0.025171   227A      0.028921  
     228A      0.030975   229A      0.031392   230A      0.033733  
     231A      0.033893   232A      0.036003   233A      0.036733  
     234A      0.043922   235A      0.044747   236A      0.044860  
     237A      0.047114   238A      0.048444   239A      0.049510  
     240A      0.051228   241A      0.054075   242A      0.056838  
     243A      0.060285   244A      0.065718   245A      0.066432  
     246A      0.069198   247A      0.069869   248A      0.071578  
     249A      0.072569   250A      0.074344   251A      0.074814  
     252A      0.076285   253A      0.076633   254A      0.078804  
     255A      0.085431   256A      0.086257   257A      0.087363  
     258A      0.088394   259A      0.088844   260A      0.096245  
     261A      0.097217   262A      0.097595   263A      0.101081  
     264A      0.101754   265A      0.102615   266A      0.106799  
     267A      0.107682   268A      0.108712   269A      0.110667  
     270A      0.112864   271A      0.115526   272A      0.117379  
     273A      0.119259   274A      0.119954   275A      0.120631  
     276A      0.120751   277A      0.121002   278A      0.123194  
     279A      0.127083   280A      0.128109   281A      0.132703  
     282A      0.133522   283A      0.138675   284A      0.140241  
     285A      0.141222   286A      0.142562   287A      0.142697  
     288A      0.145127   289A      0.146236   290A      0.146809  
     291A      0.148246   292A      0.150362   293A      0.151215  
     294A      0.151769   295A      0.151912   296A      0.154594  
     297A      0.157231   298A      0.158413   299A      0.159849  
     300A      0.162397   301A      0.163034   302A      0.163274  
     303A      0.163716   304A      0.165986   305A      0.169087  
     306A      0.169971   307A      0.170787   308A      0.171499  
     309A      0.172415   310A      0.173641   311A      0.175889  
     312A      0.176851   313A      0.178503   314A      0.183722  
     315A      0.184603   316A      0.187754   317A      0.187802  
     318A      0.188518   319A      0.188916   320A      0.190373  
     321A      0.190831   322A      0.192179   323A      0.197062  
     324A      0.197183   325A      0.197246   326A      0.198370  
     327A      0.201362   328A      0.202876   329A      0.204172  
     330A      0.205557   331A      0.206464   332A      0.207928  
     333A      0.208284   334A      0.210874   335A      0.213232  
     336A      0.215107   337A      0.215727   338A      0.217967  
     339A      0.220909   340A      0.227533   341A      0.231430  
     342A      0.232272   343A      0.233503   344A      0.234603  
     345A      0.235152   346A      0.237146   347A      0.237870  
     348A      0.238373   349A      0.240152   350A      0.240516  
     351A      0.241752   352A      0.242664   353A      0.243492  
     354A      0.243615   355A      0.244456   356A      0.245993  
     357A      0.247793   358A      0.248088   359A      0.248314  
     360A      0.249545   361A      0.250670   362A      0.252829  
     363A      0.253285   364A      0.254257   365A      0.255309  
     366A      0.258108   367A      0.260391   368A      0.263021  
     369A      0.264673   370A      0.266581   371A      0.269410  
     372A      0.270271   373A      0.272111   374A      0.272471  
     375A      0.272741   376A      0.277327   377A      0.278339  
     378A      0.281934   379A      0.283075   380A      0.283347  
     381A      0.284751   382A      0.285180   383A      0.286515  
     384A      0.288543   385A      0.289601   386A      0.290683  
     387A      0.291186   388A      0.294566   389A      0.294986  
     390A      0.296267   391A      0.297709   392A      0.299306  
     393A      0.299618   394A      0.301957   395A      0.304019  
     396A      0.306801   397A      0.308153   398A      0.308534  
     399A      0.311394   400A      0.312410   401A      0.315919  
     402A      0.316313   403A      0.317087   404A      0.317889  
     405A      0.319281   406A      0.324889   407A      0.326082  
     408A      0.326671   409A      0.327310   410A      0.328978  
     411A      0.329963   412A      0.330370   413A      0.331531  
     414A      0.332749   415A      0.334517   416A      0.335090  
     417A      0.336181   418A      0.337935   419A      0.338854  
     420A      0.339717   421A      0.340039   422A      0.340761  
     423A      0.341990   424A      0.343579   425A      0.344744  
     426A      0.345409   427A      0.348790   428A      0.349706  
     429A      0.351771   430A      0.352360   431A      0.354433  
     432A      0.355820   433A      0.360136   434A      0.363237  
     435A      0.364259   436A      0.366333   437A      0.369537  
     438A      0.370409   439A      0.370958   440A      0.372032  
     441A      0.373599   442A      0.375218   443A      0.377312  
     444A      0.381321   445A      0.382620   446A      0.383013  
     447A      0.384187   448A      0.385607   449A      0.386478  
     450A      0.387670   451A      0.389519   452A      0.390771  
     453A      0.393808   454A      0.397106   455A      0.398851  
     456A      0.401037   457A      0.401688   458A      0.403689  
     459A      0.405993   460A      0.406671   461A      0.408840  
     462A      0.409685   463A      0.415187   464A      0.416524  
     465A      0.419103   466A      0.420043   467A      0.421915  
     468A      0.422100   469A      0.423261   470A      0.423953  
     471A      0.424211   472A      0.427397   473A      0.429435  
     474A      0.432766   475A      0.434011   476A      0.435813  
     477A      0.438798   478A      0.443278   479A      0.445557  
     480A      0.446609   481A      0.448731   482A      0.451674  
     483A      0.453652   484A      0.456026   485A      0.457152  
     486A      0.459760   487A      0.462059   488A      0.466054  
     489A      0.470151   490A      0.471369   491A      0.471715  
     492A      0.472132   493A      0.475750   494A      0.478473  
     495A      0.479059   496A      0.479191   497A      0.479526  
     498A      0.482596   499A      0.483588   500A      0.485891  
     501A      0.488159   502A      0.490378   503A      0.494091  
     504A      0.495564   505A      0.498684   506A      0.512197  
     507A      0.513835   508A      0.515463   509A      0.519966  
     510A      0.520498   511A      0.522448   512A      0.524331  
     513A      0.535398   514A      0.536359   515A      0.539596  
     516A      0.543152   517A      0.544574   518A      0.544934  
     519A      0.550317   520A      0.555919   521A      0.558673  
     522A      0.562325   523A      0.563024   524A      0.575895  
     525A      0.580183   526A      0.581003   527A      0.591770  
     528A      0.593163   529A      0.600153   530A      0.600274  
     531A      0.601030   532A      0.611294   533A      0.638204  
     534A      0.638939   535A      0.662415   536A      0.663582  
     537A      0.666783   538A      0.667066   539A      0.668583  
     540A      0.669177   541A      0.680303   542A      0.681034  
     543A      0.684610   544A      0.691665   545A      0.706692  
     546A      0.712684   547A      0.714157   548A      0.720323  
     549A      0.725325   550A      0.731032   551A      0.734735  
     552A      0.736642   553A      0.738921   554A      0.741790  
     555A      0.745870   556A      0.749454   557A      0.750831  
     558A      0.753421   559A      0.754832   560A      0.758125  
     561A      0.759971   562A      0.763988   563A      0.764373  
     564A      0.766211   565A      0.769379   566A      0.775592  
     567A      0.776901   568A      0.786463   569A      0.788422  
     570A      0.789743   571A      0.794675   572A      0.795530  
     573A      0.799569   574A      0.802723   575A      0.803444  
     576A      0.804872   577A      0.808821   578A      0.813873  
     579A      0.815154   580A      0.816571   581A      0.817788  
     582A      0.820947   583A      0.821385   584A      0.823824  
     585A      0.826365   586A      0.828646   587A      0.832106  
     588A      0.834893   589A      0.837416   590A      0.839129  
     591A      0.840103   592A      0.840724   593A      0.842933  
     594A      0.846291   595A      0.847992   596A      0.848628  
     597A      0.850114   598A      0.853144   599A      0.854814  
     600A      0.855406   601A      0.857338   602A      0.860146  
     603A      0.862844   604A      0.865663   605A      0.866382  
     606A      0.871656   607A      0.873141   608A      0.875844  
     609A      0.876501   610A      0.879208   611A      0.881007  
     612A      0.886201   613A      0.890338   614A      0.891508  
     615A      0.892107   616A      0.894804   617A      0.899397  
     618A      0.899910   619A      0.900736   620A      0.904059  
     621A      0.904302   622A      0.905769   623A      0.910752  
     624A      0.911006   625A      0.912063   626A      0.917673  
     627A      0.919852   628A      0.923448   629A      0.926585  
     630A      0.933103   631A      0.936826   632A      0.937259  
     633A      0.940934   634A      0.943453   635A      0.944879  
     636A      0.946522   637A      0.948069   638A      0.948683  
     639A      0.949475   640A      0.955326   641A      0.956760  
     642A      0.958090   643A      0.959132   644A      0.962538  
     645A      0.963309   646A      0.964876   647A      0.966932  
     648A      0.968371   649A      0.969764   650A      0.972084  
     651A      0.974864   652A      0.975418   653A      0.977331  
     654A      0.979472   655A      0.981196   656A      0.982045  
     657A      0.982663   658A      0.983812   659A      0.985732  
     660A      0.988793   661A      0.990367   662A      0.994467  
     663A      0.996991   664A      0.999276   665A      1.001140  
     666A      1.004858   667A      1.007388   668A      1.008737  
     669A      1.014035   670A      1.014980   671A      1.017366  
     672A      1.018155   673A      1.019883   674A      1.021492  
     675A      1.022930   676A      1.027275   677A      1.028755  
     678A      1.030027   679A      1.030477   680A      1.032208  
     681A      1.036108   682A      1.036682   683A      1.037734  
     684A      1.039797   685A      1.042697   686A      1.043392  
     687A      1.045794   688A      1.050441   689A      1.051886  
     690A      1.054038   691A      1.059192   692A      1.059887  
     693A      1.064429   694A      1.065357   695A      1.067552  
     696A      1.068544   697A      1.074076   698A      1.078882  
     699A      1.079918   700A      1.081747   701A      1.084500  
     702A      1.089162   703A      1.093634   704A      1.095667  
     705A      1.099028   706A      1.103481   707A      1.103850  
     708A      1.108630   709A      1.111347   710A      1.113843  
     711A      1.118330   712A      1.119386   713A      1.121024  
     714A      1.125966   715A      1.130376   716A      1.131419  
     717A      1.134103   718A      1.145113   719A      1.146056  
     720A      1.147095   721A      1.147325   722A      1.153685  
     723A      1.154988   724A      1.160761   725A      1.164742  
     726A      1.169177   727A      1.172640   728A      1.174862  
     729A      1.178529   730A      1.181691   731A      1.183999  
     732A      1.185684   733A      1.186753   734A      1.187722  
     735A      1.189039   736A      1.190160   737A      1.192003  
     738A      1.196157   739A      1.199520   740A      1.202685  
     741A      1.206245   742A      1.213773   743A      1.215120  
     744A      1.219771   745A      1.221449   746A      1.223804  
     747A      1.224829   748A      1.230921   749A      1.233264  
     750A      1.234909   751A      1.239128   752A      1.240251  
     753A      1.247017   754A      1.248623   755A      1.251731  
     756A      1.252576   757A      1.252997   758A      1.255132  
     759A      1.256732   760A      1.263093   761A      1.266835  
     762A      1.270586   763A      1.271789   764A      1.274624  
     765A      1.274782   766A      1.279261   767A      1.283196  
     768A      1.284600   769A      1.285587   770A      1.287366  
     771A      1.291194   772A      1.293979   773A      1.300983  
     774A      1.302304   775A      1.308512   776A      1.311047  
     777A      1.315255   778A      1.331105   779A      1.333076  
     780A      1.333457   781A      1.339590   782A      1.339815  
     783A      1.341051   784A      1.342463   785A      1.343498  
     786A      1.346772   787A      1.351248   788A      1.353414  
     789A      1.357610   790A      1.362798   791A      1.364519  
     792A      1.366234   793A      1.367355   794A      1.371330  
     795A      1.372207   796A      1.374308   797A      1.374741  
     798A      1.375514   799A      1.376956   800A      1.379242  
     801A      1.389050   802A      1.394573   803A      1.398996  
     804A      1.400031   805A      1.438588   806A      1.440482  
     807A      1.441680   808A      1.441933   809A      1.442180  
     810A      1.445127   811A      1.462525   812A      1.470751  
     813A      1.485635   814A      1.498520   815A      1.507173  
     816A      1.510624   817A      1.514209   818A      1.520349  
     819A      1.525006   820A      1.528871   821A      1.529895  
     822A      1.531478   823A      1.533677   824A      1.535945  
     825A      1.536557   826A      1.540534   827A      1.542171  
     828A      1.546218   829A      1.548499   830A      1.554008  
     831A      1.557748   832A      1.560133   833A      1.565665  
     834A      1.567636   835A      1.568304   836A      1.569686  
     837A      1.581720   838A      1.582681   839A      1.586228  
     840A      1.587872   841A      1.590262   842A      1.592561  
     843A      1.596448   844A      1.598454   845A      1.599116  
     846A      1.600999   847A      1.605441   848A      1.606954  
     849A      1.608212   850A      1.616993   851A      1.619062  
     852A      1.621108   853A      1.621302   854A      1.622295  
     855A      1.623464   856A      1.626445   857A      1.628291  
     858A      1.634956   859A      1.638785   860A      1.642157  
     861A      1.656744   862A      1.662185   863A      1.663422  
     864A      1.674094   865A      1.680057   866A      1.681496  
     867A      1.686080   868A      1.687670   869A      1.692222  
     870A      1.695992   871A      1.700156   872A      1.708547  
     873A      1.715276   874A      1.717171   875A      1.725566  
     876A      1.733506   877A      1.739206   878A      1.741709  
     879A      1.742216   880A      1.743777   881A      1.745398  
     882A      1.747808   883A      1.754628   884A      1.757250  
     885A      1.762152   886A      1.766591   887A      1.768969  
     888A      1.781915   889A      1.783917   890A      1.787468  
     891A      1.790522   892A      1.791342   893A      1.792638  
     894A      1.795632   895A      1.801010   896A      1.802195  
     897A      1.807674   898A      1.814000   899A      1.819149  
     900A      1.819741   901A      1.824172   902A      1.826942  
     903A      1.828922   904A      1.829847   905A      1.831109  
     906A      1.831341   907A      1.834509   908A      1.837436  
     909A      1.838687   910A      1.840058   911A      1.841613  
     912A      1.844396   913A      1.848230   914A      1.850542  
     915A      1.852974   916A      1.861095   917A      1.865078  
     918A      1.866902   919A      1.870428   920A      1.871506  
     921A      1.873274   922A      1.875277   923A      1.877393  
     924A      1.878530   925A      1.879424   926A      1.879584  
     927A      1.885732   928A      1.889902   929A      1.891533  
     930A      1.898674   931A      1.907332   932A      1.908849  
     933A      1.910207   934A      1.916190   935A      1.919459  
     936A      1.925045   937A      1.925898   938A      1.931417  
     939A      1.933033   940A      1.933970   941A      1.935000  
     942A      1.937589   943A      1.940423   944A      1.941162  
     945A      1.948421   946A      1.952904   947A      1.953837  
     948A      1.954501   949A      1.955088   950A      1.956529  
     951A      1.961463   952A      1.971883   953A      1.972710  
     954A      1.976212   955A      1.977431   956A      1.983462  
     957A      1.984423   958A      1.985391   959A      1.987384  
     960A      1.990719   961A      1.996261   962A      1.996632  
     963A      2.001409   964A      2.002300   965A      2.003316  
     966A      2.004775   967A      2.008828   968A      2.010318  
     969A      2.011881   970A      2.016937   971A      2.021526  
     972A      2.022954   973A      2.024360   974A      2.026154  
     975A      2.027169   976A      2.028584   977A      2.034021  
     978A      2.034764   979A      2.037571   980A      2.038213  
     981A      2.040423   982A      2.041241   983A      2.043519  
     984A      2.044487   985A      2.044667   986A      2.047540  
     987A      2.050168   988A      2.053501   989A      2.054162  
     990A      2.057859   991A      2.058601   992A      2.061012  
     993A      2.062807   994A      2.066578   995A      2.068455  
     996A      2.072232   997A      2.076673   998A      2.080099  
     999A      2.081557  1000A      2.085253  1001A      2.087604  
    1002A      2.089828  1003A      2.092463  1004A      2.103215  
    1005A      2.108431  1006A      2.113056  1007A      2.114247  
    1008A      2.116060  1009A      2.116719  1010A      2.122941  
    1011A      2.124158  1012A      2.128794  1013A      2.134066  
    1014A      2.137172  1015A      2.140049  1016A      2.141143  
    1017A      2.142553  1018A      2.144921  1019A      2.150587  
    1020A      2.157998  1021A      2.160974  1022A      2.166528  
    1023A      2.170845  1024A      2.171130  1025A      2.173604  
    1026A      2.175037  1027A      2.176600  1028A      2.186552  
    1029A      2.188029  1030A      2.193743  1031A      2.194102  
    1032A      2.196925  1033A      2.198773  1034A      2.201824  
    1035A      2.207772  1036A      2.218763  1037A      2.226216  
    1038A      2.228122  1039A      2.231629  1040A      2.233145  
    1041A      2.235874  1042A      2.243146  1043A      2.249882  
    1044A      2.252021  1045A      2.254741  1046A      2.257332  
    1047A      2.261980  1048A      2.266560  1049A      2.273337  
    1050A      2.275121  1051A      2.275600  1052A      2.276733  
    1053A      2.282896  1054A      2.287517  1055A      2.290704  
    1056A      2.300121  1057A      2.307140  1058A      2.321750  
    1059A      2.338909  1060A      2.340779  1061A      2.345522  
    1062A      2.346237  1063A      2.346313  1064A      2.360005  
    1065A      2.362985  1066A      2.367687  1067A      2.374877  
    1068A      2.391627  1069A      2.396562  1070A      2.401706  
    1071A      2.408225  1072A      2.410678  1073A      2.412677  
    1074A      2.413932  1075A      2.436670  1076A      2.445594  
    1077A      2.451804  1078A      2.467207  1079A      2.469532  
    1080A      2.471974  1081A      2.472612  1082A      2.475688  
    1083A      2.480577  1084A      2.482189  1085A      2.482977  
    1086A      2.483100  1087A      2.494339  1088A      2.494773  
    1089A      2.499218  1090A      2.502482  1091A      2.503034  
    1092A      2.507727  1093A      2.510728  1094A      2.513032  
    1095A      2.523909  1096A      2.528500  1097A      2.537421  
    1098A      2.540460  1099A      2.549294  1100A      2.551867  
    1101A      2.554017  1102A      2.555751  1103A      2.559717  
    1104A      2.567585  1105A      2.570191  1106A      2.577731  
    1107A      2.578735  1108A      2.579491  1109A      2.594426  
    1110A      2.606227  1111A      2.608430  1112A      2.610619  
    1113A      2.619013  1114A      2.619703  1115A      2.624951  
    1116A      2.632615  1117A      2.634065  1118A      2.638911  
    1119A      2.640077  1120A      2.643736  1121A      2.645328  
    1122A      2.648152  1123A      2.678301  1124A      2.680086  
    1125A      2.684803  1126A      2.687205  1127A      2.695423  
    1128A      2.713509  1129A      2.716174  1130A      2.727388  
    1131A      2.742121  1132A      2.748396  1133A      2.749978  
    1134A      2.752343  1135A      2.764097  1136A      2.772740  
    1137A      2.773630  1138A      2.775358  1139A      2.775560  
    1140A      2.778371  1141A      2.780795  1142A      2.792025  
    1143A      2.794106  1144A      2.800892  1145A      2.813046  
    1146A      2.842682  1147A      2.845188  1148A      2.849288  
    1149A      2.851645  1150A      2.860153  1151A      2.864381  
    1152A      2.875907  1153A      2.878170  1154A      2.882209  
    1155A      2.889104  1156A      2.939897  1157A      2.943448  
    1158A      2.947148  1159A      2.948992  1160A      2.969563  
    1161A      2.983007  1162A      2.983392  1163A      2.983902  
    1164A      2.994950  1165A      2.997730  1166A      3.038114  
    1167A      3.039536  1168A      3.045446  1169A      3.055414  
    1170A      3.057337  1171A      3.061527  1172A      3.066561  
    1173A      3.071602  1174A      3.072507  1175A      3.074282  
    1176A      3.075777  1177A      3.078222  1178A      3.085962  
    1179A      3.087177  1180A      3.091763  1181A      3.095537  
    1182A      3.103998  1183A      3.117409  1184A      3.130036  
    1185A      3.136790  1186A      3.147521  1187A      3.171447  
    1188A      3.201365  1189A      3.201834  1190A      3.203443  
    1191A      3.209782  1192A      3.213942  1193A      3.339396  
    1194A      3.340225  1195A      3.360090  1196A      3.406741  
    1197A      3.407950  1198A      3.473432  1199A      3.502687  
    1200A      3.503697  1201A      3.522699  1202A      3.551812  
    1203A      3.552743  1204A      3.553604  1205A      3.592308  
    1206A      3.593422  1207A      3.604283  1208A      3.707820  
    1209A      3.709943  1210A      3.716745  1211A      3.794348  
    1212A      3.795343  1213A      3.836746  1214A      3.836886  
    1215A      3.900331  1216A      3.930324  1217A      3.986672  
    1218A      3.994041  1219A      4.067392  

    Final Occupation by Irrep:
              A 
    DOCC [   197 ]
    NA   [   197 ]
    NB   [   197 ]

  @DF-RHF Final Energy: -2359.21233721410863

   => Energetics <=

    Nuclear Repulsion Energy =           8297.1375761409744882
    One-Electron Energy =              -19693.7198371552622120
    Two-Electron Energy =                9037.3699238001790945
    Total Energy =                      -2359.2123372141086293

Computation Completed


Properties will be evaluated at   0.000000,   0.000000,   0.000000 [a0]

Properties computed using the SCF density matrix


 Multipole Moments:

 ------------------------------------------------------------------------------------
     Multipole            Electronic (a.u.)      Nuclear  (a.u.)        Total (a.u.)
 ------------------------------------------------------------------------------------

 L = 1.  Multiply by 2.5417464519 to convert [e a0] to [Debye]
 Dipole X            :         -0.0025888            0.0006313           -0.0019575
 Dipole Y            :         -0.0534451            0.0560211            0.0025760
 Dipole Z            :         15.5428643          -20.5277316           -4.9848673
 Magnitude           :                                                    4.9848683

 ------------------------------------------------------------------------------------

*** tstop() called on n2cn1075 at Sat Feb 10 12:57:48 2024
Module time:
	user time   =    5881.34 seconds =      98.02 minutes
	system time =     212.90 seconds =       3.55 minutes
	total time  =        477 seconds =       7.95 minutes
Total time:
	user time   =    5881.34 seconds =      98.02 minutes
	system time =     212.90 seconds =       3.55 minutes
	total time  =        477 seconds =       7.95 minutes

  //>>>>>>>>>>>>>>>>>>>>>>>>>>>>>>>>>>>//
  //            Monomer A HF           //
  //<<<<<<<<<<<<<<<<<<<<<<<<<<<<<<<<<<<//

   => Libint2 <=

    Primary   basis highest AM E, G, H:  5, 4, 3
    Auxiliary basis highest AM E, G, H:  6, 5, 4
    Onebody   basis highest AM E, G, H:  6, 5, 4
    Solid Harmonics ordering:            gaussian

*** tstart() called on n2cn1075
*** at Sat Feb 10 12:57:48 2024

   => Loading Basis Set <=

    Name: JUN-CC-PVDZ
    Role: ORBITAL
    Keyword: BASIS
    atoms 1-2, 4-5, 10, 17-70 entry C          line   164 file /opt/software/pc2/EB-SW/software/PSI4/1.9-foss-2022a/share/psi4/basis/jun-cc-pvdz.gbs 
    atoms 3, 6                entry N          line   198 file /opt/software/pc2/EB-SW/software/PSI4/1.9-foss-2022a/share/psi4/basis/jun-cc-pvdz.gbs 
    atoms 7-9, 11-16, 71-88   entry H          line    36 file /opt/software/pc2/EB-SW/software/PSI4/1.9-foss-2022a/share/psi4/basis/jun-cc-pvdz.gbs 


         ---------------------------------------------------------
                                   SCF
               by Justin Turney, Rob Parrish, Andy Simmonett
                          and Daniel G. A. Smith
                              RHF Reference
                       16 Threads,  45776 MiB Core
         ---------------------------------------------------------

  ==> Geometry <==

    Molecular point group: c1
    Full point group: C1

    Geometry (in Angstrom), charge = 1, multiplicity = 1:

       Center              X                  Y                   Z               Mass       
    ------------   -----------------  -----------------  -----------------  -----------------
         C            0.680066520158    -0.008042372515    -4.968997653585    12.000000000000
         C           -0.680504479842    -0.006014372515    -4.968613653585    12.000000000000
         N           -1.085635479842    -0.005016372515    -3.650289653585    14.003074004430
         C            0.000107520158    -0.001740372515    -2.868888653585    12.000000000000
         C           -2.477365479842     0.044389627485    -3.182310653585    12.000000000000
         N            1.085221520158    -0.005016372515    -3.650289653585    14.003074004430
         H            1.385145520158    -0.015870372515    -5.786436653585     1.007825032230
         H           -1.385302479842    -0.006204372515    -5.786282653585     1.007825032230
         H           -0.000009479842     0.000006627485    -1.787799653585     1.007825032230
         C            2.478116520158    -0.021908372515    -3.185191653585    12.000000000000
         H            2.490591520158     0.005436627485    -2.094938653585     1.007825032230
         H            2.967027520158    -0.935354372515    -3.532367653585     1.007825032230
         H            3.001427520158     0.853574627485    -3.576663653585     1.007825032230
         H           -2.857359479842     1.066460627485    -3.262269653585     1.007825032230
         H           -3.082679479842    -0.625694372515    -3.795374653585     1.007825032230
         H           -2.518128479842    -0.282594372515    -2.142362653585     1.007825032230
      Gh(C)           1.225311895423     0.707538288405     0.553068973699    12.000000000000
      Gh(C)           1.225323856051    -0.707538895085     0.540738164129    12.000000000000
      Gh(C)          -0.000006153932     1.414965913575     0.540204540608    12.000000000000
      Gh(C)           2.456448753949     1.418327886663     0.555955831099    12.000000000000
      Gh(C)           0.000010827279    -1.414976499150     0.550404097933    12.000000000000
      Gh(C)          -1.225300948908     0.707545373469     0.555320494022    12.000000000000
      Gh(C)           2.456437755320    -1.418323304396     0.538493007272    12.000000000000
      Gh(C)          -0.000001332978     2.836801030766     0.537800990474    12.000000000000
      Gh(C)           3.681826697470     0.709317955486     0.538841797070    12.000000000000
      Gh(C)           2.455120048865     2.834223660974     0.538739240109    12.000000000000
      Gh(C)           3.681821105219    -0.709333839944     0.554914281088    12.000000000000
      Gh(C)          -1.225313598688    -0.707527516059     0.541810925556    12.000000000000
      Gh(C)           1.226699581202     3.543469483479     0.555098313019    12.000000000000
      Gh(C)           0.000004784858    -2.836782139751     0.555252265554    12.000000000000
      Gh(C)          -2.456436032848     1.418316917770     0.555355889867    12.000000000000
      Gh(C)           2.455123417779    -2.834230029103     0.554762372721    12.000000000000
      Gh(C)          -1.226714364589     3.543469063235     0.555201646238    12.000000000000
      Gh(C)           4.914517295202     1.427172871975     0.545322480099    12.000000000000
      Gh(C)           3.693150191476     3.542795292030     0.545372279736    12.000000000000
      Gh(C)          -2.456437600068    -1.418313281354     0.538467969147    12.000000000000
      Gh(C)           1.226704841943    -3.543474242421     0.539128182269    12.000000000000
      Gh(C)          -2.455125398508     2.834216662119     0.538745616455    12.000000000000
      Gh(C)           4.914524380782    -1.427186910459     0.548295222834    12.000000000000
      Gh(C)           1.221424613699     4.970134064745     0.548433657094    12.000000000000
      Gh(C)           4.893008229321     2.825187999512     0.546539148458    12.000000000000
      Gh(C)          -1.226697008489    -3.543470997592     0.539395386679    12.000000000000
      Gh(C)          -3.681818976526     0.709324966217     0.538854477550    12.000000000000
      Gh(C)           3.693147101150    -3.542801341905     0.548413113395    12.000000000000
      Gh(C)          -1.221432251994     4.970128297348     0.548617152466    12.000000000000
      Gh(C)           6.134770972926     0.680547946591     0.546092254649    12.000000000000
      Gh(C)           3.656788880610     4.972953243053     0.546280917518    12.000000000000
      Gh(C)          -2.455126907733    -2.834215093576     0.554518014923    12.000000000000
      Gh(C)          -3.681819179061    -0.709325703983     0.555031902667    12.000000000000
      Gh(C)           4.893012617914    -2.825200106147     0.547150300353    12.000000000000
      Gh(C)          -0.000001073113     5.650447365518     0.547385843759    12.000000000000
      Gh(C)           6.134775112332    -0.680554854590     0.547357575165    12.000000000000
      Gh(C)           2.478131482856     5.653576750817     0.547569697168    12.000000000000
      Gh(C)           1.221422404738    -4.970127055448     0.545634160071    12.000000000000
      Gh(C)          -3.693162383965     3.542796953677     0.545537787195    12.000000000000
      Gh(C)          -1.221428520945    -4.970118304111     0.545521398238    12.000000000000
      Gh(C)          -4.914521807942     1.427175446480     0.545399425107    12.000000000000
      Gh(C)           3.656787019679    -4.972955226754     0.547731418052    12.000000000000
      Gh(C)          -2.478138530106     5.653574422014     0.547854222177    12.000000000000
      Gh(C)          -3.693141738564    -3.542790219494     0.548296987239    12.000000000000
      Gh(C)          -4.914512483053    -1.427181000542     0.548329920008    12.000000000000
      Gh(C)          -0.000006008926    -5.650438287528     0.546990339638    12.000000000000
      Gh(C)          -4.893020484101     2.825188598404     0.546529066598    12.000000000000
      Gh(C)           2.478125993298    -5.653573544403     0.546640817260    12.000000000000
      Gh(C)          -3.656798710258     4.972956181527     0.546457597893    12.000000000000
      Gh(C)          -4.892999478856    -2.825191767575     0.546996264656    12.000000000000
      Gh(C)          -2.478128498083    -5.653566170521     0.546365629613    12.000000000000
      Gh(C)          -6.134770503331     0.680548765741     0.546066702947    12.000000000000
      Gh(C)          -3.656788833189    -4.972944023485     0.547517130236    12.000000000000
      Gh(C)          -6.134765042913    -0.680553915997     0.547337099370    12.000000000000
      Gh(H)           5.835288495816     3.369275894439     0.550898474121     1.007825032230
      Gh(H)           7.073859172747     1.228217248385     0.546553898042     1.007825032230
      Gh(H)           4.600663264174     5.512380801938     0.546786118270     1.007825032230
      Gh(H)           5.835283387305    -3.369306057244     0.542695833039     1.007825032230
      Gh(H)          -0.000012151306     6.738530673622     0.543036598752     1.007825032230
      Gh(H)           7.073861171831    -1.228226943259     0.546848837071     1.007825032230
      Gh(H)           2.473313731799     6.740684290880     0.547102976238     1.007825032230
      Gh(H)           4.600668491381    -5.512376129691     0.547321420884     1.007825032230
      Gh(H)          -2.473318680537     6.740681719092     0.547404322863     1.007825032230
      Gh(H)          -0.000010268228    -6.738528176967     0.551520024623     1.007825032230
      Gh(H)          -5.835301914343     3.369270949781     0.551034496269     1.007825032230
      Gh(H)           2.473307923831    -6.740685374944     0.547211147685     1.007825032230
      Gh(H)          -4.600674841208     5.512378026089     0.546951446594     1.007825032230
      Gh(H)          -5.835279506835    -3.369288964294     0.542416527158     1.007825032230
      Gh(H)          -2.473300347440    -6.740679078655     0.546761831140     1.007825032230
      Gh(H)          -7.073857766768     1.228220472326     0.546469906562     1.007825032230
      Gh(H)          -4.600673786085    -5.512362670301     0.547149112861     1.007825032230
      Gh(H)          -7.073856934409    -1.228220632492     0.546753980604     1.007825032230

  Running in c1 symmetry.

  Rotational constants: A =      0.00182  B =      0.00178  C =      0.00109 [cm^-1]
  Rotational constants: A =     54.67816  B =     53.29820  C =     32.71081 [MHz]
  Nuclear repulsion =  306.774908447733026

  Charge       = 1
  Multiplicity = 1
  Electrons    = 52
  Nalpha       = 26
  Nbeta        = 26

  ==> Algorithm <==

  SCF Algorithm Type is DF.
  DIIS enabled.
  MOM disabled.
  Fractional occupation disabled.
  Guess Type is SAD.
  Energy threshold   = 1.00e-08
  Density threshold  = 1.00e-08
  Integral threshold = 1.00e-12

  ==> Primary Basis <==

  Basis Set: JUN-CC-PVDZ
    Blend: JUN-CC-PVDZ
    Number of shells: 569
    Number of basis functions: 1233
    Number of Cartesian functions: 1294
    Spherical Harmonics?: true
    Max angular momentum: 2

   => Loading Basis Set <=

    Name: (JUN-CC-PVDZ AUX)
    Role: JKFIT
    Keyword: DF_BASIS_SCF
    atoms 1-2, 4-5, 10, 17-70 entry C          line   146 file /opt/software/pc2/EB-SW/software/PSI4/1.9-foss-2022a/share/psi4/basis/jun-cc-pvdz-jkfit.gbs 
    atoms 3, 6                entry N          line   202 file /opt/software/pc2/EB-SW/software/PSI4/1.9-foss-2022a/share/psi4/basis/jun-cc-pvdz-jkfit.gbs 
    atoms 7-9, 11-16, 71-88   entry H          line    70 file /opt/software/pc2/EB-SW/software/PSI4/1.9-foss-2022a/share/psi4/basis/jun-cc-pvdz-jkfit.gbs 

  ==> Integral Setup <==

  ==> DiskDFJK: Density-Fitted J/K Matrices <==

    J tasked:                  Yes
    K tasked:                  Yes
    wK tasked:                  No
    OpenMP threads:             16
    Integrals threads:          16
    Memory [MiB]:            34332
    Algorithm:                Core
    Integral Cache:           LOAD
    Schwarz Cutoff:          1E-12
    Fitting Condition:       1E-10

   => Auxiliary Basis Set <=

  Basis Set: (JUN-CC-PVDZ AUX)
    Blend: JUN-CC-PVDZ-JKFIT
    Number of shells: 1890
    Number of basis functions: 5440
    Number of Cartesian functions: 6226
    Spherical Harmonics?: true
    Max angular momentum: 3

  Minimum eigenvalue in the overlap matrix is 5.5262726623E-10.
  Reciprocal condition number of the overlap matrix is 2.2802299129E-11.
    Using canonical orthogonalization.
  Overall, 14 of 1233 possible MOs eliminated.


  ==> Pre-Iterations <==

  SCF Guess: Superposition of Atomic Densities via on-the-fly atomic UHF (no occupation information).

   -------------------------
    Irrep   Nso     Nmo    
   -------------------------
     A       1233    1219 
   -------------------------
    Total    1233    1219
   -------------------------

  ==> Iterations <==

                           Total Energy        Delta E     RMS |[F,P]|

   @DF-RHF iter SAD:  -303.36536502463923   -3.03365e+02   0.00000e+00 
   @DF-RHF iter   1:  -303.17014803267392    1.95217e-01   3.44735e-04 DIIS/ADIIS
   @DF-RHF iter   2:  -303.28460958818397   -1.14462e-01   1.16064e-04 DIIS/ADIIS
   @DF-RHF iter   3:  -303.29611846843949   -1.15089e-02   4.54975e-05 DIIS
   @DF-RHF iter   4:  -303.29804116150922   -1.92269e-03   9.96913e-06 DIIS
   @DF-RHF iter   5:  -303.29814906455289   -1.07903e-04   2.43804e-06 DIIS
   @DF-RHF iter   6:  -303.29815857842902   -9.51388e-06   6.58192e-07 DIIS
   @DF-RHF iter   7:  -303.29815967405295   -1.09562e-06   3.35745e-07 DIIS
   @DF-RHF iter   8:  -303.29815993426547   -2.60213e-07   1.35174e-07 DIIS
   @DF-RHF iter   9:  -303.29815998422697   -4.99615e-08   3.37463e-08 DIIS
   @DF-RHF iter  10:  -303.29815998705311   -2.82614e-09   1.25523e-08 DIIS
   @DF-RHF iter  11:  -303.29815998729384   -2.40732e-10   2.94349e-09 DIIS
  Energy and wave function converged.


  ==> Post-Iterations <==

    Orbital Energies [Eh]
    ---------------------

    Doubly Occupied:                                                      

       1A    -15.834509     2A    -15.833973     3A    -11.529306  
       4A    -11.459674     5A    -11.458118     6A    -11.449601  
       7A    -11.449485     8A     -1.577803     9A     -1.433431  
      10A     -1.238285    11A     -1.189032    12A     -1.118650  
      13A     -1.022170    14A     -0.996610    15A     -0.916748  
      16A     -0.850242    17A     -0.815953    18A     -0.812842  
      19A     -0.789817    20A     -0.786035    21A     -0.781456  
      22A     -0.729518    23A     -0.725608    24A     -0.717012  
      25A     -0.595982    26A     -0.523581  

    Virtual:                                                              

      27A     -0.079792    28A     -0.073452    29A     -0.062402  
      30A     -0.054675    31A     -0.042915    32A     -0.039564  
      33A     -0.039310    34A     -0.039237    35A     -0.038137  
      36A     -0.027521    37A     -0.026867    38A     -0.020530  
      39A     -0.019568    40A     -0.014167    41A     -0.013948  
      42A     -0.012956    43A     -0.010856    44A     -0.007231  
      45A     -0.004966    46A      0.001666    47A      0.004254  
      48A      0.005194    49A      0.007533    50A      0.008100  
      51A      0.011572    52A      0.012376    53A      0.014324  
      54A      0.019746    55A      0.021548    56A      0.022513  
      57A      0.023254    58A      0.028858    59A      0.030160  
      60A      0.031458    61A      0.039056    62A      0.039511  
      63A      0.040917    64A      0.042491    65A      0.044177  
      66A      0.044362    67A      0.045448    68A      0.051950  
      69A      0.053794    70A      0.054238    71A      0.055712  
      72A      0.058694    73A      0.059976    74A      0.060646  
      75A      0.061090    76A      0.061504    77A      0.063627  
      78A      0.065929    79A      0.066525    80A      0.069385  
      81A      0.069614    82A      0.074504    83A      0.075604  
      84A      0.078932    85A      0.079388    86A      0.080008  
      87A      0.080972    88A      0.081699    89A      0.085777  
      90A      0.087322    91A      0.088737    92A      0.089146  
      93A      0.089745    94A      0.093035    95A      0.095704  
      96A      0.098151    97A      0.100376    98A      0.102500  
      99A      0.103057   100A      0.103697   101A      0.106737  
     102A      0.109077   103A      0.109531   104A      0.111292  
     105A      0.111975   106A      0.112658   107A      0.113491  
     108A      0.114519   109A      0.115690   110A      0.118134  
     111A      0.119173   112A      0.119663   113A      0.122903  
     114A      0.123143   115A      0.124146   116A      0.124397  
     117A      0.127637   118A      0.128707   119A      0.129191  
     120A      0.134737   121A      0.136030   122A      0.138431  
     123A      0.139917   124A      0.140736   125A      0.142069  
     126A      0.142566   127A      0.146507   128A      0.148358  
     129A      0.148869   130A      0.150054   131A      0.153172  
     132A      0.153587   133A      0.155267   134A      0.157495  
     135A      0.157850   136A      0.158416   137A      0.163135  
     138A      0.163931   139A      0.164096   140A      0.166638  
     141A      0.169611   142A      0.170524   143A      0.170677  
     144A      0.170961   145A      0.172154   146A      0.174714  
     147A      0.175550   148A      0.176850   149A      0.178742  
     150A      0.178847   151A      0.180110   152A      0.180308  
     153A      0.181604   154A      0.184568   155A      0.185975  
     156A      0.187895   157A      0.188441   158A      0.191206  
     159A      0.198282   160A      0.199386   161A      0.202043  
     162A      0.203459   163A      0.204033   164A      0.205027  
     165A      0.205222   166A      0.207796   167A      0.211421  
     168A      0.211775   169A      0.212490   170A      0.213445  
     171A      0.214108   172A      0.216587   173A      0.217361  
     174A      0.219202   175A      0.222105   176A      0.222694  
     177A      0.223121   178A      0.223488   179A      0.225957  
     180A      0.228332   181A      0.232425   182A      0.233952  
     183A      0.234490   184A      0.235628   185A      0.237176  
     186A      0.237340   187A      0.238223   188A      0.242195  
     189A      0.245681   190A      0.247618   191A      0.252108  
     192A      0.254482   193A      0.256642   194A      0.259670  
     195A      0.260712   196A      0.262938   197A      0.263658  
     198A      0.264356   199A      0.264617   200A      0.267828  
     201A      0.269287   202A      0.272329   203A      0.274182  
     204A      0.275166   205A      0.277238   206A      0.278150  
     207A      0.279336   208A      0.280401   209A      0.281976  
     210A      0.284370   211A      0.285000   212A      0.286406  
     213A      0.287676   214A      0.289175   215A      0.289548  
     216A      0.290633   217A      0.293439   218A      0.295855  
     219A      0.298988   220A      0.299936   221A      0.303328  
     222A      0.305083   223A      0.309707   224A      0.311939  
     225A      0.313171   226A      0.313798   227A      0.317116  
     228A      0.318533   229A      0.321962   230A      0.323549  
     231A      0.324979   232A      0.326180   233A      0.332262  
     234A      0.333931   235A      0.334436   236A      0.339258  
     237A      0.340305   238A      0.343058   239A      0.346551  
     240A      0.348744   241A      0.351160   242A      0.351444  
     243A      0.352256   244A      0.354399   245A      0.357470  
     246A      0.358306   247A      0.361614   248A      0.364097  
     249A      0.364621   250A      0.366480   251A      0.368562  
     252A      0.373423   253A      0.374520   254A      0.375288  
     255A      0.377732   256A      0.378703   257A      0.380002  
     258A      0.382277   259A      0.382464   260A      0.384864  
     261A      0.387048   262A      0.389051   263A      0.390078  
     264A      0.391977   265A      0.393732   266A      0.394979  
     267A      0.395507   268A      0.396806   269A      0.398653  
     270A      0.401018   271A      0.402080   272A      0.403649  
     273A      0.405646   274A      0.406209   275A      0.407769  
     276A      0.409135   277A      0.416375   278A      0.420216  
     279A      0.422505   280A      0.424225   281A      0.425124  
     282A      0.425532   283A      0.426214   284A      0.430243  
     285A      0.436546   286A      0.437333   287A      0.440119  
     288A      0.441943   289A      0.442852   290A      0.445745  
     291A      0.446743   292A      0.447527   293A      0.450957  
     294A      0.452135   295A      0.453413   296A      0.456847  
     297A      0.457993   298A      0.460016   299A      0.460835  
     300A      0.462965   301A      0.465221   302A      0.470048  
     303A      0.470705   304A      0.471468   305A      0.472560  
     306A      0.473059   307A      0.479321   308A      0.482420  
     309A      0.484142   310A      0.488702   311A      0.489529  
     312A      0.495755   313A      0.497577   314A      0.498575  
     315A      0.500194   316A      0.501345   317A      0.502056  
     318A      0.503232   319A      0.506539   320A      0.508574  
     321A      0.510548   322A      0.512044   323A      0.513260  
     324A      0.518129   325A      0.521405   326A      0.523080  
     327A      0.524987   328A      0.526316   329A      0.527986  
     330A      0.530327   331A      0.531672   332A      0.535883  
     333A      0.540141   334A      0.541613   335A      0.542094  
     336A      0.546670   337A      0.548029   338A      0.551810  
     339A      0.554247   340A      0.554547   341A      0.556389  
     342A      0.556670   343A      0.557475   344A      0.560616  
     345A      0.563850   346A      0.567345   347A      0.568776  
     348A      0.570019   349A      0.570975   350A      0.571996  
     351A      0.578186   352A      0.585960   353A      0.588987  
     354A      0.594102   355A      0.596308   356A      0.599958  
     357A      0.601501   358A      0.601925   359A      0.602450  
     360A      0.603232   361A      0.604463   362A      0.608417  
     363A      0.611303   364A      0.615036   365A      0.615959  
     366A      0.617396   367A      0.618235   368A      0.619700  
     369A      0.620772   370A      0.624326   371A      0.625421  
     372A      0.628885   373A      0.638803   374A      0.641607  
     375A      0.646078   376A      0.647605   377A      0.650106  
     378A      0.652735   379A      0.662122   380A      0.662673  
     381A      0.673690   382A      0.674531   383A      0.676931  
     384A      0.679676   385A      0.680076   386A      0.681885  
     387A      0.682371   388A      0.683172   389A      0.685723  
     390A      0.686053   391A      0.686615   392A      0.689067  
     393A      0.690941   394A      0.693057   395A      0.694814  
     396A      0.697612   397A      0.701153   398A      0.702073  
     399A      0.702582   400A      0.713205   401A      0.713473  
     402A      0.714172   403A      0.718025   404A      0.719920  
     405A      0.725509   406A      0.726999   407A      0.728421  
     408A      0.733607   409A      0.742883   410A      0.755495  
     411A      0.758239   412A      0.763518   413A      0.765510  
     414A      0.768358   415A      0.769996   416A      0.771293  
     417A      0.772403   418A      0.773464   419A      0.777107  
     420A      0.778769   421A      0.783559   422A      0.786308  
     423A      0.793436   424A      0.795152   425A      0.799989  
     426A      0.800111   427A      0.804488   428A      0.808269  
     429A      0.809901   430A      0.815239   431A      0.816855  
     432A      0.817112   433A      0.819747   434A      0.823569  
     435A      0.826439   436A      0.828390   437A      0.839303  
     438A      0.856501   439A      0.861669   440A      0.865299  
     441A      0.866278   442A      0.879492   443A      0.881531  
     444A      0.887487   445A      0.887914   446A      0.893018  
     447A      0.897274   448A      0.898264   449A      0.906039  
     450A      0.916483   451A      0.917942   452A      0.921334  
     453A      0.925479   454A      0.925616   455A      0.927521  
     456A      0.930293   457A      0.935418   458A      0.938838  
     459A      0.949540   460A      0.951599   461A      0.955198  
     462A      0.964377   463A      0.979319   464A      0.982239  
     465A      0.983405   466A      0.986660   467A      0.986865  
     468A      0.993148   469A      1.012800   470A      1.018260  
     471A      1.022532   472A      1.025522   473A      1.026289  
     474A      1.035124   475A      1.038494   476A      1.051506  
     477A      1.066434   478A      1.069061   479A      1.076657  
     480A      1.079001   481A      1.080411   482A      1.082500  
     483A      1.082882   484A      1.095067   485A      1.103830  
     486A      1.104178   487A      1.104344   488A      1.105429  
     489A      1.114366   490A      1.115887   491A      1.136679  
     492A      1.136992   493A      1.141186   494A      1.145311  
     495A      1.150527   496A      1.154124   497A      1.155711  
     498A      1.170004   499A      1.179723   500A      1.188712  
     501A      1.210314   502A      1.214389   503A      1.217227  
     504A      1.221810   505A      1.222818   506A      1.223477  
     507A      1.239996   508A      1.241389   509A      1.242028  
     510A      1.242814   511A      1.259875   512A      1.284002  
     513A      1.285747   514A      1.293986   515A      1.356158  
     516A      1.357394   517A      1.358391   518A      1.368443  
     519A      1.374203   520A      1.375100   521A      1.376484  
     522A      1.379604   523A      1.383019   524A      1.399819  
     525A      1.400127   526A      1.404291   527A      1.453289  
     528A      1.456833   529A      1.464969   530A      1.467175  
     531A      1.469209   532A      1.475110   533A      1.480056  
     534A      1.480955   535A      1.484066   536A      1.495358  
     537A      1.510358   538A      1.517371   539A      1.524594  
     540A      1.540636   541A      1.551661   542A      1.559348  
     543A      1.560477   544A      1.569668   545A      1.571105  
     546A      1.574817   547A      1.577316   548A      1.584114  
     549A      1.594575   550A      1.597407   551A      1.605149  
     552A      1.608565   553A      1.620447   554A      1.630321  
     555A      1.638801   556A      1.662181   557A      1.666597  
     558A      1.667649   559A      1.669152   560A      1.670637  
     561A      1.675825   562A      1.681996   563A      1.682299  
     564A      1.686781   565A      1.687877   566A      1.689785  
     567A      1.695956   568A      1.697222   569A      1.701725  
     570A      1.709372   571A      1.710862   572A      1.714542  
     573A      1.719044   574A      1.722387   575A      1.725867  
     576A      1.728361   577A      1.735462   578A      1.741472  
     579A      1.744465   580A      1.746028   581A      1.746796  
     582A      1.748039   583A      1.749565   584A      1.750948  
     585A      1.753081   586A      1.756971   587A      1.766051  
     588A      1.767330   589A      1.768900   590A      1.773058  
     591A      1.776774   592A      1.777015   593A      1.782093  
     594A      1.786692   595A      1.787534   596A      1.791394  
     597A      1.798002   598A      1.800210   599A      1.803603  
     600A      1.804055   601A      1.804646   602A      1.806440  
     603A      1.810789   604A      1.812798   605A      1.815120  
     606A      1.820599   607A      1.822161   608A      1.822275  
     609A      1.822995   610A      1.826039   611A      1.831601  
[...]
     811A      1.717997   812A      1.724710   813A      1.740880  
     814A      1.748763   815A      1.753185   816A      1.756796  
     817A      1.760154   818A      1.760536   819A      1.760878  
     820A      1.765771   821A      1.773688   822A      1.776815  
     823A      1.778784   824A      1.785059   825A      1.793372  
     826A      1.795201   827A      1.810327   828A      1.815829  
     829A      1.818107   830A      1.819687   831A      1.822705  
     832A      1.825310   833A      1.825794   834A      1.833101  
     835A      1.834393   836A      1.841342   837A      1.844084  
     838A      1.849327   839A      1.852858   840A      1.863259  
     841A      1.864520   842A      1.865236   843A      1.867041  
     844A      1.870474   845A      1.873134   846A      1.876399  
     847A      1.876809   848A      1.878819   849A      1.892857  
     850A      1.893702   851A      1.902526   852A      1.903054  
     853A      1.903166   854A      1.907366   855A      1.907662  
     856A      1.913635   857A      1.914934   858A      1.916209  
     859A      1.917757   860A      1.918995   861A      1.919403  
     862A      1.919751   863A      1.923160   864A      1.930831  
     865A      1.937439   866A      1.940501   867A      1.942699  
     868A      1.945574   869A      1.946471   870A      1.947392  
     871A      1.948474   872A      1.953694   873A      1.956432  
     874A      1.957740   875A      1.958439   876A      1.959701  
     877A      1.960263   878A      1.973822   879A      1.975780  
     880A      1.982505   881A      1.983566   882A      1.986061  
     883A      1.990180   884A      1.998110   885A      1.999838  
     886A      2.001488   887A      2.009575   888A      2.009700  
     889A      2.013335   890A      2.016627   891A      2.020611  
     892A      2.024893   893A      2.029374   894A      2.030824  
     895A      2.031930   896A      2.032743   897A      2.033795  
     898A      2.036334   899A      2.041145   900A      2.046814  
     901A      2.050732   902A      2.053905   903A      2.055415  
     904A      2.058915   905A      2.062920   906A      2.063831  
     907A      2.068418   908A      2.070103   909A      2.073573  
     910A      2.077080   911A      2.078745   912A      2.079593  
     913A      2.081509   914A      2.082609   915A      2.084792  
     916A      2.085564   917A      2.092300   918A      2.094924  
     919A      2.097370   920A      2.100619   921A      2.101583  
     922A      2.102615   923A      2.103079   924A      2.106221  
     925A      2.108486   926A      2.109238   927A      2.110436  
     928A      2.112799   929A      2.113901   930A      2.115502  
     931A      2.119277   932A      2.120526   933A      2.120925  
     934A      2.122129   935A      2.123812   936A      2.127519  
     937A      2.129844   938A      2.131162   939A      2.131330  
     940A      2.135374   941A      2.135815   942A      2.136267  
     943A      2.138376   944A      2.143487   945A      2.144292  
     946A      2.156225   947A      2.159489   948A      2.160326  
     949A      2.160980   950A      2.164552   951A      2.164890  
     952A      2.170356   953A      2.174387   954A      2.179265  
     955A      2.181097   956A      2.187312   957A      2.189313  
     958A      2.189877   959A      2.191232   960A      2.193659  
     961A      2.195284   962A      2.199907   963A      2.203105  
     964A      2.205897   965A      2.218939   966A      2.220242  
     967A      2.222004   968A      2.222307   969A      2.228627  
     970A      2.230157   971A      2.235112   972A      2.237383  
     973A      2.240541   974A      2.242769   975A      2.243803  
     976A      2.245534   977A      2.247644   978A      2.249593  
     979A      2.250401   980A      2.250737   981A      2.262013  
     982A      2.264709   983A      2.270426   984A      2.271297  
     985A      2.271336   986A      2.275385   987A      2.277250  
     988A      2.281563   989A      2.296787   990A      2.301226  
     991A      2.302220   992A      2.308002   993A      2.315681  
     994A      2.317006   995A      2.320484   996A      2.323598  
     997A      2.330163   998A      2.333074   999A      2.336765  
    1000A      2.340608  1001A      2.345619  1002A      2.352557  
    1003A      2.354135  1004A      2.355284  1005A      2.356800  
    1006A      2.362934  1007A      2.368822  1008A      2.371121  
    1009A      2.378998  1010A      2.385346  1011A      2.389146  
    1012A      2.410083  1013A      2.412876  1014A      2.416828  
    1015A      2.420465  1016A      2.424785  1017A      2.425084  
    1018A      2.426002  1019A      2.433669  1020A      2.436760  
    1021A      2.442747  1022A      2.454864  1023A      2.461237  
    1024A      2.472538  1025A      2.474530  1026A      2.479967  
    1027A      2.486908  1028A      2.488115  1029A      2.496294  
    1030A      2.506204  1031A      2.506759  1032A      2.523144  
    1033A      2.530896  1034A      2.533677  1035A      2.542511  
    1036A      2.544009  1037A      2.549963  1038A      2.551495  
    1039A      2.553218  1040A      2.555210  1041A      2.555348  
    1042A      2.557613  1043A      2.560581  1044A      2.560790  
    1045A      2.572682  1046A      2.573742  1047A      2.576879  
    1048A      2.577495  1049A      2.578305  1050A      2.583899  
    1051A      2.587804  1052A      2.590869  1053A      2.591754  
    1054A      2.594638  1055A      2.601520  1056A      2.602755  
    1057A      2.616205  1058A      2.621903  1059A      2.628119  
    1060A      2.629339  1061A      2.633486  1062A      2.634485  
    1063A      2.644179  1064A      2.645488  1065A      2.652776  
    1066A      2.654126  1067A      2.658053  1068A      2.672239  
    1069A      2.683960  1070A      2.685039  1071A      2.687363  
    1072A      2.693500  1073A      2.697198  1074A      2.701447  
    1075A      2.703179  1076A      2.712869  1077A      2.713949  
    1078A      2.715564  1079A      2.718100  1080A      2.719469  
    1081A      2.720431  1082A      2.726228  1083A      2.727547  
    1084A      2.731696  1085A      2.735527  1086A      2.758503  
    1087A      2.761947  1088A      2.776297  1089A      2.783318  
    1090A      2.790050  1091A      2.796703  1092A      2.798309  
    1093A      2.802639  1094A      2.806808  1095A      2.829654  
    1096A      2.831353  1097A      2.832469  1098A      2.854292  
    1099A      2.856605  1100A      2.858797  1101A      2.861827  
    1102A      2.863802  1103A      2.866787  1104A      2.901125  
    1105A      2.911105  1106A      2.919789  1107A      2.923158  
    1108A      2.927292  1109A      2.931432  1110A      2.934304  
    1111A      2.934980  1112A      2.947201  1113A      2.956389  
    1114A      2.957581  1115A      2.964556  1116A      2.967951  
    1117A      2.973567  1118A      2.999096  1119A      3.018488  
    1120A      3.022906  1121A      3.023982  1122A      3.039115  
    1123A      3.050075  1124A      3.054029  1125A      3.065154  
    1126A      3.065469  1127A      3.075856  1128A      3.078111  
    1129A      3.084548  1130A      3.102728  1131A      3.119074  
    1132A      3.121172  1133A      3.128789  1134A      3.135088  
    1135A      3.138102  1136A      3.140608  1137A      3.144548  
    1138A      3.149722  1139A      3.150583  1140A      3.150992  
    1141A      3.152085  1142A      3.156657  1143A      3.166334  
    1144A      3.167789  1145A      3.169918  1146A      3.174346  
    1147A      3.193100  1148A      3.200491  1149A      3.211920  
    1150A      3.228862  1151A      3.250398  1152A      3.280282  
    1153A      3.281598  1154A      3.282573  1155A      3.289438  
    1156A      3.291116  1157A      3.305729  1158A      3.351703  
    1159A      3.399076  1160A      3.420745  1161A      3.422221  
    1162A      3.452523  1163A      3.483619  1164A      3.492117  
    1165A      3.501176  1166A      3.550600  1167A      3.561264  
    1168A      3.585742  1169A      3.588885  1170A      3.628336  
    1171A      3.632071  1172A      3.632981  1173A      3.643305  
    1174A      3.661285  1175A      3.669125  1176A      3.683208  
    1177A      3.764834  1178A      3.790327  1179A      3.793195  
    1180A      3.799482  1181A      3.835014  1182A      3.871798  
    1183A      3.872091  1184A      3.882287  1185A      3.914927  
    1186A      3.915678  1187A      3.982588  1188A      4.007962  
    1189A      4.012111  1190A      4.075742  1191A      4.084611  
    1192A      4.144957  1193A      4.231208  1194A      4.247907  
    1195A      4.428958  1196A      4.434397  1197A      4.514384  
    1198A      4.792372  1199A      4.852107  1200A      4.873545  
    1201A      4.883959  1202A      4.969766  1203A      5.085488  
    1204A      5.086928  1205A      5.099136  1206A      5.135847  
    1207A      5.208275  1208A      5.412592  1209A      5.441011  
    1210A      5.765212  1211A      5.789924  1212A      6.080929  
    1213A     18.206099  1214A     18.481386  1215A     18.500675  
    1216A     18.594832  1217A     18.855546  1218A     25.356096  
    1219A     25.391282  

    Final Occupation by Irrep:
              A 
    DOCC [   171 ]
    NA   [   171 ]
    NB   [   171 ]

  @DF-RHF Final Energy: -2055.89504340067379

   => Energetics <=

    Nuclear Repulsion Energy =           6452.5568002797781446
    One-Electron Energy =              -15636.5218086146342102
    Two-Electron Energy =                7128.0699649341831901
    Total Energy =                      -2055.8950434006737851

Computation Completed


Properties will be evaluated at   0.000000,   0.000000,   0.000000 [a0]

Properties computed using the SCF density matrix


 Multipole Moments:

 ------------------------------------------------------------------------------------
     Multipole            Electronic (a.u.)      Nuclear  (a.u.)        Total (a.u.)
 ------------------------------------------------------------------------------------

 L = 1.  Multiply by 2.5417464519 to convert [e a0] to [Debye]
 Dipole X            :         -0.0003814           -0.0000085           -0.0003899
 Dipole Y            :         -0.0001193            0.0000167           -0.0001026
 Dipole Z            :       -353.4691869          353.4728124            0.0036254
 Magnitude           :                                                    0.0036478

 ------------------------------------------------------------------------------------

*** tstop() called on n2cn1075 at Sat Feb 10 13:05:07 2024
Module time:
	user time   =    3915.35 seconds =      65.26 minutes
	system time =     135.77 seconds =       2.26 minutes
	total time  =        286 seconds =       4.77 minutes
Total time:
	user time   =   11691.88 seconds =     194.86 minutes
	system time =     384.83 seconds =       6.41 minutes
	total time  =        916 seconds =      15.27 minutes
  Constructing Basis Sets for SAPT...

   => Loading Basis Set <=

    Name: (JUN-CC-PVDZ AUX)
    Role: RIFIT
    Keyword: DF_BASIS_SAPT
    atoms 1-2, 4-5, 10, 17-70 entry C          line   100 file /opt/software/pc2/EB-SW/software/PSI4/1.9-foss-2022a/share/psi4/basis/jun-cc-pvdz-ri.gbs 
    atoms 3, 6                entry N          line   144 file /opt/software/pc2/EB-SW/software/PSI4/1.9-foss-2022a/share/psi4/basis/jun-cc-pvdz-ri.gbs 
    atoms 7-9, 11-16, 71-88   entry H          line    30 file /opt/software/pc2/EB-SW/software/PSI4/1.9-foss-2022a/share/psi4/basis/jun-cc-pvdz-ri.gbs 

   => Loading Basis Set <=

    Name: (JUN-CC-PVDZ AUX)
    Role: JKFIT
    Keyword: DF_BASIS_ELST
    atoms 1-2, 4-5, 10, 17-70 entry C          line   146 file /opt/software/pc2/EB-SW/software/PSI4/1.9-foss-2022a/share/psi4/basis/jun-cc-pvdz-jkfit.gbs 
    atoms 3, 6                entry N          line   202 file /opt/software/pc2/EB-SW/software/PSI4/1.9-foss-2022a/share/psi4/basis/jun-cc-pvdz-jkfit.gbs 
    atoms 7-9, 11-16, 71-88   entry H          line    70 file /opt/software/pc2/EB-SW/software/PSI4/1.9-foss-2022a/share/psi4/basis/jun-cc-pvdz-jkfit.gbs 


  //>>>>>>>>>>>>>>>>>>>>>>>>>>>>>>>>>>>//
  //               SSAPT0              //
  //<<<<<<<<<<<<<<<<<<<<<<<<<<<<<<<<<<<//


*** tstart() called on n2cn1075
*** at Sat Feb 10 13:05:08 2024

        SAPT0  
    Ed Hohenstein
     6 June 2009

      Orbital Information
  --------------------------
    NSO        =      1233
    NMO        =      1219
    NRI        =      4343
    NRI (Elst) =      5440
    NOCC A     =        26
    NOCC B     =       171
    FOCC A     =         7
    FOCC B     =        54
    NVIR A     =      1193
    NVIR B     =      1048

    Elst10,r            =    -0.016053686910 [Eh]
    Exch10              =     0.012373903439 [Eh]
    Exch10 (S^2)        =     0.012326276037 [Eh]

    Iter     Energy [mEh]          dE [mEh]         Residual      Time [s]
       1      -0.84923307       0.849233069       4.366566483            18
       2      -0.98125931       0.132026241       1.695412146            45
       3      -1.02084573       0.039586423       0.202978223            63
       4      -1.01952452      -0.001321212       0.066673799            80
       5      -1.01911200      -0.000412516       0.018422863            96
       6      -1.01925684       0.000144834       0.007763610           112
       7      -1.01925884       0.000001999       0.003470763           127
       8      -1.01924721      -0.000011626       0.001078503           144
       9      -1.01924451      -0.000002700       0.000335507           160
      10      -1.01924507       0.000000555       0.000103287           174
      11      -1.01924552       0.000000456       0.000026612           188
      12      -1.01924545      -0.000000075       0.000007349           201
      13      -1.01924543      -0.000000017       0.000001990           215
      14      -1.01924543       0.000000003       0.000000676           231

    CHF Iterations converged


    Iter     Energy [mEh]          dE [mEh]         Residual      Time [s]
       1     -19.74824192      19.748241923      71.676683475            22
       2     -13.97740897      -5.770832949      10.074025343            39
       3     -14.14612752       0.168718545       3.990837512            55
       4     -14.55431010       0.408182584       0.862179007            72
       5     -14.57258549       0.018275386       0.285426798            88
       6     -14.56118213      -0.011403355       0.137852094           105
       7     -14.55883404      -0.002348091       0.057359294           121
       8     -14.56024557       0.001411532       0.028076400           138
       9     -14.56071764       0.000472067       0.010252892           154
      10     -14.56058493      -0.000132708       0.006483640           170
      11     -14.56050078      -0.000084149       0.003583145           187
      12     -14.56052311       0.000022329       0.001807106           203
      13     -14.56055437       0.000031257       0.000878573           219
      14     -14.56054707      -0.000007305       0.000601637           235
      15     -14.56053913      -0.000007932       0.000296072           255
      16     -14.56054091       0.000001780       0.000162176           273
      17     -14.56054341       0.000002492       0.000062840           291
      18     -14.56054326      -0.000000142       0.000031554           310
      19     -14.56054286      -0.000000401       0.000018471           328
      20     -14.56054280      -0.000000064       0.000008265           347
      21     -14.56054293       0.000000130       0.000003704           365
      22     -14.56054293       0.000000004       0.000001966           384
      23     -14.56054291      -0.000000019       0.000001171           403
      24     -14.56054291      -0.000000006       0.000000524           422

    CHF Iterations converged

    Ind20,r (A<-B)      =    -0.001019245432 [Eh]
    Ind20,r (B<-A)      =    -0.014560542907 [Eh]
    Ind20,r             =    -0.015579788339 [Eh]
    Exch-Ind20,r (A<-B) =     0.000947241619 [Eh]
    Exch-Ind20,r (B<-A) =     0.001901862130 [Eh]
    Exch-Ind20,r        =     0.002849103749 [Eh]
    Disp20              =    -0.022141947856 [Eh]
    Disp20 (SS)         =    -0.011070973928 [Eh]
    Disp20 (OS)         =    -0.011070973928 [Eh]
    Exch-Disp20         =     0.001165398065 [Eh]
    Exch-Disp20 (SS)    =     0.000697212431 [Eh]
    Exch-Disp20 (OS)    =     0.000468185634 [Eh]

    SAPT Results 
  --------------------------------------------------------------------------------------------------------
    Electrostatics                -16.05368691 [mEh]     -10.07384062 [kcal/mol]     -42.14894917 [kJ/mol]
      Elst10,r                    -16.05368691 [mEh]     -10.07384062 [kcal/mol]     -42.14894917 [kJ/mol]

    Exchange                       12.37390344 [mEh]       7.76474164 [kcal/mol]      32.48767900 [kJ/mol]
      Exch10                       12.37390344 [mEh]       7.76474164 [kcal/mol]      32.48767900 [kJ/mol]
      Exch10(S^2)                  12.32627604 [mEh]       7.73485499 [kcal/mol]      32.36263328 [kJ/mol]

    Induction                     -15.45404267 [mEh]      -9.69755818 [kcal/mol]     -40.57458344 [kJ/mol]
      Ind20,r                     -15.57978834 [mEh]      -9.77646478 [kcal/mol]     -40.90472865 [kJ/mol]
      Exch-Ind20,r                  2.84910375 [mEh]       1.78783959 [kcal/mol]       7.48032086 [kJ/mol]
      delta HF,r (2)               -2.72335808 [mEh]      -1.70893300 [kcal/mol]      -7.15017565 [kJ/mol]

    Dispersion                    -20.97654979 [mEh]     -13.16298372 [kcal/mol]     -55.07392389 [kJ/mol]
      Disp20                      -22.14194786 [mEh]     -13.89428205 [kcal/mol]     -58.13367609 [kJ/mol]
      Exch-Disp20                   1.16539807 [mEh]       0.73129833 [kcal/mol]       3.05975220 [kJ/mol]
      Disp20 (SS)                 -11.07097393 [mEh]      -6.94714102 [kcal/mol]     -29.06683804 [kJ/mol]
      Disp20 (OS)                 -11.07097393 [mEh]      -6.94714102 [kcal/mol]     -29.06683804 [kJ/mol]
      Exch-Disp20 (SS)              0.69721243 [mEh]       0.43750741 [kcal/mol]       1.83053099 [kJ/mol]
      Exch-Disp20 (OS)              0.46818563 [mEh]       0.29379092 [kcal/mol]       1.22922121 [kJ/mol]

  Total HF                        -19.13382614 [mEh]     -12.00665717 [kcal/mol]     -50.23585361 [kJ/mol]
  Total SAPT0                     -40.11037593 [mEh]     -25.16964089 [kcal/mol]    -105.30977750 [kJ/mol]

  Special recipe for scaled SAPT0 (see Manual):
    Electrostatics sSAPT0         -16.05368691 [mEh]     -10.07384062 [kcal/mol]     -42.14894917 [kJ/mol]
    Exchange sSAPT0                12.37390344 [mEh]       7.76474164 [kcal/mol]      32.48767900 [kJ/mol]
    Induction sSAPT0              -15.42088901 [mEh]      -9.67675395 [kcal/mol]     -40.48753851 [kJ/mol]
    Dispersion sSAPT0             -20.96298861 [mEh]     -13.15447395 [kcal/mol]     -55.03831901 [kJ/mol]
  Total sSAPT0                    -40.06366109 [mEh]     -25.14032689 [kcal/mol]    -105.18712770 [kJ/mol]
  --------------------------------------------------------------------------------------------------------

*** tstop() called on n2cn1075 at Sat Feb 10 13:34:03 2024
Module time:
	user time   =   12805.61 seconds =     213.43 minutes
	system time =     718.07 seconds =      11.97 minutes
	total time  =       1735 seconds =      28.92 minutes
Total time:
	user time   =   24498.39 seconds =     408.31 minutes
	system time =    1102.91 seconds =      18.38 minutes
	total time  =       2652 seconds =      44.20 minutes

    Psi4 stopped on: Saturday, 10 February 2024 01:34PM
    Psi4 wall time for execution: 0:44:12.88

*** Psi4 exiting successfully. Buy a developer a beer!
