
    -----------------------------------------------------------------------
          Psi4: An Open-Source Ab Initio Electronic Structure Package
                               Psi4 1.9 release

                         Git: Rev {} zzzzzzz 


    D. G. A. Smith, L. A. Burns, A. C. Simmonett, R. M. Parrish,
    M. C. Schieber, R. Galvelis, P. Kraus, H. Kruse, R. Di Remigio,
    A. Alenaizan, A. M. James, S. Lehtola, J. P. Misiewicz, M. Scheurer,
    R. A. Shaw, J. B. Schriber, Y. Xie, Z. L. Glick, D. A. Sirianni,
    J. S. O'Brien, J. M. Waldrop, A. Kumar, E. G. Hohenstein,
    B. P. Pritchard, B. R. Brooks, H. F. Schaefer III, A. Yu. Sokolov,
    K. Patkowski, A. E. DePrince III, U. Bozkaya, R. A. King,
    F. A. Evangelista, J. M. Turney, T. D. Crawford, C. D. Sherrill,
    J. Chem. Phys. 152(18) 184108 (2020). https://doi.org/10.1063/5.0006002

                            Additional Code Authors
    E. T. Seidl, C. L. Janssen, E. F. Valeev, M. L. Leininger,
    J. F. Gonthier, R. M. Richard, H. R. McAlexander, M. Saitow, X. Wang,
    P. Verma, M. H. Lechner, A. Jiang, S. Behnle, A. G. Heide,
    M. F. Herbst, and D. L. Poole

             Previous Authors, Complete List of Code Contributors,
                       and Citations for Specific Modules
    https://github.com/psi4/psi4/blob/master/codemeta.json
    https://github.com/psi4/psi4/graphs/contributors
    http://psicode.org/psi4manual/master/introduction.html#citing-psifour

    -----------------------------------------------------------------------


    Psi4 started on: Saturday, 27 January 2024 12:13AM

    Process ID: 416972
    Host:       n2cn1157
    PSIDATADIR: /opt/software/pc2/EB-SW/software/PSI4/1.9-foss-2022a/share/psi4
    Memory:     500.0 MiB
    Threads:    16
    
  ==> Input File <==

--------------------------------------------------------------------------
memory 64 GB # how much memory is available ! Depends on the nodes/cores !

molecule dimer {
# monomer A
+1 1    # Charge and multiplicity
C  0.680067 1.417258 -5.815929
C -0.680504 1.419286 -5.815545
N -1.085635 1.420284 -4.497221
C  0.000108 1.423560 -3.715820
C -2.477365 1.469690 -4.029242
N  1.085222 1.420284 -4.497221
H  1.385146 1.409430 -6.633368
H -1.385302 1.419096 -6.633214
H -0.000009 1.425307 -2.634731
C  2.478117 1.403392 -4.032123
H  2.490592 1.430737 -2.941870
H  2.967028 0.489946 -4.379299
H  3.001428 2.278875 -4.423595
H -2.857359 2.491761 -4.109201
H -3.082679 0.799606 -4.642306
H -2.518128 1.142706 -2.989294
--
# monomer B
0 1     # Charge and multiplicity
C   -3.66844126402057      7.80375217008252      0.00190004133558
C   -4.84759871934653      7.13124183134024     -0.00046653359696
C   -4.89495929917518      5.69633040353158     -0.00103944469517
C   -3.65374067877320      4.98073034095895      0.00662099703436
C   -2.40942512149445      7.11398103667468      0.00209438359570
C   -2.42547734410473      5.68112195090346     -0.00491050527438
C   -1.19474401643570      7.78614419430947      0.00356656413763
C   0.03795902893699      7.09942164575698      0.00139585983271
C   0.03033258741920      5.66948955970466     -0.00408752508301
C   -1.20098450790502      4.96927034791531      0.00488220885047
C   1.27795782581485      7.77285944319479      0.00277170839332
C   2.48535808472416      7.08769688523756      0.00049722048857
C   2.48612868491717      5.65477081024076     -0.00644052849921
C   1.25408291964399      4.95607811366431      0.00518741308898
C   3.75171459140595      7.76391215098033      0.00062407186893
C   4.92356605618520      7.07878077698995     -0.00143240883900
C   4.95560727132542      5.64344746336949     -0.00159282164606
C   3.70680153420475      4.94121020833308      0.00349873852374
H   -3.65852113775815      8.89082741913536      0.00358502958574
H   -1.18921332975660      8.87412108735996      0.00753844057883
H   1.28429423888630      8.86083343548850      0.00693053253426
H   3.75354208679975      8.85103527897216      0.00214659618464
H   5.86995870320703      7.61379483465560     -0.00235777588134
H   -5.78823170750226      7.67630221293400     -0.00202638095293
C   -6.09197395869619      4.99326001364347     -0.00291168518608
C   -6.12866148031747      3.58258016879823     -0.00171050815740
C   -3.66457974004527      3.56418217974434     -0.00463560277484
C   -4.89429820469869      2.86108077590057      0.00453338221034
C   -2.43733499489796      2.84761165708481      0.00719617576166
C   -1.20922785759670      3.54788693497833     -0.00648285103018
C   1.24714157216223      3.53468075142962     -0.00729145743546
C   0.01517603956900      2.83311183930540      0.00439272578912
C   2.46764517244071      2.82128997725533      0.00449278391269
C   3.70254947457969      3.52466015442405     -0.00899517692985
C   6.14498038638375      4.92757236613191     -0.00282626685777
C   6.16658835886151      3.51658447594213     -0.00065971342101
C   4.92460995845939      2.80840792535402      0.00587903281610
H   7.08990550964105      5.46688776622306     -0.00658814770723
H   -7.03104175110130      5.54268795285765     -0.00714490013730
C   -7.33969804112295      2.85841153457957     -0.00333767559888
C   -7.36488195805880      1.47032337158330     -0.00157213747140
C   -4.90350460894690      1.44442681216000     -0.00628840166334
C   -6.13225715261081      0.73993935705394      0.00600164231964
C   -3.67687480051673      0.72669714267312      0.00433931473643
C   -2.44565658606518      1.42964113326212     -0.00597039546461
C   -1.22360068130162      0.71532450163492      0.00545886906656
C   0.00763786931376      1.41738314923765      0.00392452278437
C   1.23121980774686      0.70211669058719     -0.01490206287210
C   2.46082110053113      1.40329203612573      0.00460244601878
C   3.68443025419614      0.68719842821222      0.00377365974158
C   4.91870890153864      1.39173456118907     -0.00862816189375
C   7.36980207796101      2.77948220318441     -0.00242013321349
C   7.38016266612146      1.39121750785509     -0.00087345036788
C   6.13979953912259      0.67411862320065      0.00545489144369
H   -8.27919079934664      3.40711804112415     -0.00763522772059
H   8.31511347147953      3.31811809662368     -0.00663070901292
C   -8.59175593758115      0.72483255304480     -0.00123170985383
C   -8.59902460370342     -0.63263980622873      0.00089141472904
C   -6.13981313911873     -0.67413663715361     -0.00609792660607
C   -7.38018411213749     -1.39126618958160      0.00131813493501
C   -4.91868448025621     -1.39175501803000      0.00624257154343
C   -3.68443829568458     -0.68723731573599     -0.00478966852105
C   -2.46081704024768     -1.40334517882457      0.00575341766833
C   -1.23116201232071     -0.70217386488055     -0.00636696112346
C   -0.00756962538737     -1.41741884941102      0.00108956317991
C   1.22364771588843     -0.71527537726392      0.01109518512883
C   2.44567064933149     -1.42964328900682     -0.00065482763106
C   3.67686670284649     -0.72670743155550     -0.00479541202602
C   6.13224884641929     -0.73997883984993     -0.00632338623858
C   4.90351914550401     -1.44445752054090      0.00751768830159
C   8.59901484869081      0.63260386666793     -0.00101133422380
C   8.59174548810050     -0.72485086719319      0.00072504603735
C   7.36486276438985     -1.47033266560598      0.00049486934466
H   -9.52830597181814      1.27684744919284     -0.00270163681798
H   9.54141097460619      1.17457248844457     -0.00206336648518
C   -7.36983790976868     -2.77954514593389      0.00312634335708
C   -4.92459910905015     -2.80843725734101     -0.00460528907921
C   -6.16662249566744     -3.51665219282533      0.00169655107992
C   -3.70251035970491     -3.52468154912026      0.00571878010666
C   -2.46764698511392     -2.82132596280400     -0.00632585824990
C   -0.01513347410770     -2.83314164539971     -0.00604426974092
C   -1.24712184122656     -3.53473217556300      0.00551968366725
C   1.20924506964357     -3.54791467864352      0.00805871345849
C   2.43733602215464     -2.84764173817541     -0.00608104485234
C   4.89430234377080     -2.86112296828604     -0.00526030478103
C   3.66461525504104     -3.56421984553201      0.00761911515957
C   6.12863901474565     -3.58258405771778      0.00096495711699
C   7.33967266469532     -2.85841330737039      0.00248018319869
H   -9.54144911125902     -1.17456346666430      0.00226083090216
H   9.52826186807155     -1.27691907390448      0.00197485379837
H   -8.31516504384864     -3.31814985321231      0.00729857188773
H   8.27915514249207     -3.40714078989363      0.00681973918158
C   -6.14499418870218     -4.92764727278338      0.00302254913999
C   -3.70678334799751     -4.94126171411716     -0.00679841894792
C   -4.95559005800169     -5.64349397349412      0.00116871569699
C   -2.48612132622665     -5.65478557440947      0.00614125209662
C   -1.25405833548005     -4.95612205000132     -0.00503435388927
C   1.20101257386816     -4.96928038819302     -0.00385322963129
C   -0.03033667441341     -5.66952030313900      0.00398997003238
C   3.65375010132847     -4.98074377541453     -0.00309522988330
C   2.42549269587528     -5.68117463552727      0.00628170066869
C   6.09196561781097     -4.99325796338655      0.00325918379042
C   4.89497644461045     -5.69634842095790      0.00202298796027
H   -7.08989238804069     -5.46699984223871      0.00742531082125
H   7.03105520920009     -5.54265853633254      0.00683896355417
C   -4.92354532219813     -7.07882109967734      0.00061394679214
C   -2.48534208823777     -7.08772807792913     -0.00189594564379
C   -3.75168589177895     -7.76394715763627     -0.00170126671874
C   -0.03794895698805     -7.09946487446944     -0.00168022049625
C   -1.27795610040136     -7.77290438466689     -0.00366491325785
C   2.40944432072629     -7.11402201200282     -0.00081701968533
C   1.19474993715296     -7.78618536556242     -0.00296931056689
C   4.84762105249800     -7.13126211057943      0.00168979497423
C   3.66847160587561     -7.80378799294376     -0.00065863938960
H   -5.86994035041618     -7.61383059804164      0.00215798365757
H   5.78824962538815     -7.67633218931421      0.00281691445618
H   -3.75352693944918     -8.85107156923607     -0.00353718114765
H   -1.28430440589466     -8.86087539249706     -0.00809229711623
H   1.18922157469537     -8.87416062058945     -0.00706194725726
H   3.65854661482387     -8.89086063405326     -0.00231318081200

    units angstrom      # Angstroms are the default
    no_reorient         # Geometry fixed, default
    symmetry c1         # C1 symmetry, default
}

set {
    scf_type DF         # Density fitting, faster than exact integrals
    freeze_core True    # Freeze core electrons
    basis jun-cc-pVDZ   # Jun-cc-pVDZ basis set, recommended for sSAPT0 in https://doi.org/10.1063/1.4867135
}

energy('ssapt0')        # Compute sSAPT0 energy, includes also SAPT0
--------------------------------------------------------------------------

  Memory set to  59.605 GiB by Python driver.

Scratch directory: /tmp/
   => Loading Basis Set <=

    Name: JUN-CC-PVDZ
    Role: ORBITAL
    Keyword: BASIS
    atoms 1-2, 4-5, 10, 17-34, 41-53, 56-70, 73-89, 92-104, 109-119, 122-130 entry C          line   164 file /opt/software/pc2/EB-SW/software/PSI4/1.9-foss-2022a/share/psi4/basis/jun-cc-pvdz.gbs 
    atoms 3, 6                                                               entry N          line   198 file /opt/software/pc2/EB-SW/software/PSI4/1.9-foss-2022a/share/psi4/basis/jun-cc-pvdz.gbs 
    atoms 7-9, 11-16, 35-40, 54-55, 71-72, 90-91, 105-108, 120-121, 131-136  entry H          line    36 file /opt/software/pc2/EB-SW/software/PSI4/1.9-foss-2022a/share/psi4/basis/jun-cc-pvdz.gbs 

   => Loading Basis Set <=

    Name: JUN-CC-PVDZ
    Role: ORBITAL
    Keyword: BASIS
    atoms 1-2, 4-5, 10, 17-34, 41-53, 56-70, 73-89, 92-104, 109-119, 122-130 entry C          line   164 file /opt/software/pc2/EB-SW/software/PSI4/1.9-foss-2022a/share/psi4/basis/jun-cc-pvdz.gbs 
    atoms 3, 6                                                               entry N          line   198 file /opt/software/pc2/EB-SW/software/PSI4/1.9-foss-2022a/share/psi4/basis/jun-cc-pvdz.gbs 
    atoms 7-9, 11-16, 35-40, 54-55, 71-72, 90-91, 105-108, 120-121, 131-136  entry H          line    36 file /opt/software/pc2/EB-SW/software/PSI4/1.9-foss-2022a/share/psi4/basis/jun-cc-pvdz.gbs 


  //>>>>>>>>>>>>>>>>>>>>>>>>>>>>>>>>>>>//
  //              Dimer HF             //
  //<<<<<<<<<<<<<<<<<<<<<<<<<<<<<<<<<<<//

   => Libint2 <=

    Primary   basis highest AM E, G, H:  5, 4, 3
    Auxiliary basis highest AM E, G, H:  6, 5, 4
    Onebody   basis highest AM E, G, H:  6, 5, 4
    Solid Harmonics ordering:            gaussian

*** tstart() called on n2cn1157
*** at Sat Jan 27 00:13:57 2024

   => Loading Basis Set <=

    Name: JUN-CC-PVDZ
    Role: ORBITAL
    Keyword: BASIS
    atoms 1-2, 4-5, 10, 17-34, 41-53, 56-70, 73-89, 92-104, 109-119, 122-130 entry C          line   164 file /opt/software/pc2/EB-SW/software/PSI4/1.9-foss-2022a/share/psi4/basis/jun-cc-pvdz.gbs 
    atoms 3, 6                                                               entry N          line   198 file /opt/software/pc2/EB-SW/software/PSI4/1.9-foss-2022a/share/psi4/basis/jun-cc-pvdz.gbs 
    atoms 7-9, 11-16, 35-40, 54-55, 71-72, 90-91, 105-108, 120-121, 131-136  entry H          line    36 file /opt/software/pc2/EB-SW/software/PSI4/1.9-foss-2022a/share/psi4/basis/jun-cc-pvdz.gbs 


         ---------------------------------------------------------
                                   SCF
               by Justin Turney, Rob Parrish, Andy Simmonett
                          and Daniel G. A. Smith
                              RHF Reference
                       16 Threads,  61035 MiB Core
         ---------------------------------------------------------

  ==> Geometry <==

    Molecular point group: c1
    Full point group: C1

    Geometry (in Angstrom), charge = 1, multiplicity = 1:

       Center              X                  Y                   Z               Mass       
    ------------   -----------------  -----------------  -----------------  -----------------
         C            0.680062820275     1.308604348936    -5.465220310098    12.000000000000
         C           -0.680508179725     1.310632348936    -5.464836310098    12.000000000000
         N           -1.085639179725     1.311630348936    -4.146512310098    14.003074004430
         C            0.000103820275     1.314906348936    -3.365111310098    12.000000000000
         C           -2.477369179725     1.361036348936    -3.678533310098    12.000000000000
         N            1.085217820275     1.311630348936    -4.146512310098    14.003074004430
         H            1.385141820275     1.300776348936    -6.282659310098     1.007825032230
         H           -1.385306179725     1.310442348936    -6.282505310098     1.007825032230
         H           -0.000013179725     1.316653348936    -2.284022310098     1.007825032230
         C            2.478112820275     1.294738348936    -3.681414310098    12.000000000000
         H            2.490587820275     1.322083348936    -2.591161310098     1.007825032230
         H            2.967023820275     0.381292348936    -4.028590310098     1.007825032230
         H            3.001423820275     2.170221348936    -4.072886310098     1.007825032230
         H           -2.857363179725     2.383107348936    -3.758492310098     1.007825032230
         H           -3.082683179725     0.690952348936    -4.291597310098     1.007825032230
         H           -2.518132179725     1.034052348936    -2.638585310098     1.007825032230
         C           -3.668445443746     7.695098519018     0.352608731238    12.000000000000
         C           -4.847602899072     7.022588180276     0.350242156306    12.000000000000
         C           -4.894963478901     5.587676752467     0.349669245207    12.000000000000
         C           -3.653744858499     4.872076689895     0.357329686937    12.000000000000
         C           -2.409429301220     7.005327385610     0.352803073498    12.000000000000
         C           -2.425481523830     5.572468299839     0.345798184628    12.000000000000
         C           -1.194748196161     7.677490543245     0.354275254040    12.000000000000
         C            0.037954849212     6.990767994693     0.352104549735    12.000000000000
         C            0.030328407694     5.560835908640     0.346621164819    12.000000000000
         C           -1.200988687630     4.860616696851     0.355590898753    12.000000000000
         C            1.277953646089     7.664205792130     0.353480398296    12.000000000000
         C            2.485353904999     6.979043234173     0.351205910391    12.000000000000
         C            2.486124505192     5.546117159176     0.344268161403    12.000000000000
         C            1.254078739919     4.847424462600     0.355896102991    12.000000000000
         C            3.751710411681     7.655258499916     0.351332761771    12.000000000000
         C            4.923561876460     6.970127125926     0.349276281063    12.000000000000
         C            4.955603091600     5.534793812305     0.349115868256    12.000000000000
         C            3.706797354479     4.832556557269     0.354207428426    12.000000000000
         H           -3.658525317484     8.782173768071     0.354293719488     1.007825032230
         H           -1.189217509482     8.765467436296     0.358247130481     1.007825032230
         H            1.284290059161     8.752179784424     0.357639222437     1.007825032230
         H            3.753537907074     8.742381627908     0.352855286087     1.007825032230
         H            5.869954523482     7.505141183591     0.348350914021     1.007825032230
         H           -5.788235887228     7.567648561870     0.348682308950     1.007825032230
         C           -6.091978138422     4.884606362579     0.347797004716    12.000000000000
         C           -6.128665660043     3.473926517734     0.348998181745    12.000000000000
         C           -3.664583919771     3.455528528680     0.346073087128    12.000000000000
         C           -4.894302384424     2.752427124836     0.355242072113    12.000000000000
         C           -2.437339174623     2.738958006020     0.357904865664    12.000000000000
         C           -1.209232037322     3.439233283914     0.344225838872    12.000000000000
         C            1.247137392437     3.426027100365     0.343417232467    12.000000000000
         C            0.015171859844     2.724458188241     0.355101415692    12.000000000000
         C            2.467640992715     2.712636326191     0.355201473815    12.000000000000
         C            3.702545294854     3.416006503360     0.341713512973    12.000000000000
         C            6.144976206658     4.818918715067     0.347882423045    12.000000000000
         C            6.166584179136     3.407930824878     0.350048976481    12.000000000000
         C            4.924605778734     2.699754274290     0.356587722719    12.000000000000
         H            7.089901329916     5.358234115159     0.344120542195     1.007825032230
         H           -7.031045930827     5.434034301793     0.343563789765     1.007825032230
         C           -7.339702220848     2.749757883515     0.347371014304    12.000000000000
         C           -7.364886137784     1.361669720519     0.349136552431    12.000000000000
         C           -4.903508788672     1.335773161096     0.344420288239    12.000000000000
         C           -6.132261332336     0.631285705989     0.356710332222    12.000000000000
         C           -3.676878980242     0.618043491609     0.355048004639    12.000000000000
         C           -2.445660765791     1.320987482198     0.344738294438    12.000000000000
         C           -1.223604861027     0.606670850570     0.356167558969    12.000000000000
         C            0.007633689588     1.308729498173     0.354633212687    12.000000000000
         C            1.231215628021     0.593463039523     0.335806627030    12.000000000000
         C            2.460816920806     1.294638385061     0.355311135921    12.000000000000
         C            3.684426074471     0.578544777148     0.354482349644    12.000000000000
         C            4.918704721813     1.283080910125     0.342080528009    12.000000000000
         C            7.369797898236     2.670828552120     0.348288556689    12.000000000000
         C            7.380158486396     1.282563856791     0.349835239535    12.000000000000
         C            6.139795359397     0.565464972136     0.356163581346    12.000000000000
         H           -8.279194979072     3.298464390060     0.343073462182     1.007825032230
         H            8.315109291754     3.209464445559     0.344077980890     1.007825032230
         C           -8.591760117307     0.616178901980     0.349476980049    12.000000000000
         C           -8.599028783429    -0.741293457293     0.351600104632    12.000000000000
         C           -6.139817318844    -0.782790288218     0.344610763296    12.000000000000
         C           -7.380188291863    -1.499919840646     0.352026824837    12.000000000000
         C           -4.918688659982    -1.500408669094     0.356951261446    12.000000000000
         C           -3.684442475410    -0.795890966800     0.345919021381    12.000000000000
         C           -2.460821219973    -1.511998829889     0.356462107571    12.000000000000
         C           -1.231166192046    -0.810827515945     0.344341728779    12.000000000000
         C           -0.007573805113    -1.526072500475     0.351798253082    12.000000000000
         C            1.223643536163    -0.823929028328     0.361803875031    12.000000000000
         C            2.445666469606    -1.538296940071     0.350053862271    12.000000000000
         C            3.676862523121    -0.835361082620     0.345913277876    12.000000000000
         C            6.132244666694    -0.848632490914     0.344385303664    12.000000000000
         C            4.903514965779    -1.553111171605     0.358226378204    12.000000000000
         C            8.599010668965     0.523950215603     0.349697355679    12.000000000000
         C            8.591741308375    -0.833504518258     0.351433735940    12.000000000000
         C            7.364858584664    -1.578986316670     0.351203559247    12.000000000000
         H           -9.528310151544     1.168193798128     0.348007053084     1.007825032230
         H            9.541406794881     1.065918837380     0.348645323417     1.007825032230
         C           -7.369842089494    -2.888198796998     0.353835033260    12.000000000000
         C           -4.924603288776    -2.917090908405     0.346103400823    12.000000000000
         C           -6.166626675393    -3.625305843890     0.352405240982    12.000000000000
         C           -3.702514539430    -3.633335200185     0.356427470009    12.000000000000
         C           -2.467651164839    -2.929979613868     0.344382831653    12.000000000000
         C           -0.015137653833    -2.941795296464     0.344664420162    12.000000000000
         C           -1.247126020952    -3.643385826627     0.356228373570    12.000000000000
         C            1.209240889918    -3.656568329708     0.358767403361    12.000000000000
         C            2.437331842429    -2.956295389240     0.344627645050    12.000000000000
         C            4.894298164045    -2.969776619350     0.345448385121    12.000000000000
         C            3.664611075316    -3.672873496596     0.358327805062    12.000000000000
         C            6.128634835020    -3.691237708782     0.351673647019    12.000000000000
         C            7.339668484970    -2.967066958435     0.353188873101    12.000000000000
         H           -9.541453290984    -1.283217117729     0.352969520805     1.007825032230
         H            9.528257688346    -1.385572724969     0.352683543701     1.007825032230
         H           -8.315169223574    -3.426803504277     0.358007261790     1.007825032230
         H            8.279150962767    -3.515794440958     0.357528429084     1.007825032230
         C           -6.144998368428    -5.036300923848     0.353731239042    12.000000000000
         C           -3.706787527723    -5.049915365182     0.343910270955    12.000000000000
         C           -4.955594237727    -5.752147624559     0.351877405599    12.000000000000
         C           -2.486125505952    -5.763439225474     0.356849941999    12.000000000000
         C           -1.254062515205    -5.064775701066     0.345674336013    12.000000000000
         C            1.201008394143    -5.077934039257     0.346855460271    12.000000000000
         C           -0.030340854139    -5.778173954203     0.354698659935    12.000000000000
         C            3.653745921603    -5.089397426479     0.347613460019    12.000000000000
         C            2.425488516150    -5.789828286592     0.356990390571    12.000000000000
         C            6.091961438086    -5.101911614451     0.353967873693    12.000000000000
         C            4.894972264885    -5.805002072022     0.352731677863    12.000000000000
         H           -7.089896567766    -5.575653493303     0.358134000724     1.007825032230
         H            7.031051029475    -5.651312187397     0.357547653457     1.007825032230
         C           -4.923549501924    -7.187474750742     0.351322636695    12.000000000000
         C           -2.485346267963    -7.196381728994     0.348812744259    12.000000000000
         C           -3.751690071504    -7.872600808701     0.349007423184    12.000000000000
         C           -0.037953136713    -7.208118525534     0.349028469406    12.000000000000
         C           -1.277960280127    -7.881558035731     0.347043776645    12.000000000000
         C            2.409440141001    -7.222675663067     0.349891670217    12.000000000000
         C            1.194745757428    -7.894839016627     0.347739379336    12.000000000000
         C            4.847616872773    -7.239915761644     0.352398484877    12.000000000000
         C            3.668467426150    -7.912441644008     0.350050050513    12.000000000000
         H           -5.869944530142    -7.722484249106     0.352866673560     1.007825032230
         H            5.788245445663    -7.784985840379     0.353525604359     1.007825032230
         H           -3.753531119175    -8.959725220301     0.347171508755     1.007825032230
         H           -1.284308585620    -8.969529043562     0.342616392786     1.007825032230
         H            1.189217394970    -8.982814271654     0.343646742645     1.007825032230
         H            3.658542435098    -8.999514285118     0.348395509090     1.007825032230

  Running in c1 symmetry.

  Rotational constants: A =      0.00065  B =      0.00065  C =      0.00035 [cm^-1]
  Rotational constants: A =     19.39729  B =     19.36838  C =     10.47601 [MHz]
  Nuclear repulsion = 18168.324867656745482

  Charge       = 1
  Multiplicity = 1
  Electrons    = 652
  Nalpha       = 326
  Nbeta        = 326

  ==> Algorithm <==

  SCF Algorithm Type is DF.
  DIIS enabled.
  MOM disabled.
  Fractional occupation disabled.
  Guess Type is SAD.
  Energy threshold   = 1.00e-08
  Density threshold  = 1.00e-08
  Integral threshold = 1.00e-12

  ==> Primary Basis <==

  Basis Set: JUN-CC-PVDZ
    Blend: JUN-CC-PVDZ
    Number of shells: 923
    Number of basis functions: 2019
    Number of Cartesian functions: 2122
    Spherical Harmonics?: true
    Max angular momentum: 2

   => Loading Basis Set <=

    Name: (JUN-CC-PVDZ AUX)
    Role: JKFIT
    Keyword: DF_BASIS_SCF
    atoms 1-2, 4-5, 10, 17-34, 41-53, 56-70, 73-89, 92-104, 109-119, 122-130 entry C          line   146 file /opt/software/pc2/EB-SW/software/PSI4/1.9-foss-2022a/share/psi4/basis/jun-cc-pvdz-jkfit.gbs 
    atoms 3, 6                                                               entry N          line   202 file /opt/software/pc2/EB-SW/software/PSI4/1.9-foss-2022a/share/psi4/basis/jun-cc-pvdz-jkfit.gbs 
    atoms 7-9, 11-16, 35-40, 54-55, 71-72, 90-91, 105-108, 120-121, 131-136  entry H          line    70 file /opt/software/pc2/EB-SW/software/PSI4/1.9-foss-2022a/share/psi4/basis/jun-cc-pvdz-jkfit.gbs 

  ==> Integral Setup <==

  ==> DiskDFJK: Density-Fitted J/K Matrices <==

    J tasked:                  Yes
    K tasked:                  Yes
    wK tasked:                  No
    OpenMP threads:             16
    Integrals threads:          16
    Memory [MiB]:            45776
    Algorithm:                Disk
    Integral Cache:           SAVE
    Schwarz Cutoff:          1E-12
    Fitting Condition:       1E-10

   => Auxiliary Basis Set <=

  Basis Set: (JUN-CC-PVDZ AUX)
    Blend: JUN-CC-PVDZ-JKFIT
    Number of shells: 3078
    Number of basis functions: 8896
    Number of Cartesian functions: 10198
    Spherical Harmonics?: true
    Max angular momentum: 3

  Minimum eigenvalue in the overlap matrix is 7.6835188134E-11.
  Reciprocal condition number of the overlap matrix is 3.1911895241E-12.
    Using canonical orthogonalization.
  Overall, 39 of 2019 possible MOs eliminated.


  ==> Pre-Iterations <==

  SCF Guess: Superposition of Atomic Densities via on-the-fly atomic UHF (no occupation information).

   -------------------------
    Irrep   Nso     Nmo    
   -------------------------
     A       2019    1980 
   -------------------------
    Total    2019    1980
   -------------------------

  ==> Iterations <==

                           Total Energy        Delta E     RMS |[F,P]|

   @DF-RHF iter SAD: -3967.31798493294946   -3.96732e+03   0.00000e+00 
   @DF-RHF iter   1: -3952.12141690045519    1.51966e+01   7.15869e-04 ADIIS/DIIS
   @DF-RHF iter   2: -3953.50498426392141   -1.38357e+00   2.39240e-04 ADIIS/DIIS
   @DF-RHF iter   3: -3953.62695443930670   -1.21970e-01   1.13651e-04 ADIIS/DIIS
   @DF-RHF iter   4: -3953.65405048906223   -2.70960e-02   4.92558e-05 DIIS
   @DF-RHF iter   5: -3953.66030387280580   -6.25338e-03   1.19346e-05 DIIS
   @DF-RHF iter   6: -3953.66084098390274   -5.37111e-04   4.69883e-06 DIIS
   @DF-RHF iter   7: -3953.66103845555244   -1.97472e-04   2.25242e-06 DIIS
   @DF-RHF iter   8: -3953.66110381591307   -6.53604e-05   1.11683e-06 DIIS
   @DF-RHF iter   9: -3953.66112208967024   -1.82738e-05   3.69311e-07 DIIS
   @DF-RHF iter  10: -3953.66112334596528   -1.25630e-06   1.50816e-07 DIIS
   @DF-RHF iter  11: -3953.66112350549065   -1.59525e-07   6.23257e-08 DIIS
   @DF-RHF iter  12: -3953.66112353963490   -3.41443e-08   3.26215e-08 DIIS
   @DF-RHF iter  13: -3953.66112354733514   -7.70024e-09   1.08572e-08 DIIS
   @DF-RHF iter  14: -3953.66112354801271   -6.77574e-10   4.58716e-09 DIIS
  Energy and wave function converged.


  ==> Post-Iterations <==

    Orbital Energies [Eh]
    ---------------------

    Doubly Occupied:                                                      

       1A    -15.797780     2A    -15.797335     3A    -11.490286  
       4A    -11.427158     5A    -11.425602     6A    -11.412597  
       7A    -11.412480     8A    -11.340606     9A    -11.339125  
      10A    -11.339076    11A    -11.338595    12A    -11.337341  
      13A    -11.337206    14A    -11.336333    15A    -11.336175  
      16A    -11.335825    17A    -11.335572    18A    -11.335346  
      19A    -11.335191    20A    -11.333702    21A    -11.333434  
      22A    -11.333329    23A    -11.332912    24A    -11.332792  
      25A    -11.331858    26A    -11.331754    27A    -11.331113  
      28A    -11.330958    29A    -11.330869    30A    -11.330709  
      31A    -11.330653    32A    -11.329350    33A    -11.329338  
      34A    -11.329088    35A    -11.328970    36A    -11.328023  
      37A    -11.328004    38A    -11.327899    39A    -11.327888  
      40A    -11.327841    41A    -11.327210    42A    -11.327181  
      43A    -11.326966    44A    -11.326940    45A    -11.326911  
      46A    -11.326909    47A    -11.326847    48A    -11.326129  
      49A    -11.326083    50A    -11.325666    51A    -11.325599  
      52A    -11.325472    53A    -11.325451    54A    -11.325158  
      55A    -11.325099    56A    -11.324979    57A    -11.324950  
      58A    -11.324383    59A    -11.324341    60A    -11.323947  
      61A    -11.323923    62A    -11.323866    63A    -11.323772  
      64A    -11.323386    65A    -11.323353    66A    -11.322423  
      67A    -11.322392    68A    -11.322150    69A    -11.322122  
      70A    -11.322106    71A    -11.322098    72A    -11.321564  
      73A    -11.321151    74A    -11.321129    75A    -11.320508  
      76A    -11.320446    77A    -11.320424    78A    -11.319587  
      79A    -11.319583    80A    -11.318112    81A    -11.318081  
      82A    -11.318057    83A    -11.318005    84A    -11.316443  
      85A    -11.316364    86A    -11.315511    87A    -11.315471  
      88A    -11.315456    89A    -11.315443    90A    -11.314030  
      91A    -11.313974    92A    -11.313401    93A    -11.313349  
      94A    -11.313348    95A    -11.313336    96A    -11.312904  
      97A    -11.312820    98A    -11.311764    99A    -11.311712  
     100A    -11.310301   101A    -11.310290   102A    -11.308786  
     103A    -11.308778   104A     -1.542008   105A     -1.397427  
     106A     -1.325337   107A     -1.306979   108A     -1.306228  
     109A     -1.286144   110A     -1.286135   111A     -1.283709  
     112A     -1.265155   113A     -1.260511   114A     -1.255911  
     115A     -1.255517   116A     -1.237481   117A     -1.237448  
     118A     -1.222439   119A     -1.222393   120A     -1.220139  
     121A     -1.207955   122A     -1.207918   123A     -1.203521  
     124A     -1.193818   125A     -1.181299   126A     -1.179636  
     127A     -1.179337   128A     -1.176263   129A     -1.174378  
     130A     -1.153542   131A     -1.153429   132A     -1.152725  
     133A     -1.139863   134A     -1.139846   135A     -1.133619  
     136A     -1.133486   137A     -1.131631   138A     -1.111163  
     139A     -1.111104   140A     -1.105031   141A     -1.101576  
     142A     -1.101563   143A     -1.092249   144A     -1.089768  
     145A     -1.089589   146A     -1.082663   147A     -1.072044  
     148A     -1.070757   149A     -1.067731   150A     -1.066243  
     151A     -1.066184   152A     -1.053392   153A     -1.036062  
     154A     -1.035982   155A     -1.019282   156A     -1.019194  
     157A     -0.987348   158A     -0.973621   159A     -0.973476  
     160A     -0.972802   161A     -0.967756   162A     -0.967714  
     163A     -0.960486   164A     -0.959751   165A     -0.959654  
     166A     -0.957090   167A     -0.956379   168A     -0.954354  
     169A     -0.935113   170A     -0.930126   171A     -0.915848  
     172A     -0.914322   173A     -0.913819   174A     -0.911226  
     175A     -0.908095   176A     -0.898623   177A     -0.898517  
     178A     -0.890333   179A     -0.890299   180A     -0.881001  
     181A     -0.851169   182A     -0.850987   183A     -0.848869  
     184A     -0.847101   185A     -0.846433   186A     -0.845691  
     187A     -0.845379   188A     -0.831823   189A     -0.827795  
     190A     -0.816000   191A     -0.814525   192A     -0.796406  
     193A     -0.791733   194A     -0.791386   195A     -0.789890  
     196A     -0.789081   197A     -0.788861   198A     -0.784525  
     199A     -0.782009   200A     -0.779455   201A     -0.779333  
     202A     -0.775674   203A     -0.762951   204A     -0.762941  
     205A     -0.754976   206A     -0.752166   207A     -0.750480  
     208A     -0.749306   209A     -0.749251   210A     -0.748254  
     211A     -0.746002   212A     -0.745994   213A     -0.743417  
     214A     -0.716812   215A     -0.715983   216A     -0.715918  
     217A     -0.714536   218A     -0.714273   219A     -0.712333  
     220A     -0.706683   221A     -0.706509   222A     -0.703654  
     223A     -0.702421   224A     -0.700787   225A     -0.700733  
     226A     -0.698770   227A     -0.693252   228A     -0.690340  
     229A     -0.684785   230A     -0.681602   231A     -0.677822  
     232A     -0.677736   233A     -0.672542   234A     -0.672496  
     235A     -0.666776   236A     -0.666420   237A     -0.665147  
     238A     -0.664613   239A     -0.664045   240A     -0.663036  
     241A     -0.659021   242A     -0.658726   243A     -0.658635  
     244A     -0.658263   245A     -0.654782   246A     -0.654747  
     247A     -0.653971   248A     -0.641347   249A     -0.641257  
     250A     -0.639114   251A     -0.639102   252A     -0.638287  
     253A     -0.637224   254A     -0.634245   255A     -0.633991  
     256A     -0.630079   257A     -0.629813   258A     -0.623197  
     259A     -0.623175   260A     -0.622021   261A     -0.620130  
     262A     -0.618221   263A     -0.614378   264A     -0.608942  
     265A     -0.608355   266A     -0.603271   267A     -0.602794  
     268A     -0.597352   269A     -0.597066   270A     -0.593812  
     271A     -0.591009   272A     -0.590970   273A     -0.581615  
     274A     -0.581489   275A     -0.578626   276A     -0.578574  
     277A     -0.572277   278A     -0.572088   279A     -0.561695  
     280A     -0.561294   281A     -0.560853   282A     -0.560757  
     283A     -0.560419   284A     -0.560327   285A     -0.557697  
     286A     -0.544044   287A     -0.540090   288A     -0.540042  
     289A     -0.537338   290A     -0.534724   291A     -0.530920  
     292A     -0.530696   293A     -0.524014   294A     -0.513368  
     295A     -0.513151   296A     -0.508643   297A     -0.508343  
     298A     -0.507670   299A     -0.496742   300A     -0.496456  
     301A     -0.490035   302A     -0.472523   303A     -0.472440  
     304A     -0.452846   305A     -0.452752   306A     -0.450985  
     307A     -0.447845   308A     -0.447788   309A     -0.418709  
     310A     -0.418639   311A     -0.415376   312A     -0.407817  
     313A     -0.406265   314A     -0.406057   315A     -0.394704  
     316A     -0.394609   317A     -0.373427   318A     -0.368970  
     319A     -0.368851   320A     -0.364477   321A     -0.349609  
     322A     -0.319889   323A     -0.319845   324A     -0.317177  
     325A     -0.268400   326A     -0.268155  

    Virtual:                                                              

     327A     -0.075917   328A     -0.075645   329A     -0.037385  
     330A     -0.032377   331A     -0.031649   332A     -0.031309  
     333A     -0.028976   334A     -0.020764   335A     -0.015957  
     336A     -0.007868   337A     -0.006520   338A     -0.005189  
     339A     -0.004228   340A     -0.000679   341A      0.000174  
     342A      0.000478   343A      0.002863   344A      0.003439  
     345A      0.003503   346A      0.004922   347A      0.006576  
     348A      0.007921   349A      0.008758   350A      0.011155  
     351A      0.013284   352A      0.013482   353A      0.014768  
     354A      0.015086   355A      0.015469   356A      0.018078  
     357A      0.020837   358A      0.021954   359A      0.022448  
     360A      0.025933   361A      0.026046   362A      0.026694  
     363A      0.029236   364A      0.032763   365A      0.033009  
     366A      0.034977   367A      0.036197   368A      0.037728  
     369A      0.038790   370A      0.040791   371A      0.043197  
     372A      0.043586   373A      0.044183   374A      0.045699  
     375A      0.047772   376A      0.048402   377A      0.052179  
     378A      0.052900   379A      0.053185   380A      0.053335  
     381A      0.053504   382A      0.053768   383A      0.055235  
     384A      0.055490   385A      0.056045   386A      0.057452  
     387A      0.059153   388A      0.061538   389A      0.063243  
     390A      0.066787   391A      0.067306   392A      0.068314  
     393A      0.068524   394A      0.069830   395A      0.070232  
     396A      0.075074   397A      0.075635   398A      0.076759  
     399A      0.077091   400A      0.078555   401A      0.080485  
     402A      0.081318   403A      0.082788   404A      0.083717  
     405A      0.086548   406A      0.086707   407A      0.088938  
     408A      0.089624   409A      0.091800   410A      0.092495  
     411A      0.093592   412A      0.096919   413A      0.097192  
     414A      0.100802   415A      0.101247   416A      0.103156  
     417A      0.105249   418A      0.106427   419A      0.106795  
     420A      0.107037   421A      0.107832   422A      0.108944  
     423A      0.110149   424A      0.111690   425A      0.112612  
     426A      0.114411   427A      0.115044   428A      0.115648  
     429A      0.115936   430A      0.117295   431A      0.117767  
     432A      0.118654   433A      0.119948   434A      0.124600  
     435A      0.127158   436A      0.127354   437A      0.127825  
     438A      0.131008   439A      0.132355   440A      0.133469  
     441A      0.134461   442A      0.135355   443A      0.135870  
     444A      0.136048   445A      0.136461   446A      0.138524  
     447A      0.139582   448A      0.143510   449A      0.144295  
     450A      0.144866   451A      0.146950   452A      0.147185  
     453A      0.148679   454A      0.149421   455A      0.149497  
     456A      0.150529   457A      0.151306   458A      0.152480  
     459A      0.153215   460A      0.153441   461A      0.154046  
     462A      0.155119   463A      0.156177   464A      0.157957  
     465A      0.158621   466A      0.159185   467A      0.159578  
     468A      0.160729   469A      0.161528   470A      0.163617  
     471A      0.164374   472A      0.164650   473A      0.166313  
     474A      0.166635   475A      0.166893   476A      0.168375  
     477A      0.169493   478A      0.170515   479A      0.171167  
     480A      0.174209   481A      0.174486   482A      0.174861  
     483A      0.175719   484A      0.177318   485A      0.177703  
     486A      0.178862   487A      0.180664   488A      0.181155  
     489A      0.182678   490A      0.183788   491A      0.185493  
     492A      0.187304   493A      0.188496   494A      0.189865  
     495A      0.190519   496A      0.191616   497A      0.192486  
     498A      0.193140   499A      0.193522   500A      0.194763  
     501A      0.195705   502A      0.196746   503A      0.197663  
     504A      0.198909   505A      0.199859   506A      0.202905  
     507A      0.203386   508A      0.204253   509A      0.206741  
     510A      0.207003   511A      0.207796   512A      0.208694  
     513A      0.209154   514A      0.210076   515A      0.211660  
     516A      0.212675   517A      0.213123   518A      0.213328  
     519A      0.215379   520A      0.217276   521A      0.218112  
     522A      0.219243   523A      0.220677   524A      0.221113  
     525A      0.222040   526A      0.222625   527A      0.223225  
     528A      0.224541   529A      0.225709   530A      0.226203  
     531A      0.227062   532A      0.229222   533A      0.229499  
     534A      0.230457   535A      0.231200   536A      0.234387  
     537A      0.235339   538A      0.236293   539A      0.236715  
     540A      0.237053   541A      0.237447   542A      0.238770  
     543A      0.240158   544A      0.242502   545A      0.244827  
     546A      0.245518   547A      0.245990   548A      0.246286  
     549A      0.247109   550A      0.247307   551A      0.249504  
     552A      0.250372   553A      0.251148   554A      0.251954  
     555A      0.253339   556A      0.254050   557A      0.255545  
     558A      0.257532   559A      0.258094   560A      0.258586  
     561A      0.260461   562A      0.261541   563A      0.262035  
     564A      0.262609   565A      0.263024   566A      0.263289  
     567A      0.264103   568A      0.265366   569A      0.266943  
     570A      0.267448   571A      0.269147   572A      0.270294  
     573A      0.271578   574A      0.272119   575A      0.272380  
     576A      0.273986   577A      0.274014   578A      0.274549  
     579A      0.275012   580A      0.275733   581A      0.275849  
     582A      0.276591   583A      0.277152   584A      0.278859  
     585A      0.279623   586A      0.281452   587A      0.282211  
     588A      0.283952   589A      0.285111   590A      0.286446  
     591A      0.287149   592A      0.288956   593A      0.289176  
     594A      0.289361   595A      0.289674   596A      0.290006  
     597A      0.291307   598A      0.292550   599A      0.294362  
     600A      0.296145   601A      0.296769   602A      0.298307  
     603A      0.300454   604A      0.301436   605A      0.301944  
     606A      0.302830   607A      0.303201   608A      0.305814  
     609A      0.306009   610A      0.306904   611A      0.307434  
     612A      0.309071   613A      0.309691   614A      0.310200  
     615A      0.310799   616A      0.310952   617A      0.311444  
     618A      0.313835   619A      0.314631   620A      0.316239  
     621A      0.318296   622A      0.318925   623A      0.319928  
     624A      0.320409   625A      0.322039   626A      0.322782  
     627A      0.323753   628A      0.324063   629A      0.324263  
     630A      0.325529   631A      0.327396   632A      0.327831  
     633A      0.328620   634A      0.330511   635A      0.331621  
     636A      0.333269   637A      0.333596   638A      0.333735  
     639A      0.334575   640A      0.334778   641A      0.336365  
     642A      0.336916   643A      0.337015   644A      0.338356  
     645A      0.338873   646A      0.340120   647A      0.340750  
     648A      0.342646   649A      0.343161   650A      0.343473  
     651A      0.343860   652A      0.344642   653A      0.345112  
     654A      0.345525   655A      0.347042   656A      0.347426  
     657A      0.347987   658A      0.350006   659A      0.350498  
     660A      0.351503   661A      0.351732   662A      0.352956  
     663A      0.354079   664A      0.354512   665A      0.355039  
     666A      0.356920   667A      0.357117   668A      0.357763  
     669A      0.358906   670A      0.360136   671A      0.361147  
     672A      0.361672   673A      0.363432   674A      0.365226  
     675A      0.365519   676A      0.366895   677A      0.367375  
     678A      0.368813   679A      0.369256   680A      0.369983  
     681A      0.370586   682A      0.371026   683A      0.372312  
     684A      0.372876   685A      0.374811   686A      0.375638  
     687A      0.375920   688A      0.379344   689A      0.379601  
     690A      0.379988   691A      0.380947   692A      0.382090  
     693A      0.384445   694A      0.385924   695A      0.387617  
     696A      0.388858   697A      0.390403   698A      0.391154  
     699A      0.391617   700A      0.393374   701A      0.393943  
     702A      0.394671   703A      0.394811   704A      0.395651  
     705A      0.396304   706A      0.396783   707A      0.397881  
     708A      0.400175   709A      0.402073   710A      0.402820  
     711A      0.403367   712A      0.404284   713A      0.404542  
     714A      0.405416   715A      0.405708   716A      0.406285  
     717A      0.407511   718A      0.410070   719A      0.410927  
     720A      0.411398   721A      0.412105   722A      0.413026  
     723A      0.413659   724A      0.414625   725A      0.415332  
     726A      0.416277   727A      0.416860   728A      0.417559  
     729A      0.418682   730A      0.420248   731A      0.421719  
     732A      0.424738   733A      0.425875   734A      0.426742  
     735A      0.428621   736A      0.428949   737A      0.429693  
     738A      0.431655   739A      0.432468   740A      0.434102  
     741A      0.435872   742A      0.436644   743A      0.436944  
     744A      0.437931   745A      0.439825   746A      0.441438  
     747A      0.442511   748A      0.443539   749A      0.444208  
     750A      0.445669   751A      0.447306   752A      0.447751  
     753A      0.448988   754A      0.450405   755A      0.451149  
     756A      0.452529   757A      0.454596   758A      0.455099  
     759A      0.456299   760A      0.457461   761A      0.458465  
     762A      0.458821   763A      0.460335   764A      0.461654  
     765A      0.461920   766A      0.464458   767A      0.465109  
     768A      0.467190   769A      0.467615   770A      0.469169  
     771A      0.469764   772A      0.471402   773A      0.472478  
     774A      0.474947   775A      0.477325   776A      0.479609  
     777A      0.479885   778A      0.480210   779A      0.483258  
     780A      0.483811   781A      0.486967   782A      0.491411  
     783A      0.495013   784A      0.498524   785A      0.499785  
     786A      0.500767   787A      0.501602   788A      0.502795  
     789A      0.503427   790A      0.504171   791A      0.505046  
     792A      0.506185   793A      0.507096   794A      0.508242  
     795A      0.509083   796A      0.509739   797A      0.511483  
     798A      0.512926   799A      0.514109   800A      0.514660  
     801A      0.516230   802A      0.518123   803A      0.518878  
     804A      0.519584   805A      0.522366   806A      0.523377  
     807A      0.525208   808A      0.525831   809A      0.528518  
     810A      0.528794   811A      0.530346   812A      0.531006  
     813A      0.533001   814A      0.535402   815A      0.536214  
     816A      0.536806   817A      0.540435   818A      0.542040  
     819A      0.542500   820A      0.543490   821A      0.543978  
     822A      0.546617   823A      0.552981   824A      0.556884  
     825A      0.558263   826A      0.558800   827A      0.559137  
     828A      0.562738   829A      0.565093   830A      0.567638  
     831A      0.568620   832A      0.569844   833A      0.573943  
     834A      0.574974   835A      0.578711   836A      0.579560  
     837A      0.584622   838A      0.586994   839A      0.590112  
     840A      0.592273   841A      0.593462   842A      0.594266  
     843A      0.596493   844A      0.597315   845A      0.598928  
     846A      0.603267   847A      0.604333   848A      0.605724  
     849A      0.611474   850A      0.616813   851A      0.619433  
     852A      0.622328   853A      0.623519   854A      0.625600  
     855A      0.626162   856A      0.627885   857A      0.628678  
     858A      0.630784   859A      0.635184   860A      0.635878  
     861A      0.636184   862A      0.637815   863A      0.642477  
     864A      0.643257   865A      0.643986   866A      0.650257  
     867A      0.656425   868A      0.660023   869A      0.665313  
     870A      0.671122   871A      0.674265   872A      0.677420  
     873A      0.677770   874A      0.678266   875A      0.679348  
     876A      0.680008   877A      0.681472   878A      0.685989  
     879A      0.687052   880A      0.690499   881A      0.700316  
     882A      0.706394   883A      0.711606   884A      0.719418  
     885A      0.721958   886A      0.724670   887A      0.724771  
     888A      0.726537   889A      0.730375   890A      0.732116  
     891A      0.735325   892A      0.738498   893A      0.740559  
     894A      0.741561   895A      0.744022   896A      0.745531  
     897A      0.748190   898A      0.750828   899A      0.751562  
     900A      0.751630   901A      0.753218   902A      0.756107  
     903A      0.756775   904A      0.758056   905A      0.760644  
     906A      0.762642   907A      0.763911   908A      0.764858  
     909A      0.767358   910A      0.769948   911A      0.772084  
     912A      0.773490   913A      0.773777   914A      0.775998  
     915A      0.776584   916A      0.778186   917A      0.782760  
     918A      0.784857   919A      0.786757   920A      0.788054  
     921A      0.789720   922A      0.791235   923A      0.791754  
     924A      0.794231   925A      0.796958   926A      0.797997  
     927A      0.799047   928A      0.799936   929A      0.801772  
     930A      0.803106   931A      0.805480   932A      0.808997  
     933A      0.809746   934A      0.810427   935A      0.812034  
     936A      0.813573   937A      0.814696   938A      0.817992  
     939A      0.818913   940A      0.821726   941A      0.823877  
     942A      0.825777   943A      0.826252   944A      0.827685  
     945A      0.828737   946A      0.829722   947A      0.831609  
     948A      0.832919   949A      0.834883   950A      0.836268  
     951A      0.837444   952A      0.839814   953A      0.840699  
     954A      0.844003   955A      0.845657   956A      0.846368  
     957A      0.848766   958A      0.851546   959A      0.852592  
     960A      0.854986   961A      0.856057   962A      0.857475  
     963A      0.858503   964A      0.859077   965A      0.860369  
     966A      0.861200   967A      0.862207   968A      0.863995  
     969A      0.865423   970A      0.865731   971A      0.866674  
     972A      0.871618   973A      0.872332   974A      0.873275  
     975A      0.874669   976A      0.875578   977A      0.875862  
     978A      0.877534   979A      0.882326   980A      0.883469  
     981A      0.884441   982A      0.886039   983A      0.887340  
     984A      0.887497   985A      0.890006   986A      0.891412  
     987A      0.892342   988A      0.892461   989A      0.893534  
     990A      0.895534   991A      0.896190   992A      0.897446  
     993A      0.899144   994A      0.899509   995A      0.901402  
     996A      0.903793   997A      0.905937   998A      0.906493  
     999A      0.908500  1000A      0.911124  1001A      0.912887  
    1002A      0.918030  1003A      0.921303  1004A      0.922340  
    1005A      0.924830  1006A      0.926148  1007A      0.929169  
    1008A      0.929249  1009A      0.930818  1010A      0.932326  
    1011A      0.933268  1012A      0.936970  1013A      0.937910  
    1014A      0.940193  1015A      0.941023  1016A      0.941546  
    1017A      0.942886  1018A      0.945073  1019A      0.945490  
    1020A      0.946980  1021A      0.948996  1022A      0.951801  
    1023A      0.953222  1024A      0.953875  1025A      0.955193  
    1026A      0.956529  1027A      0.959032  1028A      0.960773  
    1029A      0.961627  1030A      0.965901  1031A      0.968403  
    1032A      0.969567  1033A      0.969791  1034A      0.971711  
    1035A      0.974136  1036A      0.975576  1037A      0.976339  
    1038A      0.977900  1039A      0.978793  1040A      0.981634  
    1041A      0.983269  1042A      0.983843  1043A      0.984064  
    1044A      0.986308  1045A      0.987318  1046A      0.988208  
    1047A      0.988698  1048A      0.989009  1049A      0.990884  
    1050A      0.992685  1051A      0.994160  1052A      0.996065  
    1053A      0.997755  1054A      0.999743  1055A      1.000796  
    1056A      1.002218  1057A      1.003104  1058A      1.003753  
    1059A      1.004449  1060A      1.004699  1061A      1.006002  
    1062A      1.007346  1063A      1.008284  1064A      1.008939  
    1065A      1.009702  1066A      1.009935  1067A      1.010773  
    1068A      1.012036  1069A      1.012827  1070A      1.013822  
    1071A      1.013938  1072A      1.014479  1073A      1.015294  
    1074A      1.016540  1075A      1.017426  1076A      1.017682  
    1077A      1.018408  1078A      1.020249  1079A      1.021479  
    1080A      1.021901  1081A      1.022419  1082A      1.023160  
    1083A      1.023850  1084A      1.024362  1085A      1.025257  
    1086A      1.026886  1087A      1.027203  1088A      1.027813  
    1089A      1.028272  1090A      1.029068  1091A      1.029541  
    1092A      1.030753  1093A      1.032153  1094A      1.036031  
    1095A      1.036115  1096A      1.038253  1097A      1.038773  
    1098A      1.039612  1099A      1.040047  1100A      1.042313  
    1101A      1.045079  1102A      1.045870  1103A      1.048455  
    1104A      1.049076  1105A      1.051226  1106A      1.052639  
    1107A      1.053670  1108A      1.055004  1109A      1.058129  
    1110A      1.059115  1111A      1.060095  1112A      1.062745  
    1113A      1.063269  1114A      1.065940  1115A      1.067416  
    1116A      1.070241  1117A      1.070625  1118A      1.070874  
    1119A      1.071698  1120A      1.073620  1121A      1.075569  
    1122A      1.077105  1123A      1.077351  1124A      1.078649  
    1125A      1.082136  1126A      1.084114  1127A      1.085472  
    1128A      1.087003  1129A      1.088331  1130A      1.090370  
    1131A      1.091355  1132A      1.092223  1133A      1.093799  
    1134A      1.094815  1135A      1.095562  1136A      1.096052  
    1137A      1.101567  1138A      1.103171  1139A      1.104000  
    1140A      1.104847  1141A      1.107295  1142A      1.108394  
    1143A      1.111052  1144A      1.112377  1145A      1.114082  
    1146A      1.115969  1147A      1.118030  1148A      1.119266  
    1149A      1.121129  1150A      1.123072  1151A      1.124523  
    1152A      1.128068  1153A      1.129042  1154A      1.131939  
    1155A      1.138534  1156A      1.139464  1157A      1.140458  
    1158A      1.141212  1159A      1.143490  1160A      1.145616  
    1161A      1.146668  1162A      1.149904  1163A      1.151674  
    1164A      1.153143  1165A      1.156428  1166A      1.157939  
    1167A      1.159706  1168A      1.161226  1169A      1.162274  
    1170A      1.165137  1171A      1.166581  1172A      1.169875  
    1173A      1.171024  1174A      1.173088  1175A      1.177709  
    1176A      1.178982  1177A      1.182874  1178A      1.183266  
    1179A      1.187742  1180A      1.188513  1181A      1.190783  
    1182A      1.193943  1183A      1.194259  1184A      1.198308  
    1185A      1.200188  1186A      1.200535  1187A      1.201672  
    1188A      1.202508  1189A      1.206609  1190A      1.209577  
    1191A      1.210214  1192A      1.210866  1193A      1.214686  
    1194A      1.218856  1195A      1.221407  1196A      1.225627  
    1197A      1.226432  1198A      1.227571  1199A      1.229083  
    1200A      1.232200  1201A      1.233361  1202A      1.233640  
    1203A      1.234342  1204A      1.238642  1205A      1.239681  
    1206A      1.242814  1207A      1.246760  1208A      1.247798  
    1209A      1.248768  1210A      1.250251  1211A      1.251338  
    1212A      1.254149  1213A      1.257010  1214A      1.257089  
    1215A      1.259036  1216A      1.259731  1217A      1.261451  
    1218A      1.262970  1219A      1.266338  1220A      1.266774  
    1221A      1.269898  1222A      1.271468  1223A      1.273806  
    1224A      1.275099  1225A      1.276519  1226A      1.276759  
    1227A      1.277347  1228A      1.282013  1229A      1.284403  
    1230A      1.285741  1231A      1.289614  1232A      1.291005  
    1233A      1.291360  1234A      1.297475  1235A      1.299172  
    1236A      1.300299  1237A      1.302037  1238A      1.302957  
    1239A      1.303787  1240A      1.305861  1241A      1.309986  
    1242A      1.311289  1243A      1.312128  1244A      1.313994  
    1245A      1.314300  1246A      1.324976  1247A      1.326025  
    1248A      1.329053  1249A      1.331257  1250A      1.333902  
    1251A      1.334592  1252A      1.335294  1253A      1.336873  
    1254A      1.343556  1255A      1.345402  1256A      1.346237  
    1257A      1.346940  1258A      1.351591  1259A      1.353148  
    1260A      1.353392  1261A      1.354932  1262A      1.356135  
    1263A      1.358840  1264A      1.362991  1265A      1.364075  
    1266A      1.365858  1267A      1.366086  1268A      1.368090  
    1269A      1.370916  1270A      1.371722  1271A      1.373615  
    1272A      1.373996  1273A      1.374892  1274A      1.376384  
    1275A      1.376984  1276A      1.379904  1277A      1.381006  
    1278A      1.384314  1279A      1.385216  1280A      1.387805  
    1281A      1.390367  1282A      1.391364  1283A      1.394051  
    1284A      1.395819  1285A      1.400207  1286A      1.402435  
    1287A      1.405938  1288A      1.406952  1289A      1.409633  
    1290A      1.409997  1291A      1.410400  1292A      1.413093  
    1293A      1.413308  1294A      1.421796  1295A      1.422733  
    1296A      1.424259  1297A      1.426374  1298A      1.427480  
    1299A      1.435296  1300A      1.436944  1301A      1.439390  
    1302A      1.440890  1303A      1.442507  1304A      1.446246  
    1305A      1.452568  1306A      1.454084  1307A      1.456752  
    1308A      1.460463  1309A      1.474500  1310A      1.477192  
    1311A      1.478205  1312A      1.479052  1313A      1.487335  
    1314A      1.488332  1315A      1.491991  1316A      1.506064  
    1317A      1.515508  1318A      1.520499  1319A      1.523624  
    1320A      1.529189  1321A      1.531545  1322A      1.532878  
    1323A      1.535828  1324A      1.537812  1325A      1.539487  
    1326A      1.543073  1327A      1.543482  1328A      1.544922  
    1329A      1.547246  1330A      1.548548  1331A      1.549014  
    1332A      1.549328  1333A      1.550594  1334A      1.552331  
    1335A      1.554354  1336A      1.556396  1337A      1.558274  
    1338A      1.558882  1339A      1.561508  1340A      1.562236  
    1341A      1.563782  1342A      1.565073  1343A      1.565731  
    1344A      1.565941  1345A      1.568137  1346A      1.569252  
    1347A      1.570932  1348A      1.573149  1349A      1.573468  
    1350A      1.574889  1351A      1.575139  1352A      1.575914  
    1353A      1.579480  1354A      1.579610  1355A      1.582147  
    1356A      1.582840  1357A      1.587790  1358A      1.587912  
    1359A      1.590406  1360A      1.592082  1361A      1.593691  
    1362A      1.594096  1363A      1.598740  1364A      1.600143  
    1365A      1.601302  1366A      1.602349  1367A      1.603295  
    1368A      1.603445  1369A      1.606025  1370A      1.606440  
    1371A      1.608260  1372A      1.609914  1373A      1.611349  
    1374A      1.613866  1375A      1.614428  1376A      1.617019  
    1377A      1.617135  1378A      1.620737  1379A      1.624996  
    1380A      1.626190  1381A      1.630128  1382A      1.631840  
    1383A      1.632766  1384A      1.636246  1385A      1.636505  
    1386A      1.638791  1387A      1.644015  1388A      1.645207  
    1389A      1.645524  1390A      1.649532  1391A      1.651218  
    1392A      1.651912  1393A      1.653644  1394A      1.656375  
    1395A      1.656666  1396A      1.657515  1397A      1.661430  
    1398A      1.662518  1399A      1.668738  1400A      1.675268  
    1401A      1.675805  1402A      1.677235  1403A      1.681516  
    1404A      1.683904  1405A      1.684255  1406A      1.685749  
    1407A      1.692669  1408A      1.696589  1409A      1.697806  
    1410A      1.701077  1411A      1.703777  1412A      1.706908  
    1413A      1.718516  1414A      1.720549  1415A      1.725680  
    1416A      1.727563  1417A      1.730124  1418A      1.735369  
    1419A      1.735645  1420A      1.740768  1421A      1.750328  
    1422A      1.751005  1423A      1.757243  1424A      1.759673  
    1425A      1.763055  1426A      1.764659  1427A      1.765360  
    1428A      1.767546  1429A      1.768770  1430A      1.770851  
    1431A      1.771675  1432A      1.773259  1433A      1.773842  
    1434A      1.775181  1435A      1.777082  1436A      1.777359  
    1437A      1.781665  1438A      1.783115  1439A      1.785080  
    1440A      1.794557  1441A      1.795424  1442A      1.797144  
    1443A      1.797500  1444A      1.798347  1445A      1.798711  
    1446A      1.803523  1447A      1.805423  1448A      1.808435  
    1449A      1.810071  1450A      1.810751  1451A      1.813627  
    1452A      1.814194  1453A      1.817571  1454A      1.818797  
    1455A      1.820132  1456A      1.820382  1457A      1.821347  
    1458A      1.823391  1459A      1.823796  1460A      1.824626  
    1461A      1.825019  1462A      1.825856  1463A      1.827021  
    1464A      1.837599  1465A      1.842420  1466A      1.843313  
    1467A      1.844520  1468A      1.845934  1469A      1.846261  
    1470A      1.849600  1471A      1.851001  1472A      1.853167  
    1473A      1.854449  1474A      1.856752  1475A      1.857201  
    1476A      1.857635  1477A      1.858914  1478A      1.859626  
    1479A      1.861585  1480A      1.864150  1481A      1.865032  
    1482A      1.871214  1483A      1.873390  1484A      1.875402  
    1485A      1.876977  1486A      1.877635  1487A      1.877949  
    1488A      1.878759  1489A      1.879900  1490A      1.882408  
    1491A      1.885008  1492A      1.885762  1493A      1.888615  
    1494A      1.890292  1495A      1.891564  1496A      1.894014  
    1497A      1.894274  1498A      1.897304  1499A      1.898542  
    1500A      1.901597  1501A      1.903011  1502A      1.904365  
    1503A      1.907223  1504A      1.908563  1505A      1.909545  
    1506A      1.910910  1507A      1.911942  1508A      1.913009  
    1509A      1.916614  1510A      1.918780  1511A      1.919600  
    1512A      1.922748  1513A      1.926634  1514A      1.929718  
    1515A      1.931354  1516A      1.932148  1517A      1.933682  
    1518A      1.934473  1519A      1.935561  1520A      1.940732  
    1521A      1.944250  1522A      1.947993  1523A      1.948418  
    1524A      1.951420  1525A      1.951808  1526A      1.953825  
    1527A      1.954695  1528A      1.954942  1529A      1.955685  
    1530A      1.956657  1531A      1.958704  1532A      1.960147  
    1533A      1.962211  1534A      1.962862  1535A      1.966199  
    1536A      1.968001  1537A      1.969510  1538A      1.970748  
    1539A      1.975142  1540A      1.977785  1541A      1.978658  
    1542A      1.980040  1543A      1.981459  1544A      1.985851  
    1545A      1.988320  1546A      1.989743  1547A      1.993547  
    1548A      1.994599  1549A      1.995880  1550A      1.997179  
    1551A      1.997994  1552A      1.999536  1553A      2.000522  
    1554A      2.002083  1555A      2.004381  1556A      2.007157  
    1557A      2.007853  1558A      2.009329  1559A      2.010511  
    1560A      2.016118  1561A      2.017024  1562A      2.017705  
    1563A      2.018485  1564A      2.019115  1565A      2.019696  
    1566A      2.021370  1567A      2.022895  1568A      2.023159  
    1569A      2.024453  1570A      2.024910  1571A      2.026913  
    1572A      2.028538  1573A      2.029583  1574A      2.030469  
    1575A      2.030769  1576A      2.031483  1577A      2.033045  
    1578A      2.036036  1579A      2.038177  1580A      2.038927  
    1581A      2.039695  1582A      2.040049  1583A      2.043912  
    1584A      2.046255  1585A      2.046628  1586A      2.048363  
    1587A      2.050921  1588A      2.050967  1589A      2.052180  
    1590A      2.052799  1591A      2.054319  1592A      2.055507  
    1593A      2.056317  1594A      2.057395  1595A      2.059911  
    1596A      2.062901  1597A      2.063604  1598A      2.065071  
    1599A      2.065803  1600A      2.066014  1601A      2.067781  
    1602A      2.068623  1603A      2.069364  1604A      2.071638  
    1605A      2.076380  1606A      2.077744  1607A      2.079712  
    1608A      2.080258  1609A      2.082169  1610A      2.082952  
    1611A      2.083112  1612A      2.088098  1613A      2.090897  
    1614A      2.093446  1615A      2.095272  1616A      2.095844  
    1617A      2.096823  1618A      2.098298  1619A      2.098378  
    1620A      2.100481  1621A      2.100652  1622A      2.102673  
    1623A      2.107680  1624A      2.110109  1625A      2.111103  
    1626A      2.115575  1627A      2.117111  1628A      2.119434  
    1629A      2.119908  1630A      2.123575  1631A      2.124153  
    1632A      2.126082  1633A      2.127015  1634A      2.127373  
    1635A      2.130639  1636A      2.131937  1637A      2.133650  
    1638A      2.134235  1639A      2.137696  1640A      2.138939  
    1641A      2.140424  1642A      2.141927  1643A      2.142807  
    1644A      2.145267  1645A      2.148009  1646A      2.149946  
    1647A      2.151160  1648A      2.153063  1649A      2.155246  
    1650A      2.157854  1651A      2.159890  1652A      2.160450  
    1653A      2.162624  1654A      2.163864  1655A      2.165310  
    1656A      2.168322  1657A      2.169271  1658A      2.170131  
    1659A      2.171989  1660A      2.174013  1661A      2.174179  
    1662A      2.175648  1663A      2.178901  1664A      2.180580  
    1665A      2.188008  1666A      2.188640  1667A      2.191372  
    1668A      2.193541  1669A      2.199653  1670A      2.203892  
    1671A      2.204964  1672A      2.206675  1673A      2.208566  
    1674A      2.211887  1675A      2.212534  1676A      2.218358  
    1677A      2.220719  1678A      2.221263  1679A      2.224593  
    1680A      2.228651  1681A      2.230489  1682A      2.233111  
    1683A      2.234683  1684A      2.238404  1685A      2.241544  
    1686A      2.242892  1687A      2.247224  1688A      2.255352  
    1689A      2.257592  1690A      2.261578  1691A      2.261679  
    1692A      2.265600  1693A      2.265792  1694A      2.266616  
    1695A      2.267849  1696A      2.268817  1697A      2.268869  
    1698A      2.270806  1699A      2.271733  1700A      2.275584  
    1701A      2.276856  1702A      2.277875  1703A      2.278956  
    1704A      2.279447  1705A      2.280585  1706A      2.281751  
    1707A      2.282734  1708A      2.284426  1709A      2.285431  
    1710A      2.295917  1711A      2.304312  1712A      2.308582  
    1713A      2.309893  1714A      2.321713  1715A      2.324540  
    1716A      2.329860  1717A      2.332314  1718A      2.333153  
    1719A      2.343631  1720A      2.346212  1721A      2.355172  
    1722A      2.358021  1723A      2.359838  1724A      2.364142  
    1725A      2.366862  1726A      2.369166  1727A      2.379262  
    1728A      2.381356  1729A      2.387366  1730A      2.388543  
    1731A      2.401287  1732A      2.402552  1733A      2.404568  
    1734A      2.405328  1735A      2.408800  1736A      2.408907  
    1737A      2.409488  1738A      2.424451  1739A      2.428454  
    1740A      2.430420  1741A      2.431897  1742A      2.440391  
    1743A      2.445900  1744A      2.446422  1745A      2.449741  
    1746A      2.455353  1747A      2.474863  1748A      2.475029  
    1749A      2.476254  1750A      2.478912  1751A      2.481084  
    1752A      2.481988  1753A      2.484878  1754A      2.487082  
    1755A      2.487694  1756A      2.489114  1757A      2.489707  
    1758A      2.490315  1759A      2.500281  1760A      2.508210  
    1761A      2.510868  1762A      2.515896  1763A      2.519221  
    1764A      2.522711  1765A      2.523571  1766A      2.525158  
    1767A      2.525672  1768A      2.529450  1769A      2.529819  
    1770A      2.530441  1771A      2.535170  1772A      2.539669  
    1773A      2.540157  1774A      2.541818  1775A      2.550124  
    1776A      2.550720  1777A      2.551623  1778A      2.552694  
    1779A      2.556214  1780A      2.557552  1781A      2.560193  
    1782A      2.570365  1783A      2.579157  1784A      2.579697  
    1785A      2.581305  1786A      2.583795  1787A      2.585182  
    1788A      2.586455  1789A      2.589632  1790A      2.592917  
    1791A      2.595867  1792A      2.596561  1793A      2.598850  
    1794A      2.602342  1795A      2.606716  1796A      2.607751  
    1797A      2.609722  1798A      2.611030  1799A      2.617271  
    1800A      2.619585  1801A      2.623297  1802A      2.624883  
    1803A      2.625824  1804A      2.627479  1805A      2.628933  
    1806A      2.630170  1807A      2.631266  1808A      2.632202  
    1809A      2.634140  1810A      2.640159  1811A      2.642571  
    1812A      2.659728  1813A      2.665791  1814A      2.667359  
    1815A      2.668193  1816A      2.671357  1817A      2.671939  
    1818A      2.681524  1819A      2.690878  1820A      2.693325  
    1821A      2.699449  1822A      2.702566  1823A      2.709005  
    1824A      2.715513  1825A      2.716558  1826A      2.723478  
    1827A      2.731263  1828A      2.733926  1829A      2.734045  
    1830A      2.736224  1831A      2.736655  1832A      2.738816  
    1833A      2.748089  1834A      2.748755  1835A      2.749952  
    1836A      2.751719  1837A      2.753283  1838A      2.756651  
    1839A      2.760317  1840A      2.766076  1841A      2.768232  
    1842A      2.775743  1843A      2.777556  1844A      2.778990  
    1845A      2.780594  1846A      2.783638  1847A      2.788748  
    1848A      2.794574  1849A      2.798560  1850A      2.799463  
    1851A      2.801331  1852A      2.807022  1853A      2.808989  
    1854A      2.809936  1855A      2.812000  1856A      2.826990  
    1857A      2.827698  1858A      2.830335  1859A      2.846476  
    1860A      2.855660  1861A      2.857369  1862A      2.859178  
    1863A      2.868752  1864A      2.869891  1865A      2.874434  
    1866A      2.875205  1867A      2.901148  1868A      2.901831  
    1869A      2.905973  1870A      2.909980  1871A      2.914763  
    1872A      2.932637  1873A      2.935702  1874A      2.964453  
    1875A      2.965014  1876A      2.967562  1877A      2.977502  
    1878A      2.980444  1879A      2.984115  1880A      2.986420  
    1881A      2.988787  1882A      2.993405  1883A      2.994028  
    1884A      3.005856  1885A      3.009512  1886A      3.046074  
    1887A      3.048187  1888A      3.053304  1889A      3.054886  
    1890A      3.060308  1891A      3.067301  1892A      3.067852  
    1893A      3.072878  1894A      3.074418  1895A      3.082390  
    1896A      3.083045  1897A      3.088641  1898A      3.089188  
    1899A      3.092121  1900A      3.093281  1901A      3.094476  
    1902A      3.101268  1903A      3.101570  1904A      3.104328  
    1905A      3.113284  1906A      3.115062  1907A      3.116534  
    1908A      3.127008  1909A      3.133311  1910A      3.134640  
    1911A      3.160219  1912A      3.192206  1913A      3.198226  
    1914A      3.199366  1915A      3.199505  1916A      3.200478  
    1917A      3.202669  1918A      3.208279  1919A      3.209712  
    1920A      3.213863  1921A      3.214475  1922A      3.235952  
    1923A      3.237137  1924A      3.242086  1925A      3.247467  
    1926A      3.297064  1927A      3.297688  1928A      3.307146  
    1929A      3.350579  1930A      3.366895  1931A      3.373135  
    1932A      3.380911  1933A      3.388179  1934A      3.392709  
    1935A      3.401215  1936A      3.403161  1937A      3.405024  
    1938A      3.411243  1939A      3.420961  1940A      3.423213  
    1941A      3.426728  1942A      3.443511  1943A      3.457774  
    1944A      3.484189  1945A      3.499402  1946A      3.514495  
    1947A      3.522708  1948A      3.527059  1949A      3.540758  
    1950A      3.585882  1951A      3.590424  1952A      3.595793  
    1953A      3.610251  1954A      3.626382  1955A      3.643399  
    1956A      3.688768  1957A      3.692260  1958A      3.695170  
    1959A      3.703427  1960A      3.715952  1961A      3.730287  
    1962A      3.779973  1963A      3.783802  1964A      3.812673  
    1965A      3.813239  1966A      3.853809  1967A      3.867152  
    1968A      3.878955  1969A      3.883868  1970A      3.885312  
    1971A      3.896345  1972A      3.906287  1973A      3.914349  
    1974A      3.926557  1975A      3.957597  1976A      3.959587  
    1977A      4.024120  1978A      4.181132  1979A      4.251578  
    1980A      4.354976  

    Final Occupation by Irrep:
              A 
    DOCC [   326 ]
    NA   [   326 ]
    NB   [   326 ]

  @DF-RHF Final Energy: -3953.66112354801271

   => Energetics <=

    Nuclear Repulsion Energy =          18168.3248676567454822
    One-Electron Energy =              -41542.1921927961157053
    Two-Electron Energy =               19420.2062015913579671
    Total Energy =                      -3953.6611235480122559

Computation Completed


Properties will be evaluated at   0.000000,   0.000000,   0.000000 [a0]

Properties computed using the SCF density matrix


 Multipole Moments:

 ------------------------------------------------------------------------------------
     Multipole            Electronic (a.u.)      Nuclear  (a.u.)        Total (a.u.)
 ------------------------------------------------------------------------------------

 L = 1.  Multiply by 2.5417464519 to convert [e a0] to [Debye]
 Dipole X            :         -0.0044660            0.0004804           -0.0039855
 Dipole Y            :         -7.2529499            8.7122315            1.4592816
 Dipole Z            :         20.1779169          -26.0505485           -5.8726316
 Magnitude           :                                                    6.0512247

 ------------------------------------------------------------------------------------

*** tstop() called on n2cn1157 at Sat Jan 27 02:01:41 2024
Module time:
	user time   =   30010.73 seconds =     500.18 minutes
	system time =    1818.84 seconds =      30.31 minutes
	total time  =       6464 seconds =     107.73 minutes
Total time:
	user time   =   30010.73 seconds =     500.18 minutes
	system time =    1818.84 seconds =      30.31 minutes
	total time  =       6464 seconds =     107.73 minutes

  //>>>>>>>>>>>>>>>>>>>>>>>>>>>>>>>>>>>//
  //            Monomer A HF           //
  //<<<<<<<<<<<<<<<<<<<<<<<<<<<<<<<<<<<//

   => Libint2 <=

    Primary   basis highest AM E, G, H:  5, 4, 3
    Auxiliary basis highest AM E, G, H:  6, 5, 4
    Onebody   basis highest AM E, G, H:  6, 5, 4
    Solid Harmonics ordering:            gaussian

*** tstart() called on n2cn1157
*** at Sat Jan 27 02:01:41 2024

   => Loading Basis Set <=

    Name: JUN-CC-PVDZ
    Role: ORBITAL
    Keyword: BASIS
    atoms 1-2, 4-5, 10, 17-34, 41-53, 56-70, 73-89, 92-104, 109-119, 122-130 entry C          line   164 file /opt/software/pc2/EB-SW/software/PSI4/1.9-foss-2022a/share/psi4/basis/jun-cc-pvdz.gbs 
    atoms 3, 6                                                               entry N          line   198 file /opt/software/pc2/EB-SW/software/PSI4/1.9-foss-2022a/share/psi4/basis/jun-cc-pvdz.gbs 
    atoms 7-9, 11-16, 35-40, 54-55, 71-72, 90-91, 105-108, 120-121, 131-136  entry H          line    36 file /opt/software/pc2/EB-SW/software/PSI4/1.9-foss-2022a/share/psi4/basis/jun-cc-pvdz.gbs 


         ---------------------------------------------------------
                                   SCF
               by Justin Turney, Rob Parrish, Andy Simmonett
                          and Daniel G. A. Smith
                              RHF Reference
                       16 Threads,  61035 MiB Core
         ---------------------------------------------------------

  ==> Geometry <==

    Molecular point group: c1
    Full point group: C1

    Geometry (in Angstrom), charge = 1, multiplicity = 1:

       Center              X                  Y                   Z               Mass       
    ------------   -----------------  -----------------  -----------------  -----------------
         C            0.680062820275     1.308604348936    -5.465220310098    12.000000000000
         C           -0.680508179725     1.310632348936    -5.464836310098    12.000000000000
         N           -1.085639179725     1.311630348936    -4.146512310098    14.003074004430
[...]
    1591A      2.203825  1592A      2.205167  1593A      2.206684  
    1594A      2.207137  1595A      2.211218  1596A      2.212055  
    1597A      2.212521  1598A      2.217550  1599A      2.220160  
    1600A      2.220498  1601A      2.221584  1602A      2.222728  
    1603A      2.223452  1604A      2.225374  1605A      2.227401  
    1606A      2.228845  1607A      2.229708  1608A      2.232491  
    1609A      2.232761  1610A      2.234904  1611A      2.236233  
    1612A      2.236698  1613A      2.238483  1614A      2.239665  
    1615A      2.240446  1616A      2.244020  1617A      2.245944  
    1618A      2.248795  1619A      2.252612  1620A      2.255557  
    1621A      2.260416  1622A      2.262040  1623A      2.264813  
    1624A      2.268666  1625A      2.269350  1626A      2.270383  
    1627A      2.271575  1628A      2.274741  1629A      2.280676  
    1630A      2.284532  1631A      2.285223  1632A      2.292631  
    1633A      2.294301  1634A      2.296585  1635A      2.297596  
    1636A      2.303106  1637A      2.304436  1638A      2.307990  
    1639A      2.309764  1640A      2.318007  1641A      2.322923  
    1642A      2.323723  1643A      2.325681  1644A      2.327295  
    1645A      2.329675  1646A      2.330744  1647A      2.331224  
    1648A      2.332081  1649A      2.334342  1650A      2.335407  
    1651A      2.335991  1652A      2.339887  1653A      2.340878  
    1654A      2.342194  1655A      2.344529  1656A      2.345148  
    1657A      2.346360  1658A      2.346994  1659A      2.349188  
    1660A      2.349389  1661A      2.349936  1662A      2.358104  
    1663A      2.367975  1664A      2.372111  1665A      2.377517  
    1666A      2.382083  1667A      2.386161  1668A      2.387981  
    1669A      2.390848  1670A      2.394741  1671A      2.398078  
    1672A      2.398914  1673A      2.401759  1674A      2.410894  
    1675A      2.416260  1676A      2.419120  1677A      2.421223  
    1678A      2.425153  1679A      2.428620  1680A      2.434082  
    1681A      2.439838  1682A      2.443489  1683A      2.449492  
    1684A      2.453302  1685A      2.457780  1686A      2.458994  
    1687A      2.465625  1688A      2.466796  1689A      2.469307  
    1690A      2.470237  1691A      2.472292  1692A      2.472502  
    1693A      2.475290  1694A      2.491530  1695A      2.493140  
    1696A      2.499493  1697A      2.501582  1698A      2.503912  
    1699A      2.508221  1700A      2.510146  1701A      2.512450  
    1702A      2.516733  1703A      2.527092  1704A      2.537956  
    1705A      2.539749  1706A      2.540071  1707A      2.540451  
    1708A      2.543056  1709A      2.546257  1710A      2.546894  
    1711A      2.548734  1712A      2.550572  1713A      2.551168  
    1714A      2.554469  1715A      2.555867  1716A      2.557220  
    1717A      2.560545  1718A      2.564661  1719A      2.571678  
    1720A      2.571979  1721A      2.573712  1722A      2.582138  
    1723A      2.583430  1724A      2.586036  1725A      2.586881  
    1726A      2.587721  1727A      2.589629  1728A      2.590766  
    1729A      2.593386  1730A      2.594530  1731A      2.597400  
    1732A      2.602613  1733A      2.602947  1734A      2.613337  
    1735A      2.614449  1736A      2.615026  1737A      2.615859  
    1738A      2.618953  1739A      2.621534  1740A      2.633684  
    1741A      2.642063  1742A      2.643960  1743A      2.644583  
    1744A      2.645303  1745A      2.646353  1746A      2.649434  
    1747A      2.650809  1748A      2.654068  1749A      2.657163  
    1750A      2.658075  1751A      2.659959  1752A      2.666505  
    1753A      2.668252  1754A      2.670382  1755A      2.671412  
    1756A      2.671940  1757A      2.674730  1758A      2.676109  
    1759A      2.678812  1760A      2.681584  1761A      2.684719  
    1762A      2.688133  1763A      2.689452  1764A      2.691666  
    1765A      2.691936  1766A      2.693177  1767A      2.694537  
    1768A      2.696602  1769A      2.698349  1770A      2.705209  
    1771A      2.708629  1772A      2.715176  1773A      2.720298  
    1774A      2.725144  1775A      2.730831  1776A      2.731558  
    1777A      2.731907  1778A      2.733385  1779A      2.736117  
    1780A      2.740175  1781A      2.757546  1782A      2.761277  
    1783A      2.765350  1784A      2.777138  1785A      2.781322  
    1786A      2.781894  1787A      2.782792  1788A      2.787123  
    1789A      2.791098  1790A      2.799020  1791A      2.800590  
    1792A      2.800865  1793A      2.802698  1794A      2.803085  
    1795A      2.805721  1796A      2.816064  1797A      2.816713  
    1798A      2.817812  1799A      2.819719  1800A      2.820350  
    1801A      2.821299  1802A      2.832181  1803A      2.839231  
    1804A      2.841193  1805A      2.843698  1806A      2.844174  
    1807A      2.845225  1808A      2.848075  1809A      2.865444  
    1810A      2.866702  1811A      2.867412  1812A      2.871942  
    1813A      2.873377  1814A      2.876605  1815A      2.896198  
    1816A      2.897107  1817A      2.910491  1818A      2.917138  
    1819A      2.919945  1820A      2.922613  1821A      2.928442  
    1822A      2.929403  1823A      2.933570  1824A      2.935140  
    1825A      2.936121  1826A      2.937132  1827A      2.956394  
    1828A      2.964352  1829A      2.966627  1830A      2.968602  
    1831A      2.972749  1832A      2.977402  1833A      2.994291  
    1834A      2.995760  1835A      3.000127  1836A      3.011554  
    1837A      3.031381  1838A      3.033209  1839A      3.040596  
    1840A      3.043687  1841A      3.044437  1842A      3.048954  
    1843A      3.052018  1844A      3.057006  1845A      3.059000  
    1846A      3.061749  1847A      3.065713  1848A      3.073878  
    1849A      3.088234  1850A      3.102631  1851A      3.109652  
    1852A      3.114496  1853A      3.114917  1854A      3.125001  
    1855A      3.128253  1856A      3.131695  1857A      3.132435  
    1858A      3.138840  1859A      3.142054  1860A      3.144872  
    1861A      3.145579  1862A      3.152144  1863A      3.154688  
    1864A      3.156152  1865A      3.159104  1866A      3.160409  
    1867A      3.162554  1868A      3.168562  1869A      3.174051  
    1870A      3.177070  1871A      3.178096  1872A      3.187871  
    1873A      3.195291  1874A      3.196563  1875A      3.221083  
    1876A      3.255019  1877A      3.261375  1878A      3.262417  
    1879A      3.263565  1880A      3.264637  1881A      3.267048  
    1882A      3.271296  1883A      3.272370  1884A      3.276505  
    1885A      3.276902  1886A      3.299794  1887A      3.301220  
    1888A      3.303077  1889A      3.306847  1890A      3.310853  
    1891A      3.345826  1892A      3.363491  1893A      3.364056  
    1894A      3.374230  1895A      3.402523  1896A      3.417947  
    1897A      3.432272  1898A      3.440352  1899A      3.453094  
    1900A      3.458518  1901A      3.460498  1902A      3.467142  
    1903A      3.470999  1904A      3.473601  1905A      3.477118  
    1906A      3.485622  1907A      3.490410  1908A      3.494641  
    1909A      3.508170  1910A      3.510965  1911A      3.525534  
    1912A      3.548514  1913A      3.556217  1914A      3.581628  
    1915A      3.583795  1916A      3.591488  1917A      3.595667  
    1918A      3.636925  1919A      3.653030  1920A      3.655578  
    1921A      3.658847  1922A      3.678887  1923A      3.692148  
    1924A      3.709667  1925A      3.755229  1926A      3.757418  
    1927A      3.761023  1928A      3.764955  1929A      3.770221  
    1930A      3.779184  1931A      3.794684  1932A      3.832061  
    1933A      3.844939  1934A      3.848827  1935A      3.875999  
    1936A      3.876441  1937A      3.879590  1938A      3.918738  
    1939A      3.931960  1940A      3.943806  1941A      3.949346  
    1942A      3.949819  1943A      3.960344  1944A      3.975853  
    1945A      3.981222  1946A      3.993039  1947A      4.024907  
    1948A      4.025133  1949A      4.027799  1950A      4.092648  
    1951A      4.226437  1952A      4.252726  1953A      4.255407  
    1954A      4.329529  1955A      4.410551  1956A      4.423638  
    1957A      4.435411  1958A      4.513719  1959A      4.790303  
    1960A      4.849572  1961A      4.874389  1962A      4.891347  
    1963A      4.970054  1964A      5.081920  1965A      5.088238  
    1966A      5.094738  1967A      5.133020  1968A      5.216916  
    1969A      5.415569  1970A      5.440195  1971A      5.764012  
    1972A      5.788773  1973A      6.078652  1974A     18.205498  
    1975A     18.483506  1976A     18.506983  1977A     18.588038  
    1978A     18.854290  1979A     25.355866  1980A     25.390758  

    Final Occupation by Irrep:
              A 
    DOCC [   300 ]
    NA   [   300 ]
    NB   [   300 ]

  @DF-RHF Final Energy: -3650.34096848240733

   => Energetics <=

    Nuclear Repulsion Energy =          15611.4211649754306563
    One-Electron Energy =              -36072.1759336126633571
    Two-Electron Energy =               16810.4138001548271859
    Total Energy =                      -3650.3409684824073338

Computation Completed


Properties will be evaluated at   0.000000,   0.000000,   0.000000 [a0]

Properties computed using the SCF density matrix


 Multipole Moments:

 ------------------------------------------------------------------------------------
     Multipole            Electronic (a.u.)      Nuclear  (a.u.)        Total (a.u.)
 ------------------------------------------------------------------------------------

 L = 1.  Multiply by 2.5417464519 to convert [e a0] to [Debye]
 Dipole X            :         -0.0008273            0.0002112           -0.0006161
 Dipole Y            :        123.2193096         -123.2131634            0.0061462
 Dipole Z            :       -397.6426716          397.6494161            0.0067445
 Magnitude           :                                                    0.0091457

 ------------------------------------------------------------------------------------

*** tstop() called on n2cn1157 at Sat Jan 27 03:47:45 2024
Module time:
	user time   =   19596.64 seconds =     326.61 minutes
	system time =    1340.11 seconds =      22.34 minutes
	total time  =       3696 seconds =      61.60 minutes
Total time:
	user time   =   55069.70 seconds =     917.83 minutes
	system time =    3718.89 seconds =      61.98 minutes
	total time  =      12828 seconds =     213.80 minutes
  Constructing Basis Sets for SAPT...

   => Loading Basis Set <=

    Name: (JUN-CC-PVDZ AUX)
    Role: RIFIT
    Keyword: DF_BASIS_SAPT
    atoms 1-2, 4-5, 10, 17-34, 41-53, 56-70, 73-89, 92-104, 109-119, 122-130 entry C          line   100 file /opt/software/pc2/EB-SW/software/PSI4/1.9-foss-2022a/share/psi4/basis/jun-cc-pvdz-ri.gbs 
    atoms 3, 6                                                               entry N          line   144 file /opt/software/pc2/EB-SW/software/PSI4/1.9-foss-2022a/share/psi4/basis/jun-cc-pvdz-ri.gbs 
    atoms 7-9, 11-16, 35-40, 54-55, 71-72, 90-91, 105-108, 120-121, 131-136  entry H          line    30 file /opt/software/pc2/EB-SW/software/PSI4/1.9-foss-2022a/share/psi4/basis/jun-cc-pvdz-ri.gbs 

   => Loading Basis Set <=

    Name: (JUN-CC-PVDZ AUX)
    Role: JKFIT
    Keyword: DF_BASIS_ELST
    atoms 1-2, 4-5, 10, 17-34, 41-53, 56-70, 73-89, 92-104, 109-119, 122-130 entry C          line   146 file /opt/software/pc2/EB-SW/software/PSI4/1.9-foss-2022a/share/psi4/basis/jun-cc-pvdz-jkfit.gbs 
    atoms 3, 6                                                               entry N          line   202 file /opt/software/pc2/EB-SW/software/PSI4/1.9-foss-2022a/share/psi4/basis/jun-cc-pvdz-jkfit.gbs 
    atoms 7-9, 11-16, 35-40, 54-55, 71-72, 90-91, 105-108, 120-121, 131-136  entry H          line    70 file /opt/software/pc2/EB-SW/software/PSI4/1.9-foss-2022a/share/psi4/basis/jun-cc-pvdz-jkfit.gbs 


  //>>>>>>>>>>>>>>>>>>>>>>>>>>>>>>>>>>>//
  //               SSAPT0              //
  //<<<<<<<<<<<<<<<<<<<<<<<<<<<<<<<<<<<//


*** tstart() called on n2cn1157
*** at Sat Jan 27 03:47:46 2024

        SAPT0  
    Ed Hohenstein
     6 June 2009

      Orbital Information
  --------------------------
    NSO        =      2019
    NMO        =      1980
    NRI        =      7157
    NRI (Elst) =      8896
    NOCC A     =        26
    NOCC B     =       300
    FOCC A     =         7
    FOCC B     =        96
    NVIR A     =      1954
    NVIR B     =      1680

    Elst10,r            =    -0.013600658991 [Eh]
    Exch10              =     0.006272730847 [Eh]
    Exch10 (S^2)        =     0.006260334643 [Eh]

    Iter     Energy [mEh]          dE [mEh]         Residual      Time [s]
       1      -0.30292734       0.302927336       2.514910097           372
       2      -0.34418245       0.041255109       0.960411888           685
       3      -0.35829658       0.014114131       0.109677944          1048
       4      -0.35782332      -0.000473256       0.036081877          1354
       5      -0.35771964      -0.000103683       0.012240626          1638
       6      -0.35777277       0.000053139       0.004866149          2080
       7      -0.35777561       0.000002833       0.001835650          2388
       8      -0.35777138      -0.000004224       0.000586126          2759
       9      -0.35777045      -0.000000930       0.000144531          3006
      10      -0.35777075       0.000000298       0.000052147          3373
      11      -0.35777086       0.000000108       0.000015498          3742
      12      -0.35777084      -0.000000016       0.000005421          4073
      13      -0.35777083      -0.000000012       0.000001214          4447
      14      -0.35777083       0.000000001       0.000000422          4737

    CHF Iterations converged


    Iter     Energy [mEh]          dE [mEh]         Residual      Time [s]
       1     -20.44032827      20.440328265      76.007516533           371
       2     -13.62237938      -6.817948883       9.995714180           759
       3     -13.67983934       0.057459958       3.884619463          1172
       4     -14.03615164       0.356312299       1.185331671          1561
       5     -14.07299393       0.036842286       0.448984332          1929
       6     -14.06130965      -0.011684279       0.287926870          2303
       7     -14.05360947      -0.007700174       0.118044875          2636
       8     -14.05511604       0.001506567       0.058476281          2966
       9     -14.05669727       0.001581234       0.024548879          3271
      10     -14.05647391      -0.000223361       0.021981296          3714
      11     -14.05613351      -0.000340401       0.013291889          4162
      12     -14.05615818       0.000024668       0.008097076          4611
      13     -14.05628575       0.000127572       0.003942086          5081
      14     -14.05629909       0.000013340       0.002153266          5505
      15     -14.05627630      -0.000022795       0.001122402          5975
      16     -14.05626418      -0.000012114       0.000407245          6403
      17     -14.05626980       0.000005613       0.000199246          6832
      18     -14.05627239       0.000002596       0.000111327          7202
      19     -14.05627168      -0.000000707       0.000080816          7507
      20     -14.05627049      -0.000001190       0.000040068          7757
      21     -14.05627071       0.000000219       0.000020362          7983
      22     -14.05627098       0.000000272       0.000008316          8227
      23     -14.05627098      -0.000000005       0.000003802          8441
      24     -14.05627093      -0.000000047       0.000002166          8700
      25     -14.05627092      -0.000000010       0.000001187          8984
      26     -14.05627094       0.000000013       0.000000655          9322

    CHF Iterations converged

    Ind20,r (A<-B)      =    -0.000357770832 [Eh]
    Ind20,r (B<-A)      =    -0.014056270935 [Eh]
    Ind20,r             =    -0.014414041768 [Eh]
    Exch-Ind20,r (A<-B) =     0.000323361411 [Eh]
    Exch-Ind20,r (B<-A) =     0.001207066450 [Eh]
    Exch-Ind20,r        =     0.001530427861 [Eh]
    Disp20              =    -0.016397545518 [Eh]
    Disp20 (SS)         =    -0.008198772759 [Eh]
    Disp20 (OS)         =    -0.008198772759 [Eh]
    Exch-Disp20         =     0.000570086118 [Eh]
    Exch-Disp20 (SS)    =     0.000356858419 [Eh]
    Exch-Disp20 (OS)    =     0.000213227699 [Eh]

    SAPT Results 
  --------------------------------------------------------------------------------------------------------
    Electrostatics                -13.60065899 [mEh]      -8.53454237 [kcal/mol]     -35.70852526 [kJ/mol]
      Elst10,r                    -13.60065899 [mEh]      -8.53454237 [kcal/mol]     -35.70852526 [kJ/mol]

    Exchange                        6.27273085 [mEh]       3.93619803 [kcal/mol]      16.46905257 [kJ/mol]
      Exch10                        6.27273085 [mEh]       3.93619803 [kcal/mol]      16.46905257 [kJ/mol]
      Exch10(S^2)                   6.26033464 [mEh]       3.92841930 [kcal/mol]      16.43650634 [kJ/mol]

    Induction                     -14.69978443 [mEh]      -9.22425399 [kcal/mol]     -38.59427871 [kJ/mol]
      Ind20,r                     -14.41404177 [mEh]      -9.04494776 [kcal/mol]     -37.84406145 [kJ/mol]
      Exch-Ind20,r                  1.53042786 [mEh]       0.96035798 [kcal/mol]       4.01813779 [kJ/mol]
      delta HF,r (2)               -1.81617052 [mEh]      -1.13966421 [kcal/mol]      -4.76835505 [kJ/mol]

    Dispersion                    -15.82745940 [mEh]      -9.93188072 [kcal/mol]     -41.55498893 [kJ/mol]
      Disp20                      -16.39754552 [mEh]     -10.28961516 [kcal/mol]     -43.05174982 [kJ/mol]
      Exch-Disp20                   0.57008612 [mEh]       0.35773444 [kcal/mol]       1.49676090 [kJ/mol]
      Disp20 (SS)                  -8.19877276 [mEh]      -5.14480758 [kcal/mol]     -21.52587491 [kJ/mol]
      Disp20 (OS)                  -8.19877276 [mEh]      -5.14480758 [kcal/mol]     -21.52587491 [kJ/mol]
      Exch-Disp20 (SS)              0.35685842 [mEh]       0.22393204 [kcal/mol]       0.93693165 [kJ/mol]
      Exch-Disp20 (OS)              0.21322770 [mEh]       0.13380240 [kcal/mol]       0.55982925 [kJ/mol]

  Total HF                        -22.02771257 [mEh]     -13.82259833 [kcal/mol]     -57.83375140 [kJ/mol]
  Total SAPT0                     -37.85517197 [mEh]     -23.75447904 [kcal/mol]     -99.38874032 [kJ/mol]

  Special recipe for scaled SAPT0 (see Manual):
    Electrostatics sSAPT0         -13.60065899 [mEh]      -8.53454237 [kcal/mol]     -35.70852526 [kJ/mol]
    Exchange sSAPT0                 6.27273085 [mEh]       3.93619803 [kcal/mol]      16.46905257 [kJ/mol]
    Induction sSAPT0              -14.69067513 [mEh]      -9.21853782 [kcal/mol]     -38.57036225 [kJ/mol]
    Dispersion sSAPT0             -15.82406617 [mEh]      -9.92975144 [kcal/mol]     -41.54608002 [kJ/mol]
  Total sSAPT0                    -37.84266945 [mEh]     -23.74663359 [kcal/mol]     -99.35591495 [kJ/mol]
  --------------------------------------------------------------------------------------------------------

*** tstop() called on n2cn1157 at Sat Jan 27 16:58:46 2024
Module time:
	user time   =   73551.83 seconds =    1225.86 minutes
	system time =    4118.70 seconds =      68.64 minutes
	total time  =      47460 seconds =     791.00 minutes
Total time:
	user time   =  128623.10 seconds =    2143.72 minutes
	system time =    7837.60 seconds =     130.63 minutes
	total time  =      60289 seconds =    1004.82 minutes

    Psi4 stopped on: Saturday, 27 January 2024 04:58PM
    Psi4 wall time for execution: 16:44:50.38

*** Psi4 exiting successfully. Buy a developer a beer!
