
    -----------------------------------------------------------------------
          Psi4: An Open-Source Ab Initio Electronic Structure Package
                               Psi4 1.9 release

                         Git: Rev {} zzzzzzz 


    D. G. A. Smith, L. A. Burns, A. C. Simmonett, R. M. Parrish,
    M. C. Schieber, R. Galvelis, P. Kraus, H. Kruse, R. Di Remigio,
    A. Alenaizan, A. M. James, S. Lehtola, J. P. Misiewicz, M. Scheurer,
    R. A. Shaw, J. B. Schriber, Y. Xie, Z. L. Glick, D. A. Sirianni,
    J. S. O'Brien, J. M. Waldrop, A. Kumar, E. G. Hohenstein,
    B. P. Pritchard, B. R. Brooks, H. F. Schaefer III, A. Yu. Sokolov,
    K. Patkowski, A. E. DePrince III, U. Bozkaya, R. A. King,
    F. A. Evangelista, J. M. Turney, T. D. Crawford, C. D. Sherrill,
    J. Chem. Phys. 152(18) 184108 (2020). https://doi.org/10.1063/5.0006002

                            Additional Code Authors
    E. T. Seidl, C. L. Janssen, E. F. Valeev, M. L. Leininger,
    J. F. Gonthier, R. M. Richard, H. R. McAlexander, M. Saitow, X. Wang,
    P. Verma, M. H. Lechner, A. Jiang, S. Behnle, A. G. Heide,
    M. F. Herbst, and D. L. Poole

             Previous Authors, Complete List of Code Contributors,
                       and Citations for Specific Modules
    https://github.com/psi4/psi4/blob/master/codemeta.json
    https://github.com/psi4/psi4/graphs/contributors
    http://psicode.org/psi4manual/master/introduction.html#citing-psifour

    -----------------------------------------------------------------------


    Psi4 started on: Saturday, 27 January 2024 12:14AM

    Process ID: 227213
    Host:       n2cn0577
    PSIDATADIR: /opt/software/pc2/EB-SW/software/PSI4/1.9-foss-2022a/share/psi4
    Memory:     500.0 MiB
    Threads:    16
    
  ==> Input File <==

--------------------------------------------------------------------------
memory 64 GB # how much memory is available ! Depends on the nodes/cores !

molecule dimer {
# monomer A
+1 1    # Charge and multiplicity
C  0.680067 1.417258  -9.215929
C -0.680504 1.419286  -9.215545
N -1.085635 1.420284  -7.897221
C  0.000108 1.423560  -7.115820
C -2.477365 1.469690  -7.429242
N  1.085222 1.420284  -7.897221
H  1.385146 1.409430 -10.033368
H -1.385302 1.419096 -10.033214
H -0.000009 1.425307  -6.034731
C  2.478117 1.403392  -7.432123
H  2.490592 1.430737  -6.341870
H  2.967028 0.489946  -7.779299
H  3.001428 2.278875  -7.823595
H -2.857359 2.491761  -7.509201
H -3.082679 0.799606  -8.042306
H -2.518128 1.142706  -6.389294
--
# monomer B
0 1     # Charge and multiplicity
C   -3.66844126402057      7.80375217008252      0.00190004133558
C   -4.84759871934653      7.13124183134024     -0.00046653359696
C   -4.89495929917518      5.69633040353158     -0.00103944469517
C   -3.65374067877320      4.98073034095895      0.00662099703436
C   -2.40942512149445      7.11398103667468      0.00209438359570
C   -2.42547734410473      5.68112195090346     -0.00491050527438
C   -1.19474401643570      7.78614419430947      0.00356656413763
C   0.03795902893699      7.09942164575698      0.00139585983271
C   0.03033258741920      5.66948955970466     -0.00408752508301
C   -1.20098450790502      4.96927034791531      0.00488220885047
C   1.27795782581485      7.77285944319479      0.00277170839332
C   2.48535808472416      7.08769688523756      0.00049722048857
C   2.48612868491717      5.65477081024076     -0.00644052849921
C   1.25408291964399      4.95607811366431      0.00518741308898
C   3.75171459140595      7.76391215098033      0.00062407186893
C   4.92356605618520      7.07878077698995     -0.00143240883900
C   4.95560727132542      5.64344746336949     -0.00159282164606
C   3.70680153420475      4.94121020833308      0.00349873852374
H   -3.65852113775815      8.89082741913536      0.00358502958574
H   -1.18921332975660      8.87412108735996      0.00753844057883
H   1.28429423888630      8.86083343548850      0.00693053253426
H   3.75354208679975      8.85103527897216      0.00214659618464
H   5.86995870320703      7.61379483465560     -0.00235777588134
H   -5.78823170750226      7.67630221293400     -0.00202638095293
C   -6.09197395869619      4.99326001364347     -0.00291168518608
C   -6.12866148031747      3.58258016879823     -0.00171050815740
C   -3.66457974004527      3.56418217974434     -0.00463560277484
C   -4.89429820469869      2.86108077590057      0.00453338221034
C   -2.43733499489796      2.84761165708481      0.00719617576166
C   -1.20922785759670      3.54788693497833     -0.00648285103018
C   1.24714157216223      3.53468075142962     -0.00729145743546
C   0.01517603956900      2.83311183930540      0.00439272578912
C   2.46764517244071      2.82128997725533      0.00449278391269
C   3.70254947457969      3.52466015442405     -0.00899517692985
C   6.14498038638375      4.92757236613191     -0.00282626685777
C   6.16658835886151      3.51658447594213     -0.00065971342101
C   4.92460995845939      2.80840792535402      0.00587903281610
H   7.08990550964105      5.46688776622306     -0.00658814770723
H   -7.03104175110130      5.54268795285765     -0.00714490013730
C   -7.33969804112295      2.85841153457957     -0.00333767559888
C   -7.36488195805880      1.47032337158330     -0.00157213747140
C   -4.90350460894690      1.44442681216000     -0.00628840166334
C   -6.13225715261081      0.73993935705394      0.00600164231964
C   -3.67687480051673      0.72669714267312      0.00433931473643
C   -2.44565658606518      1.42964113326212     -0.00597039546461
C   -1.22360068130162      0.71532450163492      0.00545886906656
C   0.00763786931376      1.41738314923765      0.00392452278437
C   1.23121980774686      0.70211669058719     -0.01490206287210
C   2.46082110053113      1.40329203612573      0.00460244601878
C   3.68443025419614      0.68719842821222      0.00377365974158
C   4.91870890153864      1.39173456118907     -0.00862816189375
C   7.36980207796101      2.77948220318441     -0.00242013321349
C   7.38016266612146      1.39121750785509     -0.00087345036788
C   6.13979953912259      0.67411862320065      0.00545489144369
H   -8.27919079934664      3.40711804112415     -0.00763522772059
H   8.31511347147953      3.31811809662368     -0.00663070901292
C   -8.59175593758115      0.72483255304480     -0.00123170985383
C   -8.59902460370342     -0.63263980622873      0.00089141472904
C   -6.13981313911873     -0.67413663715361     -0.00609792660607
C   -7.38018411213749     -1.39126618958160      0.00131813493501
C   -4.91868448025621     -1.39175501803000      0.00624257154343
C   -3.68443829568458     -0.68723731573599     -0.00478966852105
C   -2.46081704024768     -1.40334517882457      0.00575341766833
C   -1.23116201232071     -0.70217386488055     -0.00636696112346
C   -0.00756962538737     -1.41741884941102      0.00108956317991
C   1.22364771588843     -0.71527537726392      0.01109518512883
C   2.44567064933149     -1.42964328900682     -0.00065482763106
C   3.67686670284649     -0.72670743155550     -0.00479541202602
C   6.13224884641929     -0.73997883984993     -0.00632338623858
C   4.90351914550401     -1.44445752054090      0.00751768830159
C   8.59901484869081      0.63260386666793     -0.00101133422380
C   8.59174548810050     -0.72485086719319      0.00072504603735
C   7.36486276438985     -1.47033266560598      0.00049486934466
H   -9.52830597181814      1.27684744919284     -0.00270163681798
H   9.54141097460619      1.17457248844457     -0.00206336648518
C   -7.36983790976868     -2.77954514593389      0.00312634335708
C   -4.92459910905015     -2.80843725734101     -0.00460528907921
C   -6.16662249566744     -3.51665219282533      0.00169655107992
C   -3.70251035970491     -3.52468154912026      0.00571878010666
C   -2.46764698511392     -2.82132596280400     -0.00632585824990
C   -0.01513347410770     -2.83314164539971     -0.00604426974092
C   -1.24712184122656     -3.53473217556300      0.00551968366725
C   1.20924506964357     -3.54791467864352      0.00805871345849
C   2.43733602215464     -2.84764173817541     -0.00608104485234
C   4.89430234377080     -2.86112296828604     -0.00526030478103
C   3.66461525504104     -3.56421984553201      0.00761911515957
C   6.12863901474565     -3.58258405771778      0.00096495711699
C   7.33967266469532     -2.85841330737039      0.00248018319869
H   -9.54144911125902     -1.17456346666430      0.00226083090216
H   9.52826186807155     -1.27691907390448      0.00197485379837
H   -8.31516504384864     -3.31814985321231      0.00729857188773
H   8.27915514249207     -3.40714078989363      0.00681973918158
C   -6.14499418870218     -4.92764727278338      0.00302254913999
C   -3.70678334799751     -4.94126171411716     -0.00679841894792
C   -4.95559005800169     -5.64349397349412      0.00116871569699
C   -2.48612132622665     -5.65478557440947      0.00614125209662
C   -1.25405833548005     -4.95612205000132     -0.00503435388927
C   1.20101257386816     -4.96928038819302     -0.00385322963129
C   -0.03033667441341     -5.66952030313900      0.00398997003238
C   3.65375010132847     -4.98074377541453     -0.00309522988330
C   2.42549269587528     -5.68117463552727      0.00628170066869
C   6.09196561781097     -4.99325796338655      0.00325918379042
C   4.89497644461045     -5.69634842095790      0.00202298796027
H   -7.08989238804069     -5.46699984223871      0.00742531082125
H   7.03105520920009     -5.54265853633254      0.00683896355417
C   -4.92354532219813     -7.07882109967734      0.00061394679214
C   -2.48534208823777     -7.08772807792913     -0.00189594564379
C   -3.75168589177895     -7.76394715763627     -0.00170126671874
C   -0.03794895698805     -7.09946487446944     -0.00168022049625
C   -1.27795610040136     -7.77290438466689     -0.00366491325785
C   2.40944432072629     -7.11402201200282     -0.00081701968533
C   1.19474993715296     -7.78618536556242     -0.00296931056689
C   4.84762105249800     -7.13126211057943      0.00168979497423
C   3.66847160587561     -7.80378799294376     -0.00065863938960
H   -5.86994035041618     -7.61383059804164      0.00215798365757
H   5.78824962538815     -7.67633218931421      0.00281691445618
H   -3.75352693944918     -8.85107156923607     -0.00353718114765
H   -1.28430440589466     -8.86087539249706     -0.00809229711623
H   1.18922157469537     -8.87416062058945     -0.00706194725726
H   3.65854661482387     -8.89086063405326     -0.00231318081200

    units angstrom      # Angstroms are the default
    no_reorient         # Geometry fixed, default
    symmetry c1         # C1 symmetry, default
}

set {
    scf_type DF         # Density fitting, faster than exact integrals
    freeze_core True    # Freeze core electrons
    basis jun-cc-pVDZ   # Jun-cc-pVDZ basis set, recommended for sSAPT0 in https://doi.org/10.1063/1.4867135
}

energy('ssapt0')        # Compute sSAPT0 energy, includes also SAPT0
--------------------------------------------------------------------------

  Memory set to  59.605 GiB by Python driver.

Scratch directory: /tmp/
   => Loading Basis Set <=

    Name: JUN-CC-PVDZ
    Role: ORBITAL
    Keyword: BASIS
    atoms 1-2, 4-5, 10, 17-34, 41-53, 56-70, 73-89, 92-104, 109-119, 122-130 entry C          line   164 file /opt/software/pc2/EB-SW/software/PSI4/1.9-foss-2022a/share/psi4/basis/jun-cc-pvdz.gbs 
    atoms 3, 6                                                               entry N          line   198 file /opt/software/pc2/EB-SW/software/PSI4/1.9-foss-2022a/share/psi4/basis/jun-cc-pvdz.gbs 
    atoms 7-9, 11-16, 35-40, 54-55, 71-72, 90-91, 105-108, 120-121, 131-136  entry H          line    36 file /opt/software/pc2/EB-SW/software/PSI4/1.9-foss-2022a/share/psi4/basis/jun-cc-pvdz.gbs 

   => Loading Basis Set <=

    Name: JUN-CC-PVDZ
    Role: ORBITAL
    Keyword: BASIS
    atoms 1-2, 4-5, 10, 17-34, 41-53, 56-70, 73-89, 92-104, 109-119, 122-130 entry C          line   164 file /opt/software/pc2/EB-SW/software/PSI4/1.9-foss-2022a/share/psi4/basis/jun-cc-pvdz.gbs 
    atoms 3, 6                                                               entry N          line   198 file /opt/software/pc2/EB-SW/software/PSI4/1.9-foss-2022a/share/psi4/basis/jun-cc-pvdz.gbs 
    atoms 7-9, 11-16, 35-40, 54-55, 71-72, 90-91, 105-108, 120-121, 131-136  entry H          line    36 file /opt/software/pc2/EB-SW/software/PSI4/1.9-foss-2022a/share/psi4/basis/jun-cc-pvdz.gbs 


  //>>>>>>>>>>>>>>>>>>>>>>>>>>>>>>>>>>>//
  //              Dimer HF             //
  //<<<<<<<<<<<<<<<<<<<<<<<<<<<<<<<<<<<//

   => Libint2 <=

    Primary   basis highest AM E, G, H:  5, 4, 3
    Auxiliary basis highest AM E, G, H:  6, 5, 4
    Onebody   basis highest AM E, G, H:  6, 5, 4
    Solid Harmonics ordering:            gaussian

*** tstart() called on n2cn0577
*** at Sat Jan 27 00:14:32 2024

   => Loading Basis Set <=

    Name: JUN-CC-PVDZ
    Role: ORBITAL
    Keyword: BASIS
    atoms 1-2, 4-5, 10, 17-34, 41-53, 56-70, 73-89, 92-104, 109-119, 122-130 entry C          line   164 file /opt/software/pc2/EB-SW/software/PSI4/1.9-foss-2022a/share/psi4/basis/jun-cc-pvdz.gbs 
    atoms 3, 6                                                               entry N          line   198 file /opt/software/pc2/EB-SW/software/PSI4/1.9-foss-2022a/share/psi4/basis/jun-cc-pvdz.gbs 
    atoms 7-9, 11-16, 35-40, 54-55, 71-72, 90-91, 105-108, 120-121, 131-136  entry H          line    36 file /opt/software/pc2/EB-SW/software/PSI4/1.9-foss-2022a/share/psi4/basis/jun-cc-pvdz.gbs 


         ---------------------------------------------------------
                                   SCF
               by Justin Turney, Rob Parrish, Andy Simmonett
                          and Daniel G. A. Smith
                              RHF Reference
                       16 Threads,  61035 MiB Core
         ---------------------------------------------------------

  ==> Geometry <==

    Molecular point group: c1
    Full point group: C1

    Geometry (in Angstrom), charge = 1, multiplicity = 1:

       Center              X                  Y                   Z               Mass       
    ------------   -----------------  -----------------  -----------------  -----------------
         C            0.680062820275     1.308604348936    -8.605996573113    12.000000000000
         C           -0.680508179725     1.310632348936    -8.605612573113    12.000000000000
         N           -1.085639179725     1.311630348936    -7.287288573113    14.003074004430
         C            0.000103820275     1.314906348936    -6.505887573113    12.000000000000
         C           -2.477369179725     1.361036348936    -6.819309573113    12.000000000000
         N            1.085217820275     1.311630348936    -7.287288573113    14.003074004430
         H            1.385141820275     1.300776348936    -9.423435573113     1.007825032230
         H           -1.385306179725     1.310442348936    -9.423281573113     1.007825032230
         H           -0.000013179725     1.316653348936    -5.424798573113     1.007825032230
         C            2.478112820275     1.294738348936    -6.822190573113    12.000000000000
         H            2.490587820275     1.322083348936    -5.731937573113     1.007825032230
         H            2.967023820275     0.381292348936    -7.169366573113     1.007825032230
         H            3.001423820275     2.170221348936    -7.213662573113     1.007825032230
         H           -2.857363179725     2.383107348936    -6.899268573113     1.007825032230
         H           -3.082683179725     0.690952348936    -7.432373573113     1.007825032230
         H           -2.518132179725     1.034052348936    -5.779361573113     1.007825032230
         C           -3.668445443746     7.695098519018     0.611832468223    12.000000000000
         C           -4.847602899072     7.022588180276     0.609465893290    12.000000000000
         C           -4.894963478901     5.587676752467     0.608892982192    12.000000000000
         C           -3.653744858499     4.872076689895     0.616553423921    12.000000000000
         C           -2.409429301220     7.005327385610     0.612026810483    12.000000000000
         C           -2.425481523830     5.572468299839     0.605021921613    12.000000000000
         C           -1.194748196161     7.677490543245     0.613498991025    12.000000000000
         C            0.037954849212     6.990767994693     0.611328286720    12.000000000000
         C            0.030328407694     5.560835908640     0.605844901804    12.000000000000
         C           -1.200988687630     4.860616696851     0.614814635737    12.000000000000
         C            1.277953646089     7.664205792130     0.612704135280    12.000000000000
         C            2.485353904999     6.979043234173     0.610429647376    12.000000000000
         C            2.486124505192     5.546117159176     0.603491898388    12.000000000000
         C            1.254078739919     4.847424462600     0.615119839976    12.000000000000
         C            3.751710411681     7.655258499916     0.610556498756    12.000000000000
         C            4.923561876460     6.970127125926     0.608500018048    12.000000000000
         C            4.955603091600     5.534793812305     0.608339605241    12.000000000000
         C            3.706797354479     4.832556557269     0.613431165411    12.000000000000
         H           -3.658525317484     8.782173768071     0.613517456473     1.007825032230
         H           -1.189217509482     8.765467436296     0.617470867466     1.007825032230
         H            1.284290059161     8.752179784424     0.616862959421     1.007825032230
         H            3.753537907074     8.742381627908     0.612079023072     1.007825032230
         H            5.869954523482     7.505141183591     0.607574651006     1.007825032230
         H           -5.788235887228     7.567648561870     0.607906045934     1.007825032230
         C           -6.091978138422     4.884606362579     0.607020741701    12.000000000000
         C           -6.128665660043     3.473926517734     0.608221918730    12.000000000000
         C           -3.664583919771     3.455528528680     0.605296824112    12.000000000000
         C           -4.894302384424     2.752427124836     0.614465809097    12.000000000000
         C           -2.437339174623     2.738958006020     0.617128602649    12.000000000000
         C           -1.209232037322     3.439233283914     0.603449575857    12.000000000000
         C            1.247137392437     3.426027100365     0.602640969452    12.000000000000
         C            0.015171859844     2.724458188241     0.614325152676    12.000000000000
         C            2.467640992715     2.712636326191     0.614425210800    12.000000000000
         C            3.702545294854     3.416006503360     0.600937249957    12.000000000000
         C            6.144976206658     4.818918715067     0.607106160029    12.000000000000
         C            6.166584179136     3.407930824878     0.609272713466    12.000000000000
         C            4.924605778734     2.699754274290     0.615811459703    12.000000000000
         H            7.089901329916     5.358234115159     0.603344279180     1.007825032230
         H           -7.031045930827     5.434034301793     0.602787526750     1.007825032230
         C           -7.339702220848     2.749757883515     0.606594751288    12.000000000000
         C           -7.364886137784     1.361669720519     0.608360289416    12.000000000000
         C           -4.903508788672     1.335773161096     0.603644025224    12.000000000000
         C           -6.132261332336     0.631285705989     0.615934069207    12.000000000000
         C           -3.676878980242     0.618043491609     0.614271741623    12.000000000000
         C           -2.445660765791     1.320987482198     0.603962031422    12.000000000000
         C           -1.223604861027     0.606670850570     0.615391295954    12.000000000000
         C            0.007633689588     1.308729498173     0.613856949671    12.000000000000
         C            1.231215628021     0.593463039523     0.595030364015    12.000000000000
         C            2.460816920806     1.294638385061     0.614534872906    12.000000000000
         C            3.684426074471     0.578544777148     0.613706086629    12.000000000000
         C            4.918704721813     1.283080910125     0.601304264993    12.000000000000
         C            7.369797898236     2.670828552120     0.607512293674    12.000000000000
         C            7.380158486396     1.282563856791     0.609058976519    12.000000000000
         C            6.139795359397     0.565464972136     0.615387318331    12.000000000000
         H           -8.279194979072     3.298464390060     0.602297199166     1.007825032230
         H            8.315109291754     3.209464445559     0.603301717874     1.007825032230
         C           -8.591760117307     0.616178901980     0.608700717033    12.000000000000
         C           -8.599028783429    -0.741293457293     0.610823841616    12.000000000000
         C           -6.139817318844    -0.782790288218     0.603834500281    12.000000000000
         C           -7.380188291863    -1.499919840646     0.611250561822    12.000000000000
         C           -4.918688659982    -1.500408669094     0.616174998430    12.000000000000
         C           -3.684442475410    -0.795890966800     0.605142758366    12.000000000000
         C           -2.460821219973    -1.511998829889     0.615685844555    12.000000000000
         C           -1.231166192046    -0.810827515945     0.603565465764    12.000000000000
         C           -0.007573805113    -1.526072500475     0.611021990067    12.000000000000
         C            1.223643536163    -0.823929028328     0.621027612016    12.000000000000
         C            2.445666469606    -1.538296940071     0.609277599256    12.000000000000
         C            3.676862523121    -0.835361082620     0.605137014861    12.000000000000
         C            6.132244666694    -0.848632490914     0.603609040648    12.000000000000
         C            4.903514965779    -1.553111171605     0.617450115189    12.000000000000
         C            8.599010668965     0.523950215603     0.608921092663    12.000000000000
         C            8.591741308375    -0.833504518258     0.610657472924    12.000000000000
         C            7.364858584664    -1.578986316670     0.610427296232    12.000000000000
         H           -9.528310151544     1.168193798128     0.607230790069     1.007825032230
         H            9.541406794881     1.065918837380     0.607869060402     1.007825032230
         C           -7.369842089494    -2.888198796998     0.613058770244    12.000000000000
         C           -4.924603288776    -2.917090908405     0.605327137808    12.000000000000
         C           -6.166626675393    -3.625305843890     0.611628977967    12.000000000000
         C           -3.702514539430    -3.633335200185     0.615651206994    12.000000000000
         C           -2.467651164839    -2.929979613868     0.603606568637    12.000000000000
         C           -0.015137653833    -2.941795296464     0.603888157146    12.000000000000
         C           -1.247126020952    -3.643385826627     0.615452110554    12.000000000000
         C            1.209240889918    -3.656568329708     0.617991140346    12.000000000000
         C            2.437331842429    -2.956295389240     0.603851382035    12.000000000000
         C            4.894298164045    -2.969776619350     0.604672122106    12.000000000000
         C            3.664611075316    -3.672873496596     0.617551542047    12.000000000000
         C            6.128634835020    -3.691237708782     0.610897384004    12.000000000000
         C            7.339668484970    -2.967066958435     0.612412610086    12.000000000000
         H           -9.541453290984    -1.283217117729     0.612193257789     1.007825032230
         H            9.528257688346    -1.385572724969     0.611907280685     1.007825032230
         H           -8.315169223574    -3.426803504277     0.617230998775     1.007825032230
         H            8.279150962767    -3.515794440958     0.616752166069     1.007825032230
         C           -6.144998368428    -5.036300923848     0.612954976027    12.000000000000
         C           -3.706787527723    -5.049915365182     0.603134007939    12.000000000000
         C           -4.955594237727    -5.752147624559     0.611101142584    12.000000000000
         C           -2.486125505952    -5.763439225474     0.616073678984    12.000000000000
         C           -1.254062515205    -5.064775701066     0.604898072998    12.000000000000
         C            1.201008394143    -5.077934039257     0.606079197256    12.000000000000
         C           -0.030340854139    -5.778173954203     0.613922396919    12.000000000000
         C            3.653745921603    -5.089397426479     0.606837197004    12.000000000000
         C            2.425488516150    -5.789828286592     0.616214127556    12.000000000000
         C            6.091961438086    -5.101911614451     0.613191610677    12.000000000000
         C            4.894972264885    -5.805002072022     0.611955414847    12.000000000000
         H           -7.089896567766    -5.575653493303     0.617357737708     1.007825032230
         H            7.031051029475    -5.651312187397     0.616771390441     1.007825032230
         C           -4.923549501924    -7.187474750742     0.610546373679    12.000000000000
         C           -2.485346267963    -7.196381728994     0.608036481243    12.000000000000
         C           -3.751690071504    -7.872600808701     0.608231160168    12.000000000000
         C           -0.037953136713    -7.208118525534     0.608252206391    12.000000000000
         C           -1.277960280127    -7.881558035731     0.606267513629    12.000000000000
         C            2.409440141001    -7.222675663067     0.609115407202    12.000000000000
         C            1.194745757428    -7.894839016627     0.606963116320    12.000000000000
         C            4.847616872773    -7.239915761644     0.611622221861    12.000000000000
         C            3.668467426150    -7.912441644008     0.609273787497    12.000000000000
         H           -5.869944530142    -7.722484249106     0.612090410545     1.007825032230
         H            5.788245445663    -7.784985840379     0.612749341343     1.007825032230
         H           -3.753531119175    -8.959725220301     0.606395245739     1.007825032230
         H           -1.284308585620    -8.969529043562     0.601840129771     1.007825032230
         H            1.189217394970    -8.982814271654     0.602870479630     1.007825032230
         H            3.658542435098    -8.999514285118     0.607619246075     1.007825032230

  Running in c1 symmetry.

  Rotational constants: A =      0.00056  B =      0.00056  C =      0.00035 [cm^-1]
  Rotational constants: A =     16.90731  B =     16.90352  C =     10.46703 [MHz]
  Nuclear repulsion = 17576.919618742515013

  Charge       = 1
  Multiplicity = 1
  Electrons    = 652
  Nalpha       = 326
  Nbeta        = 326

  ==> Algorithm <==

  SCF Algorithm Type is DF.
  DIIS enabled.
  MOM disabled.
  Fractional occupation disabled.
  Guess Type is SAD.
  Energy threshold   = 1.00e-08
  Density threshold  = 1.00e-08
  Integral threshold = 1.00e-12

  ==> Primary Basis <==

  Basis Set: JUN-CC-PVDZ
    Blend: JUN-CC-PVDZ
    Number of shells: 923
    Number of basis functions: 2019
    Number of Cartesian functions: 2122
    Spherical Harmonics?: true
    Max angular momentum: 2

   => Loading Basis Set <=

    Name: (JUN-CC-PVDZ AUX)
    Role: JKFIT
    Keyword: DF_BASIS_SCF
    atoms 1-2, 4-5, 10, 17-34, 41-53, 56-70, 73-89, 92-104, 109-119, 122-130 entry C          line   146 file /opt/software/pc2/EB-SW/software/PSI4/1.9-foss-2022a/share/psi4/basis/jun-cc-pvdz-jkfit.gbs 
    atoms 3, 6                                                               entry N          line   202 file /opt/software/pc2/EB-SW/software/PSI4/1.9-foss-2022a/share/psi4/basis/jun-cc-pvdz-jkfit.gbs 
    atoms 7-9, 11-16, 35-40, 54-55, 71-72, 90-91, 105-108, 120-121, 131-136  entry H          line    70 file /opt/software/pc2/EB-SW/software/PSI4/1.9-foss-2022a/share/psi4/basis/jun-cc-pvdz-jkfit.gbs 

  ==> Integral Setup <==

  ==> DiskDFJK: Density-Fitted J/K Matrices <==

    J tasked:                  Yes
    K tasked:                  Yes
    wK tasked:                  No
    OpenMP threads:             16
    Integrals threads:          16
    Memory [MiB]:            45776
    Algorithm:                Disk
    Integral Cache:           SAVE
    Schwarz Cutoff:          1E-12
    Fitting Condition:       1E-10

   => Auxiliary Basis Set <=

  Basis Set: (JUN-CC-PVDZ AUX)
    Blend: JUN-CC-PVDZ-JKFIT
    Number of shells: 3078
    Number of basis functions: 8896
    Number of Cartesian functions: 10198
    Spherical Harmonics?: true
    Max angular momentum: 3

  Minimum eigenvalue in the overlap matrix is 9.0361793842E-11.
  Reciprocal condition number of the overlap matrix is 3.9627656093E-12.
    Using canonical orthogonalization.
  Overall, 38 of 2019 possible MOs eliminated.


  ==> Pre-Iterations <==

  SCF Guess: Superposition of Atomic Densities via on-the-fly atomic UHF (no occupation information).

   -------------------------
    Irrep   Nso     Nmo    
   -------------------------
     A       2019    1981 
   -------------------------
    Total    2019    1981
   -------------------------

  ==> Iterations <==

                           Total Energy        Delta E     RMS |[F,P]|

   @DF-RHF iter SAD: -3967.13328532551077   -3.96713e+03   0.00000e+00 
   @DF-RHF iter   1: -3952.09806836228017    1.50352e+01   7.16196e-04 DIIS/ADIIS
   @DF-RHF iter   2: -3953.49333176000073   -1.39526e+00   2.33193e-04 DIIS/ADIIS
   @DF-RHF iter   3: -3953.61722456357938   -1.23893e-01   9.98919e-05 DIIS
   @DF-RHF iter   4: -3953.63951676586476   -2.22922e-02   4.16401e-05 DIIS
   @DF-RHF iter   5: -3953.64388565383797   -4.36889e-03   1.02107e-05 DIIS
   @DF-RHF iter   6: -3953.64431715971750   -4.31506e-04   4.59624e-06 DIIS
   @DF-RHF iter   7: -3953.64449952950463   -1.82370e-04   2.20498e-06 DIIS
   @DF-RHF iter   8: -3953.64456077352816   -6.12440e-05   1.10658e-06 DIIS
   @DF-RHF iter   9: -3953.64457810823706   -1.73347e-05   3.53409e-07 DIIS
   @DF-RHF iter  10: -3953.64457927756257   -1.16933e-06   1.44984e-07 DIIS
   @DF-RHF iter  11: -3953.64457942673107   -1.49168e-07   5.90685e-08 DIIS
   @DF-RHF iter  12: -3953.64457945914319   -3.24121e-08   2.92677e-08 DIIS
   @DF-RHF iter  13: -3953.64457946577568   -6.63249e-09   9.39096e-09 DIIS
  Energy and wave function converged.


  ==> Post-Iterations <==

    Orbital Energies [Eh]
    ---------------------

    Doubly Occupied:                                                      

       1A    -15.822966     2A    -15.822444     3A    -11.517687  
       4A    -11.449226     5A    -11.447671     6A    -11.437680  
       7A    -11.437578     8A    -11.317230     9A    -11.316583  
      10A    -11.316457    11A    -11.316125    12A    -11.315957  
      13A    -11.315911    14A    -11.315471    15A    -11.315246  
      16A    -11.315197    17A    -11.315128    18A    -11.314978  
      19A    -11.314732    20A    -11.314561    21A    -11.314472  
      22A    -11.314378    23A    -11.314220    24A    -11.314187  
      25A    -11.313833    26A    -11.313530    27A    -11.313527  
      28A    -11.313455    29A    -11.313372    30A    -11.313241  
      31A    -11.313135    32A    -11.313128    33A    -11.313008  
      34A    -11.312483    35A    -11.312475    36A    -11.312349  
      37A    -11.312297    38A    -11.312171    39A    -11.311726  
      40A    -11.311713    41A    -11.311704    42A    -11.311685  
      43A    -11.311645    44A    -11.311625    45A    -11.311250  
      46A    -11.311233    47A    -11.310906    48A    -11.310896  
      49A    -11.310713    50A    -11.310657    51A    -11.310640  
      52A    -11.310632    53A    -11.310587    54A    -11.310538  
      55A    -11.310351    56A    -11.310116    57A    -11.310097  
      58A    -11.310090    59A    -11.310067    60A    -11.309973  
      61A    -11.309954    62A    -11.309945    63A    -11.309931  
      64A    -11.309432    65A    -11.309405    66A    -11.309222  
      67A    -11.309035    68A    -11.309025    69A    -11.308702  
      70A    -11.308682    71A    -11.308538    72A    -11.308518  
      73A    -11.308434    74A    -11.308421    75A    -11.307950  
      76A    -11.307945    77A    -11.307614    78A    -11.307328  
      79A    -11.307305    80A    -11.303484    81A    -11.303405  
      82A    -11.303324    83A    -11.303298    84A    -11.302845  
      85A    -11.302819    86A    -11.302548    87A    -11.302513  
      88A    -11.301957    89A    -11.301941    90A    -11.301515  
      91A    -11.301485    92A    -11.301373    93A    -11.301348  
      94A    -11.300978    95A    -11.300968    96A    -11.300751  
      97A    -11.300669    98A    -11.300012    99A    -11.299982  
     100A    -11.299749   101A    -11.299744   102A    -11.298270  
     103A    -11.298266   104A     -1.566746   105A     -1.422237  
     106A     -1.305945   107A     -1.289941   108A     -1.289810  
     109A     -1.270650   110A     -1.270646   111A     -1.266413  
     112A     -1.250599   113A     -1.245511   114A     -1.238916  
     115A     -1.238822   116A     -1.227402   117A     -1.223141  
     118A     -1.223136   119A     -1.206131   120A     -1.206115  
     121A     -1.203303   122A     -1.193890   123A     -1.193880  
     124A     -1.178477   125A     -1.177584   126A     -1.165151  
     127A     -1.162986   128A     -1.162882   129A     -1.162244  
     130A     -1.160581   131A     -1.138231   132A     -1.138203  
     133A     -1.125962   134A     -1.125956   135A     -1.117772  
     136A     -1.117747   137A     -1.115357   138A     -1.107094  
     139A     -1.096380   140A     -1.096360   141A     -1.090039  
     142A     -1.087721   143A     -1.087718   144A     -1.075734  
     145A     -1.072411   146A     -1.072392   147A     -1.056865  
     148A     -1.056411   149A     -1.053299   150A     -1.050511  
     151A     -1.050503   152A     -1.039792   153A     -1.020813  
     154A     -1.020806   155A     -1.011289   156A     -1.005047  
     157A     -1.005037   158A     -0.985345   159A     -0.956433  
     160A     -0.956355   161A     -0.955429   162A     -0.954167  
     163A     -0.954136   164A     -0.943164   165A     -0.943106  
     166A     -0.940865   167A     -0.940626   168A     -0.939363  
     169A     -0.921169   170A     -0.917187   171A     -0.905399  
     172A     -0.900802   173A     -0.898136   174A     -0.898010  
     175A     -0.895852   176A     -0.892943   177A     -0.883972  
     178A     -0.883964   179A     -0.876737   180A     -0.876734  
     181A     -0.838953   182A     -0.834622   183A     -0.834546  
     184A     -0.832713   185A     -0.832675   186A     -0.832414  
     187A     -0.831724   188A     -0.831423   189A     -0.816700  
     190A     -0.811317   191A     -0.805090   192A     -0.801228  
     193A     -0.800470   194A     -0.782267   195A     -0.778782  
     196A     -0.776690   197A     -0.776607   198A     -0.774705  
     199A     -0.774521   200A     -0.774159   201A     -0.774107  
     202A     -0.770845   203A     -0.768662   204A     -0.763750  
     205A     -0.763740   206A     -0.748602   207A     -0.748598  
     208A     -0.736173   209A     -0.735062   210A     -0.735054  
     211A     -0.731524   212A     -0.731516   213A     -0.728225  
     214A     -0.717659   215A     -0.713804   216A     -0.705450  
     217A     -0.702498   218A     -0.700267   219A     -0.700205  
     220A     -0.699607   221A     -0.699597   222A     -0.698488  
     223A     -0.690802   224A     -0.690754   225A     -0.689293  
     226A     -0.688285   227A     -0.685624   228A     -0.685620  
     229A     -0.678553   230A     -0.669982   231A     -0.663999  
     232A     -0.663992   233A     -0.658064   234A     -0.658036  
     235A     -0.650198   236A     -0.650059   237A     -0.648747  
     238A     -0.648554   239A     -0.648171   240A     -0.648089  
     241A     -0.644287   242A     -0.644187   243A     -0.644139  
     244A     -0.643843   245A     -0.641060   246A     -0.641020  
     247A     -0.637728   248A     -0.626001   249A     -0.625991  
     250A     -0.625898   251A     -0.625891   252A     -0.622572  
     253A     -0.620697   254A     -0.618164   255A     -0.618103  
     256A     -0.615833   257A     -0.615751   258A     -0.609039  
     259A     -0.608297   260A     -0.608285   261A     -0.606838  
     262A     -0.603807   263A     -0.600055   264A     -0.595400  
     265A     -0.594161   266A     -0.585897   267A     -0.585802  
     268A     -0.584880   269A     -0.582656   270A     -0.582575  
     271A     -0.577948   272A     -0.577050   273A     -0.577036  
     274A     -0.566570   275A     -0.566471   276A     -0.564614  
     277A     -0.564605   278A     -0.558377   279A     -0.558347  
     280A     -0.547354   281A     -0.545928   282A     -0.545902  
     283A     -0.544348   284A     -0.544330   285A     -0.540167  
     286A     -0.530183   287A     -0.526410   288A     -0.526400  
     289A     -0.523073   290A     -0.519477   291A     -0.516083  
     292A     -0.516022   293A     -0.512967   294A     -0.508693  
     295A     -0.497264   296A     -0.497155   297A     -0.491542  
     298A     -0.491383   299A     -0.491244   300A     -0.483433  
     301A     -0.482773   302A     -0.457180   303A     -0.457147  
     304A     -0.436806   305A     -0.436785   306A     -0.434568  
     307A     -0.434429   308A     -0.434185   309A     -0.403971  
     310A     -0.403937   311A     -0.400325   312A     -0.389604  
     313A     -0.387356   314A     -0.387331   315A     -0.381438  
     316A     -0.381388   317A     -0.357697   318A     -0.352400  
     319A     -0.352398   320A     -0.350151   321A     -0.335526  
     322A     -0.304548   323A     -0.303822   324A     -0.303808  
     325A     -0.253671   326A     -0.253663  

    Virtual:                                                              

     327A     -0.060930   328A     -0.060803   329A     -0.057141  
     330A     -0.052336   331A     -0.044103   332A     -0.038587  
     333A     -0.021728   334A     -0.019166   335A     -0.018875  
     336A     -0.015218   337A     -0.015087   338A     -0.015063  
     339A     -0.008323   340A      0.000630   341A      0.002017  
     342A      0.003399   343A      0.005196   344A      0.005641  
     345A      0.006814   346A      0.008249   347A      0.009610  
     348A      0.010807   349A      0.011728   350A      0.012410  
     351A      0.015920   352A      0.016833   353A      0.019935  
     354A      0.020045   355A      0.021497   356A      0.021739  
     357A      0.022269   358A      0.023025   359A      0.024425  
     360A      0.029705   361A      0.029734   362A      0.031631  
     363A      0.032753   364A      0.032842   365A      0.033024  
     366A      0.034837   367A      0.038502   368A      0.039458  
     369A      0.041637   370A      0.042791   371A      0.043587  
     372A      0.044022   373A      0.045462   374A      0.046117  
     375A      0.048392   376A      0.050586   377A      0.054913  
     378A      0.055177   379A      0.056264   380A      0.056426  
     381A      0.057964   382A      0.059646   383A      0.060175  
     384A      0.061139   385A      0.064796   386A      0.064927  
     387A      0.065143   388A      0.065336   389A      0.065859  
     390A      0.066324   391A      0.066655   392A      0.070390  
     393A      0.071667   394A      0.073421   395A      0.073610  
     396A      0.075227   397A      0.075313   398A      0.076277  
     399A      0.076850   400A      0.080606   401A      0.082750  
     402A      0.084668   403A      0.086278   404A      0.087594  
     405A      0.088866   406A      0.089381   407A      0.089759  
     408A      0.091700   409A      0.093500   410A      0.094662  
     411A      0.096110   412A      0.096371   413A      0.099130  
     414A      0.099999   415A      0.100527   416A      0.102882  
     417A      0.103415   418A      0.105161   419A      0.106661  
     420A      0.107446   421A      0.107944   422A      0.110265  
     423A      0.112435   424A      0.112576   425A      0.113805  
     426A      0.113914   427A      0.115999   428A      0.116923  
     429A      0.118312   430A      0.119027   431A      0.123058  
     432A      0.123334   433A      0.123675   434A      0.124272  
     435A      0.124810   436A      0.128758   437A      0.129929  
     438A      0.130036   439A      0.130302   440A      0.133696  
     441A      0.134586   442A      0.134673   443A      0.135015  
     444A      0.137025   445A      0.138152   446A      0.141772  
     447A      0.142391   448A      0.143474   449A      0.144074  
     450A      0.144578   451A      0.145175   452A      0.146045  
     453A      0.149618   454A      0.151156   455A      0.153919  
     456A      0.154236   457A      0.154688   458A      0.155930  
     459A      0.157062   460A      0.157377   461A      0.157874  
     462A      0.158322   463A      0.159165   464A      0.159641  
     465A      0.160543   466A      0.161018   467A      0.161426  
     468A      0.162003   469A      0.162343   470A      0.163367  
     471A      0.163534   472A      0.163877   473A      0.165490  
     474A      0.167168   475A      0.168353   476A      0.169258  
     477A      0.170104   478A      0.170322   479A      0.172141  
     480A      0.174849   481A      0.175277   482A      0.175338  
     483A      0.178212   484A      0.178343   485A      0.178583  
     486A      0.179217   487A      0.180841   488A      0.182231  
     489A      0.182610   490A      0.183368   491A      0.184107  
     492A      0.184485   493A      0.185505   494A      0.187728  
     495A      0.189331   496A      0.190461   497A      0.191983  
     498A      0.192708   499A      0.192880   500A      0.194718  
     501A      0.194896   502A      0.195769   503A      0.196052  
     504A      0.197769   505A      0.198719   506A      0.200239  
     507A      0.200506   508A      0.200676   509A      0.204151  
     510A      0.204295   511A      0.206053   512A      0.208354  
     513A      0.209306   514A      0.209581   515A      0.211370  
     516A      0.212386   517A      0.213173   518A      0.213342  
     519A      0.215978   520A      0.216386   521A      0.217041  
     522A      0.218600   523A      0.219793   524A      0.219991  
     525A      0.220992   526A      0.221116   527A      0.221851  
     528A      0.223222   529A      0.224086   530A      0.224777  
     531A      0.228470   532A      0.230360   533A      0.230514  
     534A      0.231702   535A      0.231766   536A      0.232335  
     537A      0.232444   538A      0.233079   539A      0.235446  
     540A      0.237227   541A      0.238114   542A      0.239660  
     543A      0.240018   544A      0.240598   545A      0.242031  
     546A      0.244285   547A      0.244677   548A      0.244916  
     549A      0.245995   550A      0.246705   551A      0.247719  
     552A      0.248897   553A      0.249733   554A      0.252139  
     555A      0.253622   556A      0.254182   557A      0.254878  
     558A      0.255722   559A      0.258556   560A      0.259294  
     561A      0.259449   562A      0.260663   563A      0.260764  
     564A      0.262741   565A      0.266245   566A      0.266402  
     567A      0.267471   568A      0.267805   569A      0.268515  
     570A      0.269377   571A      0.270406   572A      0.270606  
     573A      0.272246   574A      0.272880   575A      0.273344  
     576A      0.273467   577A      0.274619   578A      0.274931  
     579A      0.275923   580A      0.276206   581A      0.278444  
     582A      0.279121   583A      0.280048   584A      0.281201  
     585A      0.281496   586A      0.282276   587A      0.283816  
     588A      0.284385   589A      0.285342   590A      0.286828  
     591A      0.287136   592A      0.287843   593A      0.288347  
     594A      0.290677   595A      0.291347   596A      0.291926  
     597A      0.293931   598A      0.294228   599A      0.295911  
     600A      0.296498   601A      0.296959   602A      0.298289  
     603A      0.299146   604A      0.299438   605A      0.300778  
     606A      0.301903   607A      0.302139   608A      0.302577  
     609A      0.303941   610A      0.305449   611A      0.306966  
     612A      0.307318   613A      0.309870   614A      0.312269  
     615A      0.313788   616A      0.315196   617A      0.315618  
     618A      0.317429   619A      0.318670   620A      0.319495  
     621A      0.320200   622A      0.321770   623A      0.321884  
     624A      0.322437   625A      0.324396   626A      0.325287  
     627A      0.327943   628A      0.328383   629A      0.329313  
     630A      0.331820   631A      0.332054   632A      0.332605  
     633A      0.333129   634A      0.334847   635A      0.334950  
     636A      0.335204   637A      0.337152   638A      0.337730  
     639A      0.338581   640A      0.340118   641A      0.340654  
     642A      0.343871   643A      0.344316   644A      0.345882  
     645A      0.347262   646A      0.347753   647A      0.347919  
     648A      0.348210   649A      0.348570   650A      0.348730  
     651A      0.349645   652A      0.350649   653A      0.351646  
     654A      0.352717   655A      0.352916   656A      0.352992  
     657A      0.353650   658A      0.355450   659A      0.355897  
     660A      0.356557   661A      0.356816   662A      0.357728  
     663A      0.358051   664A      0.360089   665A      0.360751  
     666A      0.361511   667A      0.361835   668A      0.362243  
     669A      0.364199   670A      0.364586   671A      0.365145  
     672A      0.367001   673A      0.367617   674A      0.368435  
     675A      0.368692   676A      0.369243   677A      0.369773  
     678A      0.370512   679A      0.373775   680A      0.375561  
     681A      0.375881   682A      0.378954   683A      0.379260  
     684A      0.381046   685A      0.381281   686A      0.382122  
     687A      0.382648   688A      0.383572   689A      0.383792  
     690A      0.384185   691A      0.384815   692A      0.385321  
     693A      0.386411   694A      0.387414   695A      0.388323  
     696A      0.388534   697A      0.391202   698A      0.391444  
     699A      0.392502   700A      0.394994   701A      0.399126  
     702A      0.402002   703A      0.402127   704A      0.403176  
     705A      0.403966   706A      0.404420   707A      0.404608  
     708A      0.405161   709A      0.406269   710A      0.407258  
     711A      0.407508   712A      0.407612   713A      0.409273  
     714A      0.409378   715A      0.410377   716A      0.412131  
     717A      0.413539   718A      0.414344   719A      0.416208  
     720A      0.417118   721A      0.418231   722A      0.418995  
     723A      0.419192   724A      0.419658   725A      0.420757  
     726A      0.421984   727A      0.422501   728A      0.426456  
     729A      0.426533   730A      0.426930   731A      0.427326  
     732A      0.428283   733A      0.429416   734A      0.430555  
     735A      0.430827   736A      0.431705   737A      0.431800  
     738A      0.434850   739A      0.436801   740A      0.436909  
     741A      0.437801   742A      0.439667   743A      0.441409  
     744A      0.442183   745A      0.443170   746A      0.443647  
     747A      0.445420   748A      0.445646   749A      0.447859  
     750A      0.448413   751A      0.449796   752A      0.451869  
     753A      0.453169   754A      0.454041   755A      0.455377  
     756A      0.455804   757A      0.456111   758A      0.456374  
     759A      0.457442   760A      0.458813   761A      0.459889  
     762A      0.466457   763A      0.466734   764A      0.466878  
     765A      0.469020   766A      0.469344   767A      0.469504  
     768A      0.469640   769A      0.470565   770A      0.471253  
     771A      0.473300   772A      0.474445   773A      0.476136  
     774A      0.477528   775A      0.481828   776A      0.484762  
     777A      0.485001   778A      0.485127   779A      0.488382  
     780A      0.489508   781A      0.491106   782A      0.491413  
     783A      0.492219   784A      0.495367   785A      0.496576  
     786A      0.497021   787A      0.504154   788A      0.507037  
     789A      0.509463   790A      0.510108   791A      0.512379  
     792A      0.513202   793A      0.513391   794A      0.518458  
     795A      0.518528   796A      0.519126   797A      0.520024  
     798A      0.523318   799A      0.524074   800A      0.524224  
     801A      0.525728   802A      0.526337   803A      0.527093  
     804A      0.528517   805A      0.529277   806A      0.529764  
     807A      0.529869   808A      0.530525   809A      0.534225  
     810A      0.537814   811A      0.539970   812A      0.540766  
     813A      0.540924   814A      0.541380   815A      0.545099  
     816A      0.545571   817A      0.548348   818A      0.548709  
     819A      0.549087   820A      0.552708   821A      0.553574  
     822A      0.555167   823A      0.556050   824A      0.556918  
     825A      0.563439   826A      0.568190   827A      0.570149  
     828A      0.570287   829A      0.571189   830A      0.571654  
     831A      0.573040   832A      0.577492   833A      0.580964  
     834A      0.581452   835A      0.582531   836A      0.583045  
     837A      0.584775   838A      0.591420   839A      0.591959  
     840A      0.597188   841A      0.606069   842A      0.606300  
     843A      0.607648   844A      0.609627   845A      0.610344  
     846A      0.610895   847A      0.611060   848A      0.615207  
     849A      0.618320   850A      0.618467   851A      0.623059  
     852A      0.623769   853A      0.630964   854A      0.635413  
     855A      0.636243   856A      0.638400   857A      0.638924  
     858A      0.639693   859A      0.641170   860A      0.642044  
     861A      0.642578   862A      0.643098   863A      0.645331  
     864A      0.650880   865A      0.651468   866A      0.651948  
     867A      0.652266   868A      0.657391   869A      0.658105  
     870A      0.661626   871A      0.662763   872A      0.664977  
     873A      0.670521   874A      0.672295   875A      0.675250  
     876A      0.679284   877A      0.682809   878A      0.683923  
     879A      0.688467   880A      0.690796   881A      0.692359  
     882A      0.692884   883A      0.695455   884A      0.696113  
     885A      0.696468   886A      0.698253   887A      0.701473  
     888A      0.701682   889A      0.705024   890A      0.706017  
     891A      0.712457   892A      0.722794   893A      0.723849  
     894A      0.730780   895A      0.734952   896A      0.735239  
     897A      0.739727   898A      0.740176   899A      0.743885  
     900A      0.744870   901A      0.745600   902A      0.747176  
     903A      0.748395   904A      0.752428   905A      0.753708  
     906A      0.756103   907A      0.756852   908A      0.757821  
     909A      0.759536   910A      0.760454   911A      0.762497  
     912A      0.766161   913A      0.767232   914A      0.768277  
     915A      0.769026   916A      0.769573   917A      0.770557  
     918A      0.777556   919A      0.779887   920A      0.780608  
     921A      0.782462   922A      0.784787   923A      0.786505  
     924A      0.786678   925A      0.787693   926A      0.788829  
     927A      0.788935   928A      0.790836   929A      0.792471  
     930A      0.794396   931A      0.796038   932A      0.797107  
     933A      0.799440   934A      0.800259   935A      0.803798  
     936A      0.807155   937A      0.807869   938A      0.810139  
     939A      0.811123   940A      0.812863   941A      0.813880  
     942A      0.814419   943A      0.817189   944A      0.818730  
     945A      0.820153   946A      0.820548   947A      0.821114  
     948A      0.821970   949A      0.822691   950A      0.825920  
     951A      0.827060   952A      0.828898   953A      0.829177  
     954A      0.830803   955A      0.831760   956A      0.833404  
     957A      0.837604   958A      0.838372   959A      0.839145  
     960A      0.841001   961A      0.841805   962A      0.842518  
     963A      0.843566   964A      0.844006   965A      0.846275  
     966A      0.849813   967A      0.851025   968A      0.851610  
     969A      0.854488   970A      0.858574   971A      0.858857  
     972A      0.863887   973A      0.866839   974A      0.867353  
     975A      0.868253   976A      0.869998   977A      0.871680  
     978A      0.873226   979A      0.873371   980A      0.873556  
     981A      0.874023   982A      0.875294   983A      0.877447  
     984A      0.878856   985A      0.880971   986A      0.882163  
     987A      0.884511   988A      0.885043   989A      0.885517  
     990A      0.889412   991A      0.889535   992A      0.889958  
     993A      0.895816   994A      0.897416   995A      0.897735  
     996A      0.899838   997A      0.900499   998A      0.901706  
     999A      0.902025  1000A      0.902666  1001A      0.903878  
    1002A      0.904765  1003A      0.905056  1004A      0.908104  
    1005A      0.908448  1006A      0.908641  1007A      0.909230  
    1008A      0.914033  1009A      0.917016  1010A      0.917501  
    1011A      0.919528  1012A      0.920162  1013A      0.922111  
    1014A      0.924931  1015A      0.932876  1016A      0.934157  
    1017A      0.934309  1018A      0.937816  1019A      0.944245  
    1020A      0.944889  1021A      0.945266  1022A      0.945541  
    1023A      0.951548  1024A      0.951957  1025A      0.953767  
    1026A      0.954575  1027A      0.955218  1028A      0.956165  
    1029A      0.956688  1030A      0.958616  1031A      0.961056  
    1032A      0.962225  1033A      0.966036  1034A      0.967180  
    1035A      0.968808  1036A      0.970538  1037A      0.971287  
    1038A      0.972201  1039A      0.973248  1040A      0.974221  
    1041A      0.977559  1042A      0.980652  1043A      0.981878  
    1044A      0.982561  1045A      0.984512  1046A      0.986478  
    1047A      0.987389  1048A      0.988150  1049A      0.989841  
    1050A      0.996063  1051A      0.996129  1052A      0.997383  
    1053A      0.997865  1054A      0.998220  1055A      0.998313  
    1056A      0.998746  1057A      0.999162  1058A      1.002822  
    1059A      1.003624  1060A      1.004039  1061A      1.004692  
    1062A      1.004733  1063A      1.011288  1064A      1.011807  
    1065A      1.011993  1066A      1.015045  1067A      1.015410  
    1068A      1.016953  1069A      1.018053  1070A      1.018232  
    1071A      1.019248  1072A      1.019457  1073A      1.020555  
    1074A      1.020856  1075A      1.021296  1076A      1.021690  
    1077A      1.022382  1078A      1.023014  1079A      1.023309  
    1080A      1.023717  1081A      1.024305  1082A      1.025923  
    1083A      1.027260  1084A      1.027444  1085A      1.027809  
    1086A      1.028231  1087A      1.028618  1088A      1.029571  
    1089A      1.030102  1090A      1.030261  1091A      1.030524  
    1092A      1.031249  1093A      1.031379  1094A      1.032541  
    1095A      1.033491  1096A      1.033847  1097A      1.034659  
    1098A      1.034979  1099A      1.037477  1100A      1.038568  
    1101A      1.039803  1102A      1.040079  1103A      1.040573  
    1104A      1.040903  1105A      1.045743  1106A      1.047527  
    1107A      1.048403  1108A      1.048625  1109A      1.050157  
    1110A      1.051167  1111A      1.051746  1112A      1.052443  
    1113A      1.054486  1114A      1.054540  1115A      1.060932  
    1116A      1.062656  1117A      1.063452  1118A      1.066479  
    1119A      1.069857  1120A      1.071126  1121A      1.071472  
    1122A      1.072652  1123A      1.076677  1124A      1.078954  
    1125A      1.079078  1126A      1.080930  1127A      1.082013  
    1128A      1.084363  1129A      1.084718  1130A      1.085164  
    1131A      1.088382  1132A      1.088426  1133A      1.089393  
    1134A      1.093402  1135A      1.094784  1136A      1.096215  
    1137A      1.097203  1138A      1.099123  1139A      1.100532  
    1140A      1.101611  1141A      1.102381  1142A      1.104954  
    1143A      1.108030  1144A      1.108146  1145A      1.110459  
    1146A      1.110838  1147A      1.113581  1148A      1.114193  
    1149A      1.116836  1150A      1.118688  1151A      1.120381  
    1152A      1.121247  1153A      1.126603  1154A      1.126659  
    1155A      1.131772  1156A      1.135023  1157A      1.136131  
    1158A      1.136578  1159A      1.137620  1160A      1.138603  
    1161A      1.142793  1162A      1.143857  1163A      1.144126  
    1164A      1.150844  1165A      1.152607  1166A      1.153225  
    1167A      1.153472  1168A      1.155899  1169A      1.156151  
    1170A      1.156860  1171A      1.160986  1172A      1.162122  
    1173A      1.163963  1174A      1.166260  1175A      1.166807  
    1176A      1.169953  1177A      1.170098  1178A      1.173343  
    1179A      1.174693  1180A      1.175749  1181A      1.176445  
    1182A      1.178763  1183A      1.184543  1184A      1.184889  
    1185A      1.198363  1186A      1.198662  1187A      1.199531  
    1188A      1.203294  1189A      1.204093  1190A      1.206345  
    1191A      1.211581  1192A      1.213094  1193A      1.213302  
    1194A      1.215390  1195A      1.219730  1196A      1.221165  
    1197A      1.221986  1198A      1.222990  1199A      1.227483  
    1200A      1.236330  1201A      1.236468  1202A      1.240269  
    1203A      1.241946  1204A      1.242379  1205A      1.244727  
    1206A      1.246060  1207A      1.246279  1208A      1.248120  
    1209A      1.252909  1210A      1.254151  1211A      1.256904  
    1212A      1.257240  1213A      1.259355  1214A      1.260394  
    1215A      1.262273  1216A      1.263789  1217A      1.265282  
    1218A      1.270823  1219A      1.271044  1220A      1.271196  
    1221A      1.271780  1222A      1.273070  1223A      1.276160  
    1224A      1.277827  1225A      1.277960  1226A      1.281476  
    1227A      1.282127  1228A      1.284134  1229A      1.286361  
    1230A      1.287000  1231A      1.290981  1232A      1.291264  
    1233A      1.292085  1234A      1.293619  1235A      1.296812  
    1236A      1.297408  1237A      1.299227  1238A      1.306936  
    1239A      1.306971  1240A      1.308651  1241A      1.309176  
    1242A      1.312093  1243A      1.314488  1244A      1.314749  
    1245A      1.318687  1246A      1.319596  1247A      1.321799  
    1248A      1.323630  1249A      1.324418  1250A      1.325125  
    1251A      1.333022  1252A      1.337744  1253A      1.338345  
    1254A      1.341573  1255A      1.345301  1256A      1.345994  
    1257A      1.346399  1258A      1.346492  1259A      1.351048  
    1260A      1.356579  1261A      1.356857  1262A      1.357982  
    1263A      1.358776  1264A      1.358927  1265A      1.359233  
    1266A      1.362885  1267A      1.363671  1268A      1.364750  
    1269A      1.365349  1270A      1.371934  1271A      1.372598  
    1272A      1.374295  1273A      1.374619  1274A      1.377347  
    1275A      1.377672  1276A      1.377856  1277A      1.378701  
    1278A      1.381385  1279A      1.381980  1280A      1.385616  
    1281A      1.387367  1282A      1.387997  1283A      1.390247  
    1284A      1.390316  1285A      1.394626  1286A      1.397536  
    1287A      1.398513  1288A      1.399850  1289A      1.400505  
    1290A      1.401154  1291A      1.403198  1292A      1.405039  
    1293A      1.413359  1294A      1.413952  1295A      1.419836  
    1296A      1.420185  1297A      1.420774  1298A      1.421908  
    1299A      1.422533  1300A      1.429532  1301A      1.434507  
    1302A      1.434815  1303A      1.435419  1304A      1.436369  
    1305A      1.441733  1306A      1.446627  1307A      1.446923  
    1308A      1.449662  1309A      1.454156  1310A      1.456276  
    1311A      1.456702  1312A      1.467226  1313A      1.467647  
    1314A      1.477057  1315A      1.489333  1316A      1.489542  
    1317A      1.490989  1318A      1.491152  1319A      1.494165  
    1320A      1.503656  1321A      1.503700  1322A      1.514819  
    1323A      1.530076  1324A      1.533755  1325A      1.543487  
    1326A      1.543698  1327A      1.548499  1328A      1.551673  
    1329A      1.553977  1330A      1.554899  1331A      1.555598  
    1332A      1.557153  1333A      1.557668  1334A      1.560764  
    1335A      1.561182  1336A      1.561640  1337A      1.564512  
    1338A      1.565051  1339A      1.565427  1340A      1.566124  
    1341A      1.566926  1342A      1.569743  1343A      1.570571  
    1344A      1.571076  1345A      1.573343  1346A      1.574511  
    1347A      1.575319  1348A      1.576928  1349A      1.577198  
    1350A      1.580579  1351A      1.581010  1352A      1.585391  
    1353A      1.585661  1354A      1.586058  1355A      1.587230  
    1356A      1.587908  1357A      1.588670  1358A      1.588825  
    1359A      1.590014  1360A      1.590999  1361A      1.591927  
    1362A      1.593584  1363A      1.595642  1364A      1.602204  
    1365A      1.602502  1366A      1.602756  1367A      1.606837  
    1368A      1.607102  1369A      1.607459  1370A      1.614378  
    1371A      1.615027  1372A      1.617628  1373A      1.618160  
    1374A      1.618199  1375A      1.618666  1376A      1.619436  
    1377A      1.619605  1378A      1.621340  1379A      1.627124  
    1380A      1.627633  1381A      1.628149  1382A      1.628911  
    1383A      1.631187  1384A      1.638228  1385A      1.639600  
    1386A      1.643141  1387A      1.646131  1388A      1.646364  
    1389A      1.646979  1390A      1.647760  1391A      1.649997  
    1392A      1.659882  1393A      1.660055  1394A      1.660488  
    1395A      1.664969  1396A      1.666608  1397A      1.666772  
    1398A      1.669714  1399A      1.671310  1400A      1.672501  
    1401A      1.672625  1402A      1.673446  1403A      1.674966  
    1404A      1.675925  1405A      1.681494  1406A      1.687593  
    1407A      1.688579  1408A      1.692864  1409A      1.696540  
    1410A      1.698393  1411A      1.698505  1412A      1.700598  
    1413A      1.701400  1414A      1.705864  1415A      1.714087  
    1416A      1.715805  1417A      1.718961  1418A      1.730504  
    1419A      1.736649  1420A      1.738723  1421A      1.738999  
    1422A      1.744612  1423A      1.752491  1424A      1.752741  
    1425A      1.758462  1426A      1.759740  1427A      1.760806  
    1428A      1.767708  1429A      1.768396  1430A      1.772530  
    1431A      1.774194  1432A      1.777257  1433A      1.778011  
    1434A      1.778603  1435A      1.780733  1436A      1.781597  
    1437A      1.783423  1438A      1.783797  1439A      1.786961  
    1440A      1.787189  1441A      1.787453  1442A      1.788211  
    1443A      1.794270  1444A      1.794611  1445A      1.795751  
    1446A      1.807234  1447A      1.807317  1448A      1.810840  
    1449A      1.811160  1450A      1.813416  1451A      1.813544  
    1452A      1.815382  1453A      1.815822  1454A      1.819844  
    1455A      1.821254  1456A      1.821434  1457A      1.822695  
    1458A      1.823926  1459A      1.824172  1460A      1.826317  
    1461A      1.829608  1462A      1.832067  1463A      1.833033  
    1464A      1.833718  1465A      1.834532  1466A      1.834930  
    1467A      1.835180  1468A      1.836114  1469A      1.837025  
    1470A      1.839753  1471A      1.840245  1472A      1.853590  
    1473A      1.853873  1474A      1.856278  1475A      1.856537  
    1476A      1.856657  1477A      1.861640  1478A      1.865466  
    1479A      1.866208  1480A      1.867254  1481A      1.869449  
    1482A      1.871172  1483A      1.872183  1484A      1.872686  
    1485A      1.874779  1486A      1.875464  1487A      1.876201  
    1488A      1.880130  1489A      1.881769  1490A      1.887600  
    1491A      1.888158  1492A      1.888981  1493A      1.889595  
    1494A      1.890303  1495A      1.890505  1496A      1.892715  
    1497A      1.893969  1498A      1.894745  1499A      1.896451  
    1500A      1.901675  1501A      1.903639  1502A      1.905324  
    1503A      1.906659  1504A      1.908753  1505A      1.909258  
    1506A      1.909918  1507A      1.911196  1508A      1.911694  
    1509A      1.911753  1510A      1.917502  1511A      1.919019  
    1512A      1.920241  1513A      1.921563  1514A      1.922715  
    1515A      1.923716  1516A      1.930809  1517A      1.932157  
    1518A      1.935318  1519A      1.939547  1520A      1.942146  
    1521A      1.942421  1522A      1.943885  1523A      1.944261  
    1524A      1.945557  1525A      1.956881  1526A      1.957588  
    1527A      1.957868  1528A      1.961529  1529A      1.962144  
    1530A      1.962989  1531A      1.966444  1532A      1.966727  
    1533A      1.967299  1534A      1.968184  1535A      1.969641  
    1536A      1.970133  1537A      1.970788  1538A      1.971663  
    1539A      1.974664  1540A      1.977883  1541A      1.978809  
    1542A      1.980992  1543A      1.983046  1544A      1.983892  
    1545A      1.985886  1546A      1.989787  1547A      1.992170  
    1548A      1.992690  1549A      1.997514  1550A      2.000146  
    1551A      2.002260  1552A      2.003585  1553A      2.006191  
    1554A      2.006691  1555A      2.008882  1556A      2.009511  
    1557A      2.010305  1558A      2.010786  1559A      2.015991  
    1560A      2.016960  1561A      2.019136  1562A      2.019338  
    1563A      2.020983  1564A      2.025564  1565A      2.028403  
    1566A      2.029530  1567A      2.030702  1568A      2.030950  
    1569A      2.032288  1570A      2.033062  1571A      2.033304  
    1572A      2.033643  1573A      2.036860  1574A      2.038455  
    1575A      2.038918  1576A      2.040097  1577A      2.041391  
    1578A      2.042145  1579A      2.042427  1580A      2.043933  
    1581A      2.044711  1582A      2.046575  1583A      2.047294  
    1584A      2.047866  1585A      2.048199  1586A      2.051142  
    1587A      2.051771  1588A      2.052523  1589A      2.053012  
    1590A      2.057186  1591A      2.060100  1592A      2.061545  
    1593A      2.061749  1594A      2.062788  1595A      2.063615  
    1596A      2.064570  1597A      2.066833  1598A      2.068545  
    1599A      2.069978  1600A      2.075575  1601A      2.076712  
    1602A      2.076840  1603A      2.077518  1604A      2.077968  
    1605A      2.078454  1606A      2.078664  1607A      2.078806  
    1608A      2.080896  1609A      2.085073  1610A      2.085460  
    1611A      2.086558  1612A      2.087038  1613A      2.092629  
    1614A      2.092788  1615A      2.094486  1616A      2.095283  
    1617A      2.096004  1618A      2.100999  1619A      2.104714  
    1620A      2.105023  1621A      2.106848  1622A      2.107892  
    1623A      2.108752  1624A      2.109802  1625A      2.110106  
    1626A      2.110813  1627A      2.114194  1628A      2.114463  
    1629A      2.121779  1630A      2.122105  1631A      2.130320  
    1632A      2.131169  1633A      2.132464  1634A      2.133156  
    1635A      2.138495  1636A      2.138855  1637A      2.140447  
    1638A      2.140743  1639A      2.142268  1640A      2.144220  
    1641A      2.146501  1642A      2.147059  1643A      2.147520  
    1644A      2.149348  1645A      2.149947  1646A      2.151424  
    1647A      2.151853  1648A      2.153464  1649A      2.154803  
    1650A      2.155587  1651A      2.156967  1652A      2.159762  
    1653A      2.164285  1654A      2.164632  1655A      2.169886  
    1656A      2.170261  1657A      2.173843  1658A      2.174190  
    1659A      2.174496  1660A      2.174638  1661A      2.175910  
    1662A      2.179489  1663A      2.183258  1664A      2.184212  
    1665A      2.185595  1666A      2.187409  1667A      2.188679  
    1668A      2.188904  1669A      2.192451  1670A      2.196941  
    1671A      2.197771  1672A      2.199455  1673A      2.200170  
    1674A      2.209950  1675A      2.212789  1676A      2.213944  
    1677A      2.215074  1678A      2.216744  1679A      2.218063  
    1680A      2.222115  1681A      2.225115  1682A      2.233875  
    1683A      2.234447  1684A      2.235142  1685A      2.241466  
    1686A      2.242830  1687A      2.246500  1688A      2.247890  
    1689A      2.254731  1690A      2.255308  1691A      2.258776  
    1692A      2.259907  1693A      2.263418  1694A      2.274084  
    1695A      2.275561  1696A      2.275830  1697A      2.277917  
    1698A      2.279802  1699A      2.281556  1700A      2.281936  
    1701A      2.282873  1702A      2.283940  1703A      2.285554  
    1704A      2.289247  1705A      2.291961  1706A      2.292686  
    1707A      2.292980  1708A      2.295241  1709A      2.295893  
    1710A      2.296631  1711A      2.298685  1712A      2.299112  
    1713A      2.305149  1714A      2.316640  1715A      2.321067  
    1716A      2.321768  1717A      2.334708  1718A      2.334800  
    1719A      2.338390  1720A      2.339911  1721A      2.341527  
    1722A      2.342794  1723A      2.344524  1724A      2.346651  
    1725A      2.369046  1726A      2.370188  1727A      2.373694  
    1728A      2.378349  1729A      2.381828  1730A      2.392033  
    1731A      2.393869  1732A      2.401915  1733A      2.403294  
    1734A      2.415101  1735A      2.415204  1736A      2.418589  
    1737A      2.418783  1738A      2.422959  1739A      2.423247  
    1740A      2.442485  1741A      2.442902  1742A      2.444539  
    1743A      2.453021  1744A      2.453266  1745A      2.457865  
    1746A      2.458622  1747A      2.462815  1748A      2.467840  
    1749A      2.470535  1750A      2.489372  1751A      2.489567  
    1752A      2.490936  1753A      2.492995  1754A      2.493684  
    1755A      2.495129  1756A      2.498403  1757A      2.499461  
    1758A      2.500671  1759A      2.502330  1760A      2.506042  
    1761A      2.506226  1762A      2.506772  1763A      2.514669  
    1764A      2.521901  1765A      2.523562  1766A      2.532176  
    1767A      2.535859  1768A      2.536074  1769A      2.536474  
    1770A      2.537344  1771A      2.540881  1772A      2.541293  
    1773A      2.544085  1774A      2.546308  1775A      2.552475  
    1776A      2.552624  1777A      2.563673  1778A      2.563918  
    1779A      2.564247  1780A      2.564754  1781A      2.567811  
    1782A      2.568454  1783A      2.581155  1784A      2.583494  
    1785A      2.591035  1786A      2.592052  1787A      2.594227  
    1788A      2.595801  1789A      2.598376  1790A      2.598949  
    1791A      2.600050  1792A      2.604251  1793A      2.607405  
    1794A      2.607572  1795A      2.612744  1796A      2.615486  
    1797A      2.616207  1798A      2.619098  1799A      2.621815  
    1800A      2.622891  1801A      2.623399  1802A      2.628547  
    1803A      2.629380  1804A      2.635093  1805A      2.636071  
    1806A      2.637532  1807A      2.641375  1808A      2.641730  
    1809A      2.641957  1810A      2.643178  1811A      2.644553  
    1812A      2.646497  1813A      2.647893  1814A      2.654401  
    1815A      2.669316  1816A      2.672064  1817A      2.681097  
    1818A      2.681169  1819A      2.681993  1820A      2.683570  
    1821A      2.683814  1822A      2.683981  1823A      2.687569  
    1824A      2.696131  1825A      2.703462  1826A      2.709226  
    1827A      2.709971  1828A      2.713871  1829A      2.721260  
    1830A      2.724974  1831A      2.729589  1832A      2.730206  
    1833A      2.744552  1834A      2.748501  1835A      2.749567  
    1836A      2.750797  1837A      2.751951  1838A      2.752041  
    1839A      2.755142  1840A      2.758232  1841A      2.760397  
    1842A      2.764386  1843A      2.764526  1844A      2.765958  
    1845A      2.766564  1846A      2.777290  1847A      2.777586  
    1848A      2.790302  1849A      2.790355  1850A      2.791556  
    1851A      2.791920  1852A      2.795846  1853A      2.801146  
    1854A      2.809529  1855A      2.814977  1856A      2.815375  
    1857A      2.820854  1858A      2.821999  1859A      2.824581  
    1860A      2.844619  1861A      2.845531  1862A      2.861473  
    1863A      2.869494  1864A      2.869640  1865A      2.879449  
    1866A      2.881508  1867A      2.886237  1868A      2.886369  
    1869A      2.914150  1870A      2.916296  1871A      2.916873  
    1872A      2.924990  1873A      2.927432  1874A      2.943158  
    1875A      2.943498  1876A      2.979526  1877A      2.980291  
    1878A      2.983493  1879A      2.986692  1880A      2.990108  
    1881A      2.997361  1882A      2.998124  1883A      2.999991  
    1884A      3.007650  1885A      3.007780  1886A      3.016246  
    1887A      3.023485  1888A      3.054291  1889A      3.060240  
    1890A      3.064519  1891A      3.064848  1892A      3.072264  
    1893A      3.073144  1894A      3.077447  1895A      3.078140  
    1896A      3.083239  1897A      3.084832  1898A      3.093395  
    1899A      3.094527  1900A      3.098629  1901A      3.099072  
    1902A      3.100965  1903A      3.101774  1904A      3.105333  
    1905A      3.114229  1906A      3.117100  1907A      3.124866  
    1908A      3.126641  1909A      3.126938  1910A      3.144795  
    1911A      3.145535  1912A      3.172107  1913A      3.203845  
    1914A      3.210639  1915A      3.211401  1916A      3.211697  
    1917A      3.212660  1918A      3.214925  1919A      3.218978  
    1920A      3.222383  1921A      3.225750  1922A      3.226345  
    1923A      3.243414  1924A      3.245099  1925A      3.245403  
    1926A      3.253225  1927A      3.310791  1928A      3.311906  
    1929A      3.319506  1930A      3.365044  1931A      3.379110  
    1932A      3.381341  1933A      3.384209  1934A      3.393522  
    1935A      3.398079  1936A      3.409453  1937A      3.413840  
    1938A      3.414745  1939A      3.420438  1940A      3.423173  
    1941A      3.429892  1942A      3.434618  1943A      3.442676  
    1944A      3.446820  1945A      3.458468  1946A      3.488218  
    1947A      3.524015  1948A      3.525695  1949A      3.532302  
    1950A      3.535683  1951A      3.540519  1952A      3.587276  
    1953A      3.588018  1954A      3.614309  1955A      3.617135  
    1956A      3.654878  1957A      3.696571  1958A      3.699843  
    1959A      3.700738  1960A      3.712083  1961A      3.727920  
    1962A      3.729615  1963A      3.792662  1964A      3.793718  
    1965A      3.822164  1966A      3.825156  1967A      3.854828  
    1968A      3.862743  1969A      3.886524  1970A      3.888488  
    1971A      3.898577  1972A      3.899663  1973A      3.908073  
    1974A      3.912955  1975A      3.919831  1976A      3.973999  
    1977A      3.976572  1978A      4.019406  1979A      4.176661  
    1980A      4.248837  1981A      4.340368  

    Final Occupation by Irrep:
              A 
    DOCC [   326 ]
    NA   [   326 ]
    NB   [   326 ]

  @DF-RHF Final Energy: -3953.64457946577568

   => Energetics <=

    Nuclear Repulsion Energy =          17576.9196187425150129
    One-Electron Energy =              -40367.2240993802552111
    Two-Electron Energy =               18836.6599011719663395
    Total Energy =                      -3953.6445794657738588

Computation Completed


Properties will be evaluated at   0.000000,   0.000000,   0.000000 [a0]

Properties computed using the SCF density matrix


 Multipole Moments:

 ------------------------------------------------------------------------------------
     Multipole            Electronic (a.u.)      Nuclear  (a.u.)        Total (a.u.)
 ------------------------------------------------------------------------------------

 L = 1.  Multiply by 2.5417464519 to convert [e a0] to [Debye]
 Dipole X            :         -0.0022644            0.0004804           -0.0017840
 Dipole Y            :         -6.7681261            8.7122315            1.9441055
 Dipole Z            :         34.1381668          -46.6993964          -12.5612296
 Magnitude           :                                                   12.7107844

 ------------------------------------------------------------------------------------

*** tstop() called on n2cn0577 at Sat Jan 27 01:46:03 2024
Module time:
	user time   =   28235.89 seconds =     470.60 minutes
	system time =    2503.46 seconds =      41.72 minutes
	total time  =       5491 seconds =      91.52 minutes
Total time:
	user time   =   28235.89 seconds =     470.60 minutes
	system time =    2503.46 seconds =      41.72 minutes
	total time  =       5491 seconds =      91.52 minutes

  //>>>>>>>>>>>>>>>>>>>>>>>>>>>>>>>>>>>//
  //            Monomer A HF           //
  //<<<<<<<<<<<<<<<<<<<<<<<<<<<<<<<<<<<//

   => Libint2 <=

    Primary   basis highest AM E, G, H:  5, 4, 3
    Auxiliary basis highest AM E, G, H:  6, 5, 4
    Onebody   basis highest AM E, G, H:  6, 5, 4
    Solid Harmonics ordering:            gaussian

*** tstart() called on n2cn0577
*** at Sat Jan 27 01:46:03 2024

   => Loading Basis Set <=

    Name: JUN-CC-PVDZ
    Role: ORBITAL
    Keyword: BASIS
    atoms 1-2, 4-5, 10, 17-34, 41-53, 56-70, 73-89, 92-104, 109-119, 122-130 entry C          line   164 file /opt/software/pc2/EB-SW/software/PSI4/1.9-foss-2022a/share/psi4/basis/jun-cc-pvdz.gbs 
    atoms 3, 6                                                               entry N          line   198 file /opt/software/pc2/EB-SW/software/PSI4/1.9-foss-2022a/share/psi4/basis/jun-cc-pvdz.gbs 
    atoms 7-9, 11-16, 35-40, 54-55, 71-72, 90-91, 105-108, 120-121, 131-136  entry H          line    36 file /opt/software/pc2/EB-SW/software/PSI4/1.9-foss-2022a/share/psi4/basis/jun-cc-pvdz.gbs 


         ---------------------------------------------------------
                                   SCF
               by Justin Turney, Rob Parrish, Andy Simmonett
                          and Daniel G. A. Smith
                              RHF Reference
                       16 Threads,  61035 MiB Core
         ---------------------------------------------------------

  ==> Geometry <==

    Molecular point group: c1
    Full point group: C1

    Geometry (in Angstrom), charge = 1, multiplicity = 1:

       Center              X                  Y                   Z               Mass       
    ------------   -----------------  -----------------  -----------------  -----------------
         C            0.680062820275     1.308604348936    -8.605996573113    12.000000000000
         C           -0.680508179725     1.310632348936    -8.605612573113    12.000000000000
         N           -1.085639179725     1.311630348936    -7.287288573113    14.003074004430
         C            0.000103820275     1.314906348936    -6.505887573113    12.000000000000
[...]
    1579A      2.162408  1580A      2.162837  1581A      2.170076  
    1582A      2.171246  1583A      2.171534  1584A      2.179711  
    1585A      2.180848  1586A      2.181217  1587A      2.182326  
    1588A      2.188157  1589A      2.188551  1590A      2.188984  
    1591A      2.190896  1592A      2.191492  1593A      2.192636  
    1594A      2.195016  1595A      2.195613  1596A      2.197195  
    1597A      2.198107  1598A      2.200320  1599A      2.200489  
    1600A      2.200799  1601A      2.201270  1602A      2.203152  
    1603A      2.204262  1604A      2.205497  1605A      2.209145  
    1606A      2.213690  1607A      2.213980  1608A      2.215169  
    1609A      2.220139  1610A      2.222182  1611A      2.222699  
    1612A      2.224204  1613A      2.224713  1614A      2.224793  
    1615A      2.228764  1616A      2.232017  1617A      2.232287  
    1618A      2.233198  1619A      2.238323  1620A      2.238748  
    1621A      2.238897  1622A      2.239460  1623A      2.241383  
    1624A      2.247586  1625A      2.247954  1626A      2.248334  
    1627A      2.248810  1628A      2.260375  1629A      2.261459  
    1630A      2.263326  1631A      2.264877  1632A      2.266503  
    1633A      2.269220  1634A      2.269585  1635A      2.275288  
    1636A      2.278983  1637A      2.282793  1638A      2.284259  
    1639A      2.290178  1640A      2.290965  1641A      2.296308  
    1642A      2.296776  1643A      2.299666  1644A      2.303719  
    1645A      2.304130  1646A      2.309037  1647A      2.314486  
    1648A      2.319692  1649A      2.324446  1650A      2.324859  
    1651A      2.325181  1652A      2.327079  1653A      2.329356  
    1654A      2.330546  1655A      2.331071  1656A      2.332973  
    1657A      2.334292  1658A      2.335053  1659A      2.339606  
    1660A      2.341310  1661A      2.342014  1662A      2.342308  
    1663A      2.343263  1664A      2.344394  1665A      2.344951  
    1666A      2.345788  1667A      2.346318  1668A      2.349057  
    1669A      2.349395  1670A      2.367942  1671A      2.372300  
    1672A      2.372857  1673A      2.383588  1674A      2.387921  
    1675A      2.388186  1676A      2.390234  1677A      2.391584  
    1678A      2.392944  1679A      2.396932  1680A      2.418301  
    1681A      2.419477  1682A      2.423457  1683A      2.427502  
    1684A      2.431853  1685A      2.441453  1686A      2.443244  
    1687A      2.445504  1688A      2.449644  1689A      2.452088  
    1690A      2.453053  1691A      2.457976  1692A      2.464259  
    1693A      2.464314  1694A      2.467680  1695A      2.467968  
    1696A      2.470359  1697A      2.471898  1698A      2.472156  
    1699A      2.477499  1700A      2.490980  1701A      2.491339  
    1702A      2.494535  1703A      2.501656  1704A      2.505731  
    1705A      2.506947  1706A      2.510805  1707A      2.511462  
    1708A      2.516183  1709A      2.539051  1710A      2.539132  
    1711A      2.540056  1712A      2.541985  1713A      2.542706  
    1714A      2.545107  1715A      2.547594  1716A      2.548412  
    1717A      2.549159  1718A      2.551085  1719A      2.556512  
    1720A      2.556663  1721A      2.564189  1722A      2.571078  
    1723A      2.571564  1724A      2.578591  1725A      2.579952  
    1726A      2.583642  1727A      2.584149  1728A      2.585050  
    1729A      2.586218  1730A      2.588451  1731A      2.588750  
    1732A      2.593191  1733A      2.593486  1734A      2.601256  
    1735A      2.601420  1736A      2.612681  1737A      2.612881  
    1738A      2.613201  1739A      2.613666  1740A      2.616854  
    1741A      2.617371  1742A      2.632655  1743A      2.634947  
    1744A      2.640503  1745A      2.641439  1746A      2.643607  
    1747A      2.645378  1748A      2.646856  1749A      2.647420  
    1750A      2.648633  1751A      2.649175  1752A      2.651904  
    1753A      2.652772  1754A      2.655702  1755A      2.656099  
    1756A      2.660131  1757A      2.665974  1758A      2.666072  
    1759A      2.667530  1760A      2.670382  1761A      2.670552  
    1762A      2.673539  1763A      2.675337  1764A      2.677166  
    1765A      2.677539  1766A      2.684423  1767A      2.685551  
    1768A      2.687124  1769A      2.691117  1770A      2.691205  
    1771A      2.691539  1772A      2.692354  1773A      2.696027  
    1774A      2.697260  1775A      2.704100  1776A      2.720654  
    1777A      2.730690  1778A      2.730735  1779A      2.730921  
    1780A      2.731295  1781A      2.731588  1782A      2.738743  
    1783A      2.748898  1784A      2.752617  1785A      2.760130  
    1786A      2.760801  1787A      2.767958  1788A      2.772361  
    1789A      2.775821  1790A      2.779576  1791A      2.780162  
    1792A      2.799044  1793A      2.799840  1794A      2.801428  
    1795A      2.802152  1796A      2.802194  1797A      2.806102  
    1798A      2.809331  1799A      2.811269  1800A      2.814926  
    1801A      2.815134  1802A      2.815912  1803A      2.816098  
    1804A      2.828010  1805A      2.828231  1806A      2.837357  
    1807A      2.840103  1808A      2.840464  1809A      2.841488  
    1810A      2.841665  1811A      2.845559  1812A      2.859847  
    1813A      2.864990  1814A      2.865346  1815A      2.869907  
    1816A      2.871201  1817A      2.874233  1818A      2.876669  
    1819A      2.891121  1820A      2.895881  1821A      2.896767  
    1822A      2.910394  1823A      2.912719  1824A      2.917613  
    1825A      2.917779  1826A      2.924334  1827A      2.927400  
    1828A      2.929610  1829A      2.934752  1830A      2.934847  
    1831A      2.948883  1832A      2.963039  1833A      2.964680  
    1834A      2.965271  1835A      2.973108  1836A      2.976125  
    1837A      2.991820  1838A      2.992319  1839A      2.998440  
    1840A      3.010587  1841A      3.029106  1842A      3.029939  
    1843A      3.035374  1844A      3.038436  1845A      3.039870  
    1846A      3.046784  1847A      3.047490  1848A      3.047996  
    1849A      3.057456  1850A      3.057608  1851A      3.063278  
    1852A      3.072830  1853A      3.108568  1854A      3.112817  
    1855A      3.113034  1856A      3.122394  1857A      3.127008  
    1858A      3.127603  1859A      3.132437  1860A      3.134102  
    1861A      3.141910  1862A      3.142148  1863A      3.142978  
    1864A      3.148264  1865A      3.148729  1866A      3.149423  
    1867A      3.150038  1868A      3.153492  1869A      3.162144  
    1870A      3.167687  1871A      3.173141  1872A      3.174836  
    1873A      3.175083  1874A      3.193090  1875A      3.193796  
    1876A      3.220042  1877A      3.252832  1878A      3.259398  
    1879A      3.260644  1880A      3.261363  1881A      3.261932  
    1882A      3.264220  1883A      3.268060  1884A      3.271178  
    1885A      3.274522  1886A      3.275321  1887A      3.286232  
    1888A      3.292778  1889A      3.294667  1890A      3.295156  
    1891A      3.302308  1892A      3.307405  1893A      3.319469  
    1894A      3.361059  1895A      3.362128  1896A      3.369878  
    1897A      3.401935  1898A      3.415480  1899A      3.429842  
    1900A      3.432106  1901A      3.436945  1902A      3.444880  
    1903A      3.449481  1904A      3.460833  1905A      3.464437  
    1906A      3.465331  1907A      3.470986  1908A      3.473809  
    1909A      3.480474  1910A      3.485670  1911A      3.493493  
    1912A      3.509053  1913A      3.523680  1914A      3.539212  
    1915A      3.568983  1916A      3.574310  1917A      3.576016  
    1918A      3.582652  1919A      3.589885  1920A      3.637702  
    1921A      3.638380  1922A      3.644566  1923A      3.664648  
    1924A      3.666713  1925A      3.704975  1926A      3.747464  
    1927A      3.749194  1928A      3.750448  1929A      3.757291  
    1930A      3.763176  1931A      3.778602  1932A      3.779062  
    1933A      3.815578  1934A      3.841877  1935A      3.843225  
    1936A      3.867761  1937A      3.871427  1938A      3.874574  
    1939A      3.904564  1940A      3.912886  1941A      3.937669  
    1942A      3.939793  1943A      3.948162  1944A      3.949118  
    1945A      3.958379  1946A      3.960002  1947A      3.964375  
    1948A      3.970635  1949A      4.024605  1950A      4.027407  
    1951A      4.070807  1952A      4.205239  1953A      4.208767  
    1954A      4.228968  1955A      4.301523  1956A      4.344789  
    1957A      4.359997  1958A      4.392933  1959A      4.485598  
    1960A      4.735876  1961A      4.774147  1962A      4.829960  
    1963A      4.845954  1964A      4.935364  1965A      5.050206  
    1966A      5.056333  1967A      5.065640  1968A      5.110231  
    1969A      5.130712  1970A      5.391366  1971A      5.421690  
    1972A      5.731830  1973A      5.754890  1974A      6.066971  
    1975A     18.198208  1976A     18.453694  1977A     18.470849  
    1978A     18.558751  1979A     18.830764  1980A     25.338599  
    1981A     25.374542  

    Final Occupation by Irrep:
              A 
    DOCC [   300 ]
    NA   [   300 ]
    NB   [   300 ]

  @DF-RHF Final Energy: -3650.33762347079846

   => Energetics <=

    Nuclear Repulsion Energy =          15611.4211649754306563
    One-Electron Energy =              -36072.0762158476645709
    Two-Electron Energy =               16810.3174274014381808
    Total Energy =                      -3650.3376234707975527

Computation Completed


Properties will be evaluated at   0.000000,   0.000000,   0.000000 [a0]

Properties computed using the SCF density matrix


 Multipole Moments:

 ------------------------------------------------------------------------------------
     Multipole            Electronic (a.u.)      Nuclear  (a.u.)        Total (a.u.)
 ------------------------------------------------------------------------------------

 L = 1.  Multiply by 2.5417464519 to convert [e a0] to [Debye]
 Dipole X            :         -0.0009288            0.0002112           -0.0007176
 Dipole Y            :        123.2130209         -123.2131634           -0.0001425
 Dipole Z            :       -691.5640254          691.5665370            0.0025116
 Magnitude           :                                                    0.0026160

 ------------------------------------------------------------------------------------

*** tstop() called on n2cn0577 at Sat Jan 27 03:14:31 2024
Module time:
	user time   =   20384.64 seconds =     339.74 minutes
	system time =    1812.97 seconds =      30.22 minutes
	total time  =       3518 seconds =      58.63 minutes
Total time:
	user time   =   55534.24 seconds =     925.57 minutes
	system time =    4929.63 seconds =      82.16 minutes
	total time  =      10799 seconds =     179.98 minutes
  Constructing Basis Sets for SAPT...

   => Loading Basis Set <=

    Name: (JUN-CC-PVDZ AUX)
    Role: RIFIT
    Keyword: DF_BASIS_SAPT
    atoms 1-2, 4-5, 10, 17-34, 41-53, 56-70, 73-89, 92-104, 109-119, 122-130 entry C          line   100 file /opt/software/pc2/EB-SW/software/PSI4/1.9-foss-2022a/share/psi4/basis/jun-cc-pvdz-ri.gbs 
    atoms 3, 6                                                               entry N          line   144 file /opt/software/pc2/EB-SW/software/PSI4/1.9-foss-2022a/share/psi4/basis/jun-cc-pvdz-ri.gbs 
    atoms 7-9, 11-16, 35-40, 54-55, 71-72, 90-91, 105-108, 120-121, 131-136  entry H          line    30 file /opt/software/pc2/EB-SW/software/PSI4/1.9-foss-2022a/share/psi4/basis/jun-cc-pvdz-ri.gbs 

   => Loading Basis Set <=

    Name: (JUN-CC-PVDZ AUX)
    Role: JKFIT
    Keyword: DF_BASIS_ELST
    atoms 1-2, 4-5, 10, 17-34, 41-53, 56-70, 73-89, 92-104, 109-119, 122-130 entry C          line   146 file /opt/software/pc2/EB-SW/software/PSI4/1.9-foss-2022a/share/psi4/basis/jun-cc-pvdz-jkfit.gbs 
    atoms 3, 6                                                               entry N          line   202 file /opt/software/pc2/EB-SW/software/PSI4/1.9-foss-2022a/share/psi4/basis/jun-cc-pvdz-jkfit.gbs 
    atoms 7-9, 11-16, 35-40, 54-55, 71-72, 90-91, 105-108, 120-121, 131-136  entry H          line    70 file /opt/software/pc2/EB-SW/software/PSI4/1.9-foss-2022a/share/psi4/basis/jun-cc-pvdz-jkfit.gbs 


  //>>>>>>>>>>>>>>>>>>>>>>>>>>>>>>>>>>>//
  //               SSAPT0              //
  //<<<<<<<<<<<<<<<<<<<<<<<<<<<<<<<<<<<//


*** tstart() called on n2cn0577
*** at Sat Jan 27 03:14:32 2024

        SAPT0  
    Ed Hohenstein
     6 June 2009

      Orbital Information
  --------------------------
    NSO        =      2019
    NMO        =      1981
    NRI        =      7157
    NRI (Elst) =      8896
    NOCC A     =        26
    NOCC B     =       300
    FOCC A     =         7
    FOCC B     =        96
    NVIR A     =      1955
    NVIR B     =      1681

    Elst10,r            =    -0.007309123890 [Eh]
    Exch10              =    -0.000000214586 [Eh]
    Exch10 (S^2)        =    -0.000000214586 [Eh]

    Iter     Energy [mEh]          dE [mEh]         Residual      Time [s]
       1      -0.01208596       0.012085960       1.041107289           291
       2      -0.01142856      -0.000657403       0.268717497           547
       3      -0.01255739       0.001128831       0.073537197           847
       4      -0.01262628       0.000068896       0.033233077          1111
       5      -0.01257522      -0.000051066       0.010593882          1314
       6      -0.01257457      -0.000000647       0.003377554          1547
       7      -0.01257831       0.000003743       0.001092409          1790
       8      -0.01257895       0.000000637       0.000304539          2048
       9      -0.01257879      -0.000000158       0.000106921          2271
      10      -0.01257871      -0.000000081       0.000028770          2434
      11      -0.01257872       0.000000006       0.000007916          2723
      12      -0.01257872       0.000000005       0.000002477          2948
      13      -0.01257872       0.000000000       0.000000819          3121

    CHF Iterations converged


    Iter     Energy [mEh]          dE [mEh]         Residual      Time [s]
       1      -3.63116942       3.631169422      32.780127904           238
       2      -2.35890098      -1.272268438       3.833861806           476
       3      -2.35029760      -0.008603383       1.339480200           705
       4      -2.39506344       0.044765837       0.433624164           939
       5      -2.40087882       0.005815385       0.172884345          1173
       6      -2.39983899      -0.001039829       0.116353458          1388
       7      -2.39843094      -0.001408051       0.045769724          1618
       8      -2.39855797       0.000127027       0.019644855          1868
       9      -2.39878907       0.000231104       0.007464576          2082
      10      -2.39876909      -0.000019982       0.005474490          2345
      11      -2.39873544      -0.000033652       0.003121788          2609
      12      -2.39873251      -0.000002928       0.002329270          2853
      13      -2.39874544       0.000012927       0.001275668          3088
      14      -2.39874851       0.000003072       0.000706596          3323
      15      -2.39874566      -0.000002850       0.000422751          3609
      16      -2.39874333      -0.000002329       0.000157124          3844
      17      -2.39874440       0.000001070       0.000075305          4108
      18      -2.39874476       0.000000357       0.000039449          4383
      19      -2.39874459      -0.000000165       0.000028198          4607
      20      -2.39874447      -0.000000123       0.000011676          4855
      21      -2.39874450       0.000000031       0.000005630          5125
      22      -2.39874452       0.000000024       0.000002198          5381
      23      -2.39874452      -0.000000000       0.000000754          5613

    CHF Iterations converged

    Ind20,r (A<-B)      =    -0.000012578723 [Eh]
    Ind20,r (B<-A)      =    -0.002398744524 [Eh]
    Ind20,r             =    -0.002411323248 [Eh]
    Exch-Ind20,r (A<-B) =     0.000000014114 [Eh]
    Exch-Ind20,r (B<-A) =     0.000000129184 [Eh]
    Exch-Ind20,r        =     0.000000143298 [Eh]
    Disp20              =    -0.000965539790 [Eh]
    Disp20 (SS)         =    -0.000482769895 [Eh]
    Disp20 (OS)         =    -0.000482769895 [Eh]
    Exch-Disp20         =     0.000000052104 [Eh]
    Exch-Disp20 (SS)    =     0.000000038544 [Eh]
    Exch-Disp20 (OS)    =     0.000000013560 [Eh]

    SAPT Results 
  --------------------------------------------------------------------------------------------------------
    Electrostatics                 -7.30912389 [mEh]      -4.58654449 [kcal/mol]     -19.19010213 [kJ/mol]
      Elst10,r                     -7.30912389 [mEh]      -4.58654449 [kcal/mol]     -19.19010213 [kJ/mol]

    Exchange                       -0.00021459 [mEh]      -0.00013465 [kcal/mol]      -0.00056339 [kJ/mol]
      Exch10                       -0.00021459 [mEh]      -0.00013465 [kcal/mol]      -0.00056339 [kJ/mol]
      Exch10(S^2)                  -0.00021459 [mEh]      -0.00013465 [kcal/mol]      -0.00056339 [kJ/mol]

    Induction                      -2.44489827 [mEh]      -1.53419683 [kcal/mol]      -6.41907953 [kJ/mol]
      Ind20,r                      -2.41132325 [mEh]      -1.51312818 [kcal/mol]      -6.33092832 [kJ/mol]
      Exch-Ind20,r                  0.00014330 [mEh]       0.00008992 [kcal/mol]       0.00037623 [kJ/mol]
      delta HF,r (2)               -0.03371832 [mEh]      -0.02115857 [kcal/mol]      -0.08852744 [kJ/mol]

    Dispersion                     -0.96548769 [mEh]      -0.60585267 [kcal/mol]      -2.53488757 [kJ/mol]
      Disp20                       -0.96553979 [mEh]      -0.60588537 [kcal/mol]      -2.53502437 [kJ/mol]
      Exch-Disp20                   0.00005210 [mEh]       0.00003270 [kcal/mol]       0.00013680 [kJ/mol]
      Disp20 (SS)                  -0.48276989 [mEh]      -0.30294268 [kcal/mol]      -1.26751218 [kJ/mol]
      Disp20 (OS)                  -0.48276989 [mEh]      -0.30294268 [kcal/mol]      -1.26751218 [kJ/mol]
      Exch-Disp20 (SS)              0.00003854 [mEh]       0.00002419 [kcal/mol]       0.00010120 [kJ/mol]
      Exch-Disp20 (OS)              0.00001356 [mEh]       0.00000851 [kcal/mol]       0.00003560 [kJ/mol]

  Total HF                         -9.75423675 [mEh]      -6.12087597 [kcal/mol]     -25.60974505 [kJ/mol]
  Total SAPT0                     -10.71972443 [mEh]      -6.72672864 [kcal/mol]     -28.14463262 [kJ/mol]

  Special recipe for scaled SAPT0 (see Manual):
    Electrostatics sSAPT0          -7.30912389 [mEh]      -4.58654449 [kcal/mol]     -19.19010213 [kJ/mol]
    Exchange sSAPT0                -0.00021459 [mEh]      -0.00013465 [kcal/mol]      -0.00056339 [kJ/mol]
    Induction sSAPT0               -2.44489827 [mEh]      -1.53419683 [kcal/mol]      -6.41907953 [kJ/mol]
    Dispersion sSAPT0              -0.96548769 [mEh]      -0.60585267 [kcal/mol]      -2.53488757 [kJ/mol]
  Total sSAPT0                    -10.71972443 [mEh]      -6.72672864 [kcal/mol]     -28.14463262 [kJ/mol]
  --------------------------------------------------------------------------------------------------------

*** tstop() called on n2cn0577 at Sat Jan 27 10:55:52 2024
Module time:
	user time   =   76528.44 seconds =    1275.47 minutes
	system time =    4939.40 seconds =      82.32 minutes
	total time  =      27680 seconds =     461.33 minutes
Total time:
	user time   =  132064.27 seconds =    2201.07 minutes
	system time =    9869.03 seconds =     164.48 minutes
	total time  =      38480 seconds =     641.33 minutes

    Psi4 stopped on: Saturday, 27 January 2024 10:55AM
    Psi4 wall time for execution: 10:41:21.57

*** Psi4 exiting successfully. Buy a developer a beer!
