
    -----------------------------------------------------------------------
          Psi4: An Open-Source Ab Initio Electronic Structure Package
                               Psi4 1.9 release

                         Git: Rev {} zzzzzzz 


    D. G. A. Smith, L. A. Burns, A. C. Simmonett, R. M. Parrish,
    M. C. Schieber, R. Galvelis, P. Kraus, H. Kruse, R. Di Remigio,
    A. Alenaizan, A. M. James, S. Lehtola, J. P. Misiewicz, M. Scheurer,
    R. A. Shaw, J. B. Schriber, Y. Xie, Z. L. Glick, D. A. Sirianni,
    J. S. O'Brien, J. M. Waldrop, A. Kumar, E. G. Hohenstein,
    B. P. Pritchard, B. R. Brooks, H. F. Schaefer III, A. Yu. Sokolov,
    K. Patkowski, A. E. DePrince III, U. Bozkaya, R. A. King,
    F. A. Evangelista, J. M. Turney, T. D. Crawford, C. D. Sherrill,
    J. Chem. Phys. 152(18) 184108 (2020). https://doi.org/10.1063/5.0006002

                            Additional Code Authors
    E. T. Seidl, C. L. Janssen, E. F. Valeev, M. L. Leininger,
    J. F. Gonthier, R. M. Richard, H. R. McAlexander, M. Saitow, X. Wang,
    P. Verma, M. H. Lechner, A. Jiang, S. Behnle, A. G. Heide,
    M. F. Herbst, and D. L. Poole

             Previous Authors, Complete List of Code Contributors,
                       and Citations for Specific Modules
    https://github.com/psi4/psi4/blob/master/codemeta.json
    https://github.com/psi4/psi4/graphs/contributors
    http://psicode.org/psi4manual/master/introduction.html#citing-psifour

    -----------------------------------------------------------------------


    Psi4 started on: Monday, 22 January 2024 11:58AM

    Process ID: 1549094
    Host:       d-17-1-1
    PSIDATADIR: /home/gridsan/tfroembgen/.conda/envs/psi4test/share/psi4
    Memory:     500.0 MiB
    Threads:    12
    
  ==> Input File <==

--------------------------------------------------------------------------
memory 32 GB # how much memory is available ! Depends on the nodes/cores !

molecule dimer {
# monomer A
-1 1    # Charge and multiplicity
B -0.000046  0.000337 5.199994
F -1.153597  0.000048 6.015641
F  1.153661 -0.000581 6.015641
F -0.000019 -1.153637 4.384360
F -0.000019  1.153978 4.384360
--
# monomer B
0 1     # Charge and multiplicity
C   1.22531237526482      0.70753866091955      0.00613762728373
C   1.22532433589282     -0.70753852257020     -0.00619318228664
C   -0.00000567409046      1.41496628609039     -0.00672680580738
C   2.45644923379077      1.41832825917820      0.00902448468363
C   0.00001130712078     -1.41497612663474      0.00347275151708
C   -1.22530046906674      0.70754574598412      0.00838914760619
C   2.45643823516184     -1.41832293188077     -0.00843833914343
C   -0.00000085313587      2.83680140328112     -0.00913035594137
C   3.68182717731192      0.70931832800114     -0.00808954934571
C   2.45512052870677      2.83422403348893     -0.00819210630633
C   3.68182158506039     -0.70933346742900      0.00798293467272
C   -1.22531311884624     -0.70752714354401     -0.00512042085974
C   1.22670006104402      3.54346985599427      0.00816696660346
C   0.00000526469929     -2.83678176723568      0.00832091913869
C   -2.45643555300670      1.41831729028492      0.00842454345199
C   2.45512389762097     -2.83422965658853      0.00783102630520
C   -1.22671388474763      3.54346943575023      0.00827029982280
C   4.91451777504333      1.42717324448953     -0.00160886631602
C   3.69315067131765      3.54279566454522     -0.00155906667985
C   -2.45643712022637     -1.41831290883911     -0.00846337726810
C   1.22670532178455     -3.54347386990643     -0.00780316414624
C   -2.45512491866593      2.83421703463423     -0.00818572995999
C   4.91452486062398     -1.42718653794377      0.00136387641845
C   1.22142509354026      4.97013443726031      0.00150231067809
C   4.89300870916237      2.82518837202648     -0.00039219795739
C   -1.22669652864725     -3.54347062507680     -0.00753595973677
C   -3.68181849668397      0.70932533873199     -0.00807686886569
C   3.69314758099218     -3.54280096939050      0.00148176697923
C   -1.22143177215231      4.97012866986289      0.00168580605083
C   6.13477145276790      0.68054831910577     -0.00083909176631
C   3.65678936045204      4.97295361556775     -0.00065042889723
C   -2.45512642789169     -2.83421472106065      0.00758666850712
C   -3.68181869921921     -0.70932533146830      0.00810055625144
C   4.89301309775526     -2.82519973363176      0.00021895393805
C   -0.00000059327114      5.65044773803267      0.00045449734393
C   6.13477559217374     -0.68055448207492      0.00042622874941
C   2.47813196269732      5.65357712333155      0.00063835075260
C   1.22142288457925     -4.97012668293268     -0.00129718634452
C   -3.69316190412301      3.54279732619245     -0.00139355922051
C   -1.22142804110313     -4.97011793159564     -0.00140994817719
C   -4.91452132810043      1.42717581899491     -0.00153192130862
C   3.65678749952045     -4.97295485423912      0.00080007163680
C   -2.47813805026426      5.65357479452875      0.00092287576113
C   -3.69314125872231     -3.54278984697859      0.00136564082345
C   -4.91451200321153     -1.42718062802730      0.00139857359209
C   -0.00000552908399     -5.65043791501335      0.00005899322272
C   -4.89302000425900      2.82518897091939     -0.00040227981744
C   2.47812647313991     -5.65357317188818     -0.00029052915548
C   -3.65679823041642      4.97295655404175     -0.00047374852278
C   -4.89299899901461     -2.82519139505969      0.00006491824035
C   -2.47812801824129     -5.65356579800621     -0.00056571680280
C   -6.13477002348955      0.68054913825639     -0.00086464346868
C   -3.65678835334731     -4.97294365097028      0.00058578382008
C   -6.13476456307132     -0.68055354348201      0.00040575295444
H   5.83528897565761      3.36927626695423      0.00396712770529
H   7.07385965258860      1.22821762089947     -0.00037744837300
H   4.60066374401555      5.51238117445323     -0.00014522814529
H   5.83528386714679     -3.36930568472863     -0.00423551337640
H   -0.00001167146422      6.73853104613662     -0.00389474766392
H   7.07386165167227     -1.22822657074368     -0.00008250934481
H   2.47331421164041      6.74068466339473      0.00017162982210
H   4.60066897122302     -5.51237575717576      0.00039007446835
H   -2.47331820069565      6.74068209160650      0.00047297644710
H   -0.00000978838621     -6.73852780445195      0.00458867820736
H   -5.83530143450167      3.36927132229595      0.00410314985360
H   2.47330840367253     -6.74068500242887      0.00027980126949
H   -4.60067436136587      5.51237839860371      0.00002010017831
H   -5.83527902699321     -3.36928859177951     -0.00451481925734
H   -2.47329986759855     -6.74067870613986     -0.00016951527498
H   -7.07385728692578      1.22822084484047     -0.00046143985387
H   -4.60067330624313     -5.51236229778631      0.00021776644566
H   -7.07385645456741     -1.22822025997701     -0.00017736581114

    units angstrom      # Angstroms are the default
    no_reorient         # Geometry fixed, default
    symmetry c1         # C1 symmetry, default
}

set {
    scf_type DF         # Density fitting, faster than exact integrals
    freeze_core True    # Freeze core electrons
    basis jun-cc-pVDZ   # Jun-cc-pVDZ basis set, recommended for sSAPT0 in https://doi.org/10.1063/1.4867135
}

energy('ssapt0')        # Compute sSAPT0 energy, includes also SAPT0
--------------------------------------------------------------------------

  Memory set to  29.802 GiB by Python driver.

Scratch directory: /state/partition1/slurm_tmp/24792925.4294967291.0/
   => Loading Basis Set <=

    Name: JUN-CC-PVDZ
    Role: ORBITAL
    Keyword: BASIS
    atoms 1     entry B          line   130 file /home/gridsan/tfroembgen/.conda/envs/psi4test/share/psi4/basis/jun-cc-pvdz.gbs 
    atoms 2-5   entry F          line   266 file /home/gridsan/tfroembgen/.conda/envs/psi4test/share/psi4/basis/jun-cc-pvdz.gbs 
    atoms 6-59  entry C          line   164 file /home/gridsan/tfroembgen/.conda/envs/psi4test/share/psi4/basis/jun-cc-pvdz.gbs 
    atoms 60-77 entry H          line    36 file /home/gridsan/tfroembgen/.conda/envs/psi4test/share/psi4/basis/jun-cc-pvdz.gbs 

   => Loading Basis Set <=

    Name: JUN-CC-PVDZ
    Role: ORBITAL
    Keyword: BASIS
    atoms 1     entry B          line   130 file /home/gridsan/tfroembgen/.conda/envs/psi4test/share/psi4/basis/jun-cc-pvdz.gbs 
    atoms 2-5   entry F          line   266 file /home/gridsan/tfroembgen/.conda/envs/psi4test/share/psi4/basis/jun-cc-pvdz.gbs 
    atoms 6-59  entry C          line   164 file /home/gridsan/tfroembgen/.conda/envs/psi4test/share/psi4/basis/jun-cc-pvdz.gbs 
    atoms 60-77 entry H          line    36 file /home/gridsan/tfroembgen/.conda/envs/psi4test/share/psi4/basis/jun-cc-pvdz.gbs 


  //>>>>>>>>>>>>>>>>>>>>>>>>>>>>>>>>>>>//
  //              Dimer HF             //
  //<<<<<<<<<<<<<<<<<<<<<<<<<<<<<<<<<<<//

   => Libint2 <=

    Primary   basis highest AM E, G, H:  7, 7, 4
    Auxiliary basis highest AM E, G, H:  7, 7, 5
    Onebody   basis highest AM E, G, H:  7, 7, 5
    Solid Harmonics ordering:            gaussian

*** tstart() called on d-17-1-1
*** at Mon Jan 22 11:58:16 2024

   => Loading Basis Set <=

    Name: JUN-CC-PVDZ
    Role: ORBITAL
    Keyword: BASIS
    atoms 1     entry B          line   130 file /home/gridsan/tfroembgen/.conda/envs/psi4test/share/psi4/basis/jun-cc-pvdz.gbs 
    atoms 2-5   entry F          line   266 file /home/gridsan/tfroembgen/.conda/envs/psi4test/share/psi4/basis/jun-cc-pvdz.gbs 
    atoms 6-59  entry C          line   164 file /home/gridsan/tfroembgen/.conda/envs/psi4test/share/psi4/basis/jun-cc-pvdz.gbs 
    atoms 60-77 entry H          line    36 file /home/gridsan/tfroembgen/.conda/envs/psi4test/share/psi4/basis/jun-cc-pvdz.gbs 


         ---------------------------------------------------------
                                   SCF
               by Justin Turney, Rob Parrish, Andy Simmonett
                          and Daniel G. A. Smith
                              RHF Reference
                       12 Threads,  30517 MiB Core
         ---------------------------------------------------------

  ==> Geometry <==

    Molecular point group: c1
    Full point group: C1

    Geometry (in Angstrom), charge = -1, multiplicity = 1:

       Center              X                  Y                   Z               Mass       
    ------------   -----------------  -----------------  -----------------  -----------------
         B           -0.000046449334     0.000336519434     4.599293993215    11.009305360000
         F           -1.153597449334     0.000047519434     5.414940993215    18.998403162730
         F            1.153660550666    -0.000581480566     5.414940993215    18.998403162730
         F           -0.000019449334    -1.153637480566     3.783659993215    18.998403162730
         F           -0.000019449334     1.153977519434     3.783659993215    18.998403162730
         C            1.225311925931     0.707538180353    -0.594562379501    12.000000000000
         C            1.225323886559    -0.707539003137    -0.606893189071    12.000000000000
         C           -0.000006123424     1.414965805524    -0.607426812592    12.000000000000
         C            2.456448784457     1.418327778612    -0.591675522101    12.000000000000
         C            0.000010857787    -1.414976607201    -0.597227255268    12.000000000000
         C           -1.225300918401     0.707545265418    -0.592310859179    12.000000000000
         C            2.456437785828    -1.418323412447    -0.609138345928    12.000000000000
         C           -0.000001302470     2.836800922715    -0.609830362726    12.000000000000
         C            3.681826727978     0.709317847435    -0.608789556130    12.000000000000
         C            2.455120079373     2.834223552923    -0.608892113091    12.000000000000
         C            3.681821135726    -0.709333947995    -0.592717072112    12.000000000000
         C           -1.225313568180    -0.707527624110    -0.605820427644    12.000000000000
         C            1.226699611710     3.543469375428    -0.592533040181    12.000000000000
         C            0.000004815365    -2.836782247802    -0.592379087646    12.000000000000
         C           -2.456436002341     1.418316809719    -0.592275463333    12.000000000000
         C            2.455123448287    -2.834230137155    -0.592868980480    12.000000000000
         C           -1.226714334082     3.543468955184    -0.592429706962    12.000000000000
         C            4.914517325709     1.427172763923    -0.602308873101    12.000000000000
         C            3.693150221984     3.542795183979    -0.602259073465    12.000000000000
         C           -2.456437569560    -1.418313389406    -0.609163384053    12.000000000000
         C            1.226704872451    -3.543474350473    -0.608503170931    12.000000000000
         C           -2.455125368000     2.834216554068    -0.608885736745    12.000000000000
         C            4.914524411290    -1.427187018510    -0.599336130366    12.000000000000
         C            1.221424644206     4.970133956694    -0.599197696107    12.000000000000
         C            4.893008259828     2.825187891460    -0.601092204742    12.000000000000
         C           -1.226696977981    -3.543471105643    -0.608235966521    12.000000000000
         C           -3.681818946018     0.709324858166    -0.608776875650    12.000000000000
         C            3.693147131658    -3.542801449957    -0.599218239805    12.000000000000
         C           -1.221432221486     4.970128189296    -0.599014200734    12.000000000000
         C            6.134771003434     0.680547838539    -0.601539098551    12.000000000000
         C            3.656788911118     4.972953135001    -0.601350435682    12.000000000000
         C           -2.455126877226    -2.834215201627    -0.593113338278    12.000000000000
         C           -3.681819148553    -0.709325812035    -0.592599450533    12.000000000000
         C            4.893012648421    -2.825200214198    -0.600481052847    12.000000000000
         C           -0.000001042605     5.650447257466    -0.600245509441    12.000000000000
         C            6.134775142840    -0.680554962641    -0.600273778035    12.000000000000
         C            2.478131513363     5.653576642765    -0.600061656032    12.000000000000
         C            1.221422435245    -4.970127163499    -0.601997193129    12.000000000000
         C           -3.693162353457     3.542796845626    -0.602093566005    12.000000000000
         C           -1.221428490437    -4.970118412162    -0.602109954962    12.000000000000
         C           -4.914521777434     1.427175338429    -0.602231928093    12.000000000000
         C            3.656787050187    -4.972955334806    -0.599899935148    12.000000000000
         C           -2.478138499598     5.653574313962    -0.599777131024    12.000000000000
         C           -3.693141708056    -3.542790327545    -0.599334365961    12.000000000000
         C           -4.914512452545    -1.427181108594    -0.599301433193    12.000000000000
         C           -0.000005978418    -5.650438395580    -0.600641013562    12.000000000000
         C           -4.893020453593     2.825188490353    -0.601102286602    12.000000000000
         C            2.478126023806    -5.653573652455    -0.600990535940    12.000000000000
         C           -3.656798679750     4.972956073475    -0.601173755307    12.000000000000
         C           -4.892999448349    -2.825191875626    -0.600635088544    12.000000000000
         C           -2.478128467575    -5.653566278573    -0.601265723588    12.000000000000
         C           -6.134770472823     0.680548657690    -0.601564650253    12.000000000000
         C           -3.656788802681    -4.972944131537    -0.600114222965    12.000000000000
         C           -6.134765012405    -0.680554024048    -0.600294253830    12.000000000000
         H            5.835288526324     3.369275786388    -0.596732879079     1.007825032230
         H            7.073859203255     1.228217140333    -0.601077455158     1.007825032230
         H            4.600663294682     5.512380693887    -0.600845234930     1.007825032230
         H            5.835283417813    -3.369306165295    -0.604935520161     1.007825032230
         H           -0.000012120798     6.738530565570    -0.604594754449     1.007825032230
         H            7.073861202338    -1.228227051310    -0.600782516130     1.007825032230
         H            2.473313762307     6.740684182828    -0.600528376963     1.007825032230
         H            4.600668521889    -5.512376237742    -0.600309932316     1.007825032230
         H           -2.473318650030     6.740681611040    -0.600227030338     1.007825032230
         H           -0.000010237720    -6.738528285018    -0.596111328577     1.007825032230
         H           -5.835301883836     3.369270841730    -0.596596856931     1.007825032230
         H            2.473307954339    -6.740685482995    -0.600420205515     1.007825032230
         H           -4.600674810700     5.512377918037    -0.600679906606     1.007825032230
         H           -5.835279476327    -3.369289072346    -0.605214826042     1.007825032230
         H           -2.473300316932    -6.740679186706    -0.600869522060     1.007825032230
         H           -7.073857736260     1.228220364274    -0.601161446639     1.007825032230
         H           -4.600673755577    -5.512362778353    -0.600482240339     1.007825032230
         H           -7.073856903901    -1.228220740543    -0.600877372596     1.007825032230

  Running in c1 symmetry.

  Rotational constants: A =      0.00172  B =      0.00172  C =      0.00110 [cm^-1]
  Rotational constants: A =     51.65993  B =     51.65356  C =     33.02250 [MHz]
  Nuclear repulsion = 7705.888979468736579

  Charge       = -1
  Multiplicity = 1
  Electrons    = 384
  Nalpha       = 192
  Nbeta        = 192

  ==> Algorithm <==

  SCF Algorithm Type is DF.
  DIIS enabled.
  MOM disabled.
  Fractional occupation disabled.
  Guess Type is SAD.
  Energy threshold   = 1.00e-08
  Density threshold  = 1.00e-08
  Integral threshold = 1.00e-12

  ==> Primary Basis <==

  Basis Set: JUN-CC-PVDZ
    Blend: JUN-CC-PVDZ
    Number of shells: 526
    Number of basis functions: 1152
    Number of Cartesian functions: 1211
    Spherical Harmonics?: true
    Max angular momentum: 2

   => Loading Basis Set <=

    Name: (JUN-CC-PVDZ AUX)
    Role: JKFIT
    Keyword: DF_BASIS_SCF
    atoms 1     entry B          line    90 file /home/gridsan/tfroembgen/.conda/envs/psi4test/share/psi4/basis/jun-cc-pvdz-jkfit.gbs 
    atoms 2-5   entry F          line   314 file /home/gridsan/tfroembgen/.conda/envs/psi4test/share/psi4/basis/jun-cc-pvdz-jkfit.gbs 
    atoms 6-59  entry C          line   146 file /home/gridsan/tfroembgen/.conda/envs/psi4test/share/psi4/basis/jun-cc-pvdz-jkfit.gbs 
    atoms 60-77 entry H          line    70 file /home/gridsan/tfroembgen/.conda/envs/psi4test/share/psi4/basis/jun-cc-pvdz-jkfit.gbs 

  ==> Integral Setup <==

  ==> DiskDFJK: Density-Fitted J/K Matrices <==

    J tasked:                  Yes
    K tasked:                  Yes
    wK tasked:                  No
    OpenMP threads:             12
    Integrals threads:          12
    Memory [MiB]:            22888
    Algorithm:                Core
    Integral Cache:           SAVE
    Schwarz Cutoff:          1E-12
    Fitting Condition:       1E-10

   => Auxiliary Basis Set <=

  Basis Set: (JUN-CC-PVDZ AUX)
    Blend: JUN-CC-PVDZ-JKFIT
    Number of shells: 1755
    Number of basis functions: 5075
    Number of Cartesian functions: 5819
    Spherical Harmonics?: true
    Max angular momentum: 3

  Minimum eigenvalue in the overlap matrix is 8.2372497138E-10.
  Reciprocal condition number of the overlap matrix is 3.6413670412E-11.
    Using canonical orthogonalization.
  Overall, 14 of 1152 possible MOs eliminated.


  ==> Pre-Iterations <==

  SCF Guess: Superposition of Atomic Densities via on-the-fly atomic UHF (no occupation information).

   -------------------------
    Irrep   Nso     Nmo    
   -------------------------
     A       1152    1138 
   -------------------------
    Total    1152    1138
   -------------------------

  ==> Iterations <==

                           Total Energy        Delta E     RMS |[F,P]|

   @DF-RHF iter SAD: -2483.27117807099739   -2.48327e+03   0.00000e+00 
   @DF-RHF iter   1: -2477.61307662860008    5.65810e+00   1.10341e-03 ADIIS/DIIS
   @DF-RHF iter   2: -2478.50629663348445   -8.93220e-01   4.82240e-04 ADIIS/DIIS
   @DF-RHF iter   3: -2478.64288391095170   -1.36587e-01   1.35131e-04 ADIIS/DIIS
   @DF-RHF iter   4: -2478.65645192607417   -1.35680e-02   5.80311e-05 DIIS
   @DF-RHF iter   5: -2478.65924651637579   -2.79459e-03   1.67694e-05 DIIS
   @DF-RHF iter   6: -2478.65954935607078   -3.02840e-04   5.40111e-06 DIIS
   @DF-RHF iter   7: -2478.65963121187588   -8.18558e-05   2.66091e-06 DIIS
   @DF-RHF iter   8: -2478.65965386256721   -2.26507e-05   1.21331e-06 DIIS
   @DF-RHF iter   9: -2478.65966056721300   -6.70465e-06   2.55732e-07 DIIS
   @DF-RHF iter  10: -2478.65966079533882   -2.28126e-07   9.06922e-08 DIIS
   @DF-RHF iter  11: -2478.65966081249508   -1.71563e-08   3.55003e-08 DIIS
   @DF-RHF iter  12: -2478.65966081610986   -3.61479e-09   1.34806e-08 DIIS
   @DF-RHF iter  13: -2478.65966081652141   -4.11546e-10   5.96362e-09 DIIS
  Energy and wave function converged.


  ==> Post-Iterations <==

    Orbital Energies [Eh]
    ---------------------

    Doubly Occupied:                                                      

       1A    -26.068501     2A    -26.068321     3A    -26.067299  
       4A    -26.067264     5A    -11.189926     6A    -11.189925  
       7A    -11.189869     8A    -11.189869     9A    -11.189804  
      10A    -11.189802    11A    -11.189749    12A    -11.189748  
      13A    -11.189706    14A    -11.189665    15A    -11.189620  
      16A    -11.189577    17A    -11.187472    18A    -11.187449  
      19A    -11.187331    20A    -11.187254    21A    -11.187154  
      22A    -11.187060    23A    -11.186731    24A    -11.186619  
      25A    -11.186545    26A    -11.186503    27A    -11.186502  
      28A    -11.186407    29A    -11.186389    30A    -11.186386  
      31A    -11.186337    32A    -11.186209    33A    -11.186184  
      34A    -11.186127    35A    -11.185686    36A    -11.185622  
      37A    -11.185511    38A    -11.185397    39A    -11.185363  
      40A    -11.185262    41A    -11.185250    42A    -11.185134  
      43A    -11.185133    44A    -11.184976    45A    -11.184970  
      46A    -11.184967    47A    -11.184966    48A    -11.184954  
      49A    -11.184927    50A    -11.183973    51A    -11.183954  
      52A    -11.183448    53A    -11.183272    54A    -11.183271  
      55A    -11.183231    56A    -11.183231    57A    -11.183070  
      58A    -11.183017    59A     -7.539965    60A     -1.411738  
      61A     -1.352523    62A     -1.351959    63A     -1.351430  
      64A     -1.171419    65A     -1.149149    66A     -1.148932  
      67A     -1.119857    68A     -1.119847    69A     -1.109451  
      70A     -1.088987    71A     -1.079547    72A     -1.064775  
      73A     -1.064599    74A     -1.044758    75A     -1.044740  
      76A     -1.012273    77A     -1.012257    78A     -1.008256  
      79A     -0.997825    80A     -0.997818    81A     -0.970426  
      82A     -0.953286    83A     -0.950640    84A     -0.950555  
      85A     -0.949442    86A     -0.944895    87A     -0.917182  
      88A     -0.917158    89A     -0.893246    90A     -0.893233  
      91A     -0.825907    92A     -0.825885    93A     -0.817052  
      94A     -0.815132    95A     -0.814977    96A     -0.811531  
      97A     -0.811492    98A     -0.793458    99A     -0.770446  
     100A     -0.749517   101A     -0.746347   102A     -0.742515  
     103A     -0.742430   104A     -0.726820   105A     -0.726811  
     106A     -0.676456   107A     -0.675119   108A     -0.664199  
     109A     -0.664173   110A     -0.663614   111A     -0.663526  
     112A     -0.647294   113A     -0.630599   114A     -0.630513  
     115A     -0.624684   116A     -0.624602   117A     -0.603011  
     118A     -0.593455   119A     -0.583835   120A     -0.582717  
     121A     -0.582709   122A     -0.581163   123A     -0.571225  
     124A     -0.571171   125A     -0.560418   126A     -0.558355  
     127A     -0.558315   128A     -0.540239   129A     -0.532536  
     130A     -0.531993   131A     -0.531646   132A     -0.531561  
     133A     -0.529415   134A     -0.529150   135A     -0.528975  
     136A     -0.524335   137A     -0.520867   138A     -0.520781  
     139A     -0.518674   140A     -0.505124   141A     -0.504884  
     142A     -0.499870   143A     -0.499864   144A     -0.496616  
     145A     -0.496541   146A     -0.489179   147A     -0.487180  
     148A     -0.487131   149A     -0.470895   150A     -0.470887  
     151A     -0.468302   152A     -0.468301   153A     -0.461117  
     154A     -0.455762   155A     -0.454313   156A     -0.454236  
     157A     -0.448052   158A     -0.448014   159A     -0.433013  
     160A     -0.427198   161A     -0.425285   162A     -0.418443  
     163A     -0.415648   164A     -0.412937   165A     -0.412923  
     166A     -0.409328   167A     -0.409239   168A     -0.409121  
     169A     -0.398905   170A     -0.398703   171A     -0.386012  
     172A     -0.385717   173A     -0.385433   174A     -0.380566  
     175A     -0.380434   176A     -0.370949   177A     -0.370913  
     178A     -0.334052   179A     -0.334049   180A     -0.332248  
     181A     -0.307752   182A     -0.307721   183A     -0.279845  
     184A     -0.264834   185A     -0.263580   186A     -0.263439  
     187A     -0.242618   188A     -0.231109   189A     -0.213302  
     190A     -0.213219   191A     -0.155600   192A     -0.155588  

    Virtual:                                                              

     193A      0.082861   194A      0.082996   195A      0.103364  
     196A      0.103448   197A      0.105245   198A      0.105820  
     199A      0.105843   200A      0.112610   201A      0.116786  
     202A      0.127769   203A      0.127777   204A      0.134799  
     205A      0.134851   206A      0.142132   207A      0.142530  
     208A      0.142533   209A      0.148831   210A      0.148888  
     211A      0.149707   212A      0.149770   213A      0.149832  
     214A      0.154292   215A      0.155892   216A      0.156585  
     217A      0.156599   218A      0.162276   219A      0.164470  
     220A      0.170634   221A      0.170690   222A      0.172990  
     223A      0.175282   224A      0.181399   225A      0.181463  
     226A      0.183941   227A      0.185136   228A      0.186176  
     229A      0.186371   230A      0.186993   231A      0.188050  
     232A      0.189402   233A      0.189870   234A      0.193722  
     235A      0.194355   236A      0.194389   237A      0.201422  
     238A      0.209365   239A      0.209497   240A      0.209675  
     241A      0.210378   242A      0.213251   243A      0.214093  
     244A      0.214257   245A      0.218478   246A      0.218505  
     247A      0.230322   248A      0.232689   249A      0.232935  
     250A      0.239364   251A      0.243149   252A      0.244538  
     253A      0.244607   254A      0.245876   255A      0.246991  
     256A      0.247927   257A      0.249735   258A      0.249836  
     259A      0.254645   260A      0.255507   261A      0.257376  
     262A      0.261188   263A      0.261302   264A      0.262999  
     265A      0.263035   266A      0.264575   267A      0.269215  
     268A      0.269282   269A      0.271142   270A      0.271752  
     271A      0.272242   272A      0.273523   273A      0.273745  
     274A      0.275358   275A      0.278018   276A      0.285201  
     277A      0.285881   278A      0.286235   279A      0.287480  
     280A      0.288127   281A      0.289012   282A      0.291353  
     283A      0.291369   284A      0.292540   285A      0.294755  
     286A      0.295963   287A      0.298157   288A      0.298184  
     289A      0.304104   290A      0.304107   291A      0.304914  
     292A      0.307101   293A      0.314830   294A      0.316675  
     295A      0.317307   296A      0.318192   297A      0.319125  
     298A      0.319593   299A      0.321151   300A      0.322502  
     301A      0.325984   302A      0.327189   303A      0.334165  
     304A      0.334256   305A      0.336091   306A      0.336244  
     307A      0.340699   308A      0.344877   309A      0.346131  
     310A      0.346933   311A      0.348984   312A      0.350686  
     313A      0.355165   314A      0.355951   315A      0.356090  
     316A      0.358198   317A      0.361194   318A      0.362414  
     319A      0.365068   320A      0.365262   321A      0.366475  
     322A      0.371585   323A      0.371664   324A      0.371932  
     325A      0.373271   326A      0.373690   327A      0.374347  
     328A      0.378619   329A      0.379611   330A      0.379820  
     331A      0.380695   332A      0.383897   333A      0.384072  
     334A      0.384108   335A      0.384576   336A      0.389798  
     337A      0.390427   338A      0.394687   339A      0.397273  
     340A      0.397842   341A      0.399897   342A      0.402281  
     343A      0.403861   344A      0.405428   345A      0.406568  
     346A      0.407356   347A      0.408446   348A      0.413115  
     349A      0.414986   350A      0.415827   351A      0.416048  
     352A      0.416659   353A      0.419731   354A      0.422419  
     355A      0.429110   356A      0.430981   357A      0.432242  
     358A      0.434491   359A      0.436130   360A      0.438236  
     361A      0.440315   362A      0.442708   363A      0.445224  
     364A      0.446300   365A      0.446554   366A      0.450452  
     367A      0.451844   368A      0.454153   369A      0.454250  
     370A      0.455960   371A      0.456019   372A      0.457247  
     373A      0.457761   374A      0.457891   375A      0.460501  
     376A      0.463406   377A      0.463704   378A      0.463853  
     379A      0.463989   380A      0.468514   381A      0.470135  
     382A      0.470401   383A      0.472473   384A      0.476112  
     385A      0.476838   386A      0.481029   387A      0.481910  
     388A      0.482319   389A      0.482808   390A      0.482889  
     391A      0.483612   392A      0.484362   393A      0.485887  
     394A      0.490480   395A      0.491207   396A      0.491311  
     397A      0.493622   398A      0.493927   399A      0.496149  
     400A      0.503247   401A      0.503797   402A      0.504450  
     403A      0.505223   404A      0.505592   405A      0.507321  
     406A      0.507561   407A      0.510648   408A      0.511467  
     409A      0.513970   410A      0.515728   411A      0.517624  
     412A      0.518205   413A      0.518421   414A      0.518720  
     415A      0.520795   416A      0.530094   417A      0.530723  
     418A      0.530833   419A      0.535223   420A      0.536401  
     421A      0.537993   422A      0.540126   423A      0.540491  
     424A      0.541890   425A      0.542602   426A      0.547545  
     427A      0.548000   428A      0.553881   429A      0.554056  
     430A      0.555690   431A      0.557354   432A      0.557372  
     433A      0.560255   434A      0.562342   435A      0.562768  
     436A      0.563518   437A      0.565251   438A      0.566058  
     439A      0.570581   440A      0.572735   441A      0.573125  
     442A      0.573509   443A      0.576681   444A      0.579166  
     445A      0.580662   446A      0.587729   447A      0.588877  
     448A      0.589934   449A      0.591920   450A      0.596472  
     451A      0.599803   452A      0.601915   453A      0.603383  
     454A      0.604706   455A      0.607700   456A      0.607776  
     457A      0.608772   458A      0.613520   459A      0.615472  
     460A      0.617298   461A      0.618722   462A      0.619113  
     463A      0.620335   464A      0.620740   465A      0.628024  
     466A      0.629777   467A      0.633929   468A      0.634007  
     469A      0.634722   470A      0.634832   471A      0.635016  
     472A      0.639938   473A      0.650152   474A      0.651722  
     475A      0.652817   476A      0.664005   477A      0.666115  
     478A      0.667383   479A      0.668847   480A      0.669001  
     481A      0.677401   482A      0.688229   483A      0.688475  
     484A      0.693053   485A      0.695746   486A      0.695776  
     487A      0.698261   488A      0.699156   489A      0.710314  
     490A      0.715489   491A      0.717580   492A      0.722780  
     493A      0.722846   494A      0.728701   495A      0.734491  
     496A      0.738005   497A      0.741851   498A      0.743207  
     499A      0.746106   500A      0.746264   501A      0.755133  
     502A      0.771067   503A      0.783045   504A      0.785140  
     505A      0.785313   506A      0.804738   507A      0.805370  
     508A      0.808330   509A      0.813280   510A      0.813449  
     511A      0.813718   512A      0.816112   513A      0.824957  
     514A      0.825806   515A      0.830624   516A      0.839327  
     517A      0.843864   518A      0.859363   519A      0.867815  
     520A      0.868074   521A      0.873825   522A      0.877663  
     523A      0.881735   524A      0.884736   525A      0.886135  
     526A      0.891145   527A      0.891503   528A      0.894285  
     529A      0.894691   530A      0.895970   531A      0.895989  
     532A      0.905785   533A      0.922562   534A      0.923892  
     535A      0.926198   536A      0.929463   537A      0.932000  
     538A      0.932192   539A      0.934001   540A      0.937511  
     541A      0.943052   542A      0.943116   543A      0.944952  
     544A      0.945360   545A      0.949039   546A      0.955286  
     547A      0.956351   548A      0.956567   549A      0.965210  
     550A      0.965539   551A      0.966656   552A      0.970491  
     553A      0.971423   554A      0.975156   555A      0.977309  
     556A      0.978751   557A      0.979408   558A      0.979686  
     559A      0.983398   560A      0.986620   561A      0.987259  
     562A      0.991574   563A      0.993143   564A      0.996802  
     565A      0.999897   566A      1.002164   567A      1.003275  
     568A      1.004380   569A      1.004593   570A      1.008349  
     571A      1.014489   572A      1.015104   573A      1.015961  
     574A      1.016491   575A      1.029038   576A      1.032073  
     577A      1.034587   578A      1.035750   579A      1.039934  
     580A      1.040360   581A      1.041218   582A      1.042064  
     583A      1.045985   584A      1.047053   585A      1.049943  
     586A      1.051875   587A      1.056642   588A      1.060087  
     589A      1.062234   590A      1.067059   591A      1.071669  
     592A      1.074590   593A      1.077747   594A      1.081550  
     595A      1.082046   596A      1.084565   597A      1.084600  
     598A      1.086990   599A      1.099241   600A      1.100483  
     601A      1.100888   602A      1.102426   603A      1.105417  
     604A      1.107511   605A      1.110357   606A      1.111031  
     607A      1.113641   608A      1.114147   609A      1.114228  
     610A      1.115599   611A      1.117641   612A      1.118531  
     613A      1.121110   614A      1.123257   615A      1.123735  
     616A      1.127582   617A      1.133447   618A      1.137507  
     619A      1.137660   620A      1.140054   621A      1.144063  
     622A      1.145061   623A      1.146709   624A      1.151203  
     625A      1.152874   626A      1.155218   627A      1.156415  
     628A      1.158230   629A      1.159738   630A      1.166277  
     631A      1.166536   632A      1.168938   633A      1.170794  
     634A      1.173963   635A      1.174731   636A      1.176022  
     637A      1.177884   638A      1.178485   639A      1.180018  
     640A      1.184299   641A      1.185165   642A      1.195419  
     643A      1.197673   644A      1.198505   645A      1.199934  
     646A      1.207012   647A      1.209637   648A      1.209839  
     649A      1.211908   650A      1.212022   651A      1.214081  
     652A      1.215003   653A      1.218517   654A      1.219621  
     655A      1.220350   656A      1.223787   657A      1.232208  
     658A      1.245285   659A      1.251720   660A      1.251859  
     661A      1.255244   662A      1.256867   663A      1.257677  
     664A      1.259930   665A      1.265796   666A      1.268118  
     667A      1.270313   668A      1.270791   669A      1.281074  
     670A      1.286718   671A      1.289910   672A      1.290167  
     673A      1.291557   674A      1.291770   675A      1.304674  
     676A      1.305298   677A      1.306262   678A      1.326355  
     679A      1.326460   680A      1.329727   681A      1.330882  
     682A      1.332082   683A      1.332175   684A      1.333188  
     685A      1.336179   686A      1.343148   687A      1.344504  
     688A      1.350055   689A      1.351891   690A      1.361067  
     691A      1.362183   692A      1.365372   693A      1.365690  
     694A      1.366560   695A      1.373276   696A      1.375120  
     697A      1.376861   698A      1.378006   699A      1.378526  
     700A      1.383753   701A      1.387301   702A      1.388069  
     703A      1.392037   704A      1.393790   705A      1.399526  
     706A      1.399807   707A      1.403856   708A      1.409171  
     709A      1.413065   710A      1.416174   711A      1.418197  
     712A      1.423134   713A      1.425580   714A      1.425748  
     715A      1.428405   716A      1.428713   717A      1.432745  
     718A      1.434023   719A      1.440736   720A      1.446398  
     721A      1.449232   722A      1.460795   723A      1.466481  
     724A      1.472771   725A      1.472867   726A      1.479359  
     727A      1.479576   728A      1.480331   729A      1.481333  
     730A      1.488725   731A      1.490841   732A      1.498125  
     733A      1.498178   734A      1.500648   735A      1.504193  
     736A      1.504421   737A      1.508055   738A      1.508423  
     739A      1.508889   740A      1.509222   741A      1.514463  
     742A      1.517424   743A      1.518805   744A      1.519398  
     745A      1.524930   746A      1.537640   747A      1.543275  
     748A      1.547845   749A      1.548188   750A      1.585255  
     751A      1.586183   752A      1.591851   753A      1.591950  
     754A      1.599144   755A      1.622635   756A      1.647036  
     757A      1.648146   758A      1.656685   759A      1.658514  
     760A      1.671499   761A      1.672099   762A      1.676599  
     763A      1.681219   764A      1.681787   765A      1.683811  
     766A      1.686919   767A      1.687869   768A      1.693607  
     769A      1.694224   770A      1.695969   771A      1.706096  
     772A      1.707478   773A      1.710500   774A      1.712026  
     775A      1.714318   776A      1.715347   777A      1.715446  
     778A      1.717145   779A      1.724872   780A      1.730458  
     781A      1.730764   782A      1.736830   783A      1.745006  
     784A      1.745320   785A      1.747640   786A      1.748759  
     787A      1.748921   788A      1.752720   789A      1.757132  
     790A      1.757295   791A      1.764866   792A      1.767130  
     793A      1.767604   794A      1.767743   795A      1.772661  
     796A      1.776734   797A      1.776903   798A      1.784170  
     799A      1.784800   800A      1.811299   801A      1.822146  
     802A      1.827078   803A      1.827533   804A      1.828003  
     805A      1.830889   806A      1.845864   807A      1.845874  
     808A      1.860743   809A      1.860785   810A      1.884421  
     811A      1.884549   812A      1.884970   813A      1.893277  
     814A      1.895653   815A      1.895694   816A      1.900026  
     817A      1.900420   818A      1.908376   819A      1.912835  
     820A      1.915215   821A      1.928377   822A      1.928393  
     823A      1.932258   824A      1.932404   825A      1.932891  
     826A      1.938584   827A      1.942020   828A      1.950444  
     829A      1.950604   830A      1.958922   831A      1.966166  
     832A      1.966260   833A      1.966518   834A      1.969939  
     835A      1.970253   836A      1.978881   837A      1.979030  
     838A      1.983156   839A      1.987061   840A      1.987450  
     841A      1.987816   842A      1.988913   843A      1.991755  
     844A      1.991821   845A      2.006222   846A      2.009453  
     847A      2.010108   848A      2.010928   849A      2.012068  
     850A      2.012518   851A      2.012783   852A      2.024147  
     853A      2.024973   854A      2.025381   855A      2.027388  
     856A      2.028281   857A      2.031497   858A      2.042827  
     859A      2.050533   860A      2.054622   861A      2.054857  
     862A      2.060030   863A      2.064070   864A      2.064296  
     865A      2.065597   866A      2.066282   867A      2.068837  
     868A      2.073254   869A      2.075987   870A      2.076889  
     871A      2.079676   872A      2.082002   873A      2.083093  
     874A      2.098631   875A      2.098856   876A      2.100107  
     877A      2.100450   878A      2.100775   879A      2.101359  
     880A      2.101816   881A      2.118695   882A      2.121355  
     883A      2.122908   884A      2.130372   885A      2.130692  
     886A      2.133073   887A      2.135445   888A      2.139811  
     889A      2.142304   890A      2.143843   891A      2.144007  
     892A      2.150045   893A      2.151000   894A      2.151258  
     895A      2.157540   896A      2.158558   897A      2.160978  
     898A      2.162021   899A      2.162980   900A      2.164855  
     901A      2.166433   902A      2.167918   903A      2.170136  
     904A      2.170307   905A      2.177450   906A      2.177795  
     907A      2.178405   908A      2.182484   909A      2.182638  
     910A      2.186336   911A      2.188180   912A      2.189215  
     913A      2.189544   914A      2.191560   915A      2.192578  
     916A      2.196890   917A      2.197790   918A      2.203471  
     919A      2.203547   920A      2.204398   921A      2.204843  
     922A      2.211559   923A      2.211621   924A      2.225107  
     925A      2.231583   926A      2.231717   927A      2.232221  
     928A      2.233061   929A      2.240900   930A      2.247276  
     931A      2.249098   932A      2.255169   933A      2.258171  
     934A      2.258965   935A      2.261322   936A      2.262802  
     937A      2.268456   938A      2.269302   939A      2.276953  
     940A      2.281552   941A      2.288863   942A      2.291854  
     943A      2.292327   944A      2.295708   945A      2.302466  
     946A      2.303314   947A      2.305875   948A      2.309297  
     949A      2.309961   950A      2.311627   951A      2.312002  
     952A      2.314636   953A      2.327160   954A      2.327536  
     955A      2.338824   956A      2.338987   957A      2.339732  
     958A      2.340990   959A      2.347036   960A      2.368301  
     961A      2.374794   962A      2.382112   963A      2.382955  
     964A      2.392937   965A      2.395979   966A      2.402803  
     967A      2.403392   968A      2.403552   969A      2.406363  
     970A      2.421176   971A      2.422183   972A      2.422502  
     973A      2.423134   974A      2.437022   975A      2.437524  
     976A      2.447336   977A      2.450483   978A      2.483731  
     979A      2.493351   980A      2.493622   981A      2.493769  
     982A      2.504363   983A      2.511458   984A      2.511934  
     985A      2.539931   986A      2.542003   987A      2.542636  
     988A      2.554275   989A      2.554777   990A      2.571551  
     991A      2.587683   992A      2.599045   993A      2.600277  
     994A      2.612550   995A      2.614219   996A      2.614943  
     997A      2.621034   998A      2.621088   999A      2.626336  
    1000A      2.628891  1001A      2.628978  1002A      2.641499  
    1003A      2.641945  1004A      2.642416  1005A      2.642467  
    1006A      2.654159  1007A      2.654313  1008A      2.657508  
    1009A      2.657694  1010A      2.659200  1011A      2.675664  
    1012A      2.691631  1013A      2.691966  1014A      2.697238  
    1015A      2.701608  1016A      2.702341  1017A      2.708887  
    1018A      2.708970  1019A      2.718369  1020A      2.718694  
    1021A      2.724766  1022A      2.752371  1023A      2.752792  
    1024A      2.753720  1025A      2.754468  1026A      2.774191  
    1027A      2.774512  1028A      2.783304  1029A      2.783553  
    1030A      2.788678  1031A      2.788831  1032A      2.792914  
    1033A      2.793141  1034A      2.810255  1035A      2.820703  
    1036A      2.821348  1037A      2.848454  1038A      2.865564  
    1039A      2.865826  1040A      2.886393  1041A      2.897721  
    1042A      2.898073  1043A      2.922612  1044A      2.924058  
    1045A      2.928275  1046A      2.930022  1047A      2.930416  
    1048A      2.930560  1049A      2.937963  1050A      2.983921  
    1051A      2.985565  1052A      2.986262  1053A      2.992756  
    1054A      3.000007  1055A      3.001627  1056A      3.018669  
    1057A      3.019675  1058A      3.032358  1059A      3.032532  
    1060A      3.037425  1061A      3.078286  1062A      3.079445  
    1063A      3.080282  1064A      3.097226  1065A      3.135417  
    1066A      3.135568  1067A      3.140644  1068A      3.141100  
    1069A      3.178608  1070A      3.179613  1071A      3.196200  
    1072A      3.198312  1073A      3.198786  1074A      3.205639  
    1075A      3.215275  1076A      3.215525  1077A      3.215768  
    1078A      3.217041  1079A      3.217228  1080A      3.226731  
    1081A      3.227868  1082A      3.234476  1083A      3.234940  
    1084A      3.258969  1085A      3.278065  1086A      3.289059  
    1087A      3.299303  1088A      3.307317  1089A      3.345986  
    1090A      3.346337  1091A      3.346499  1092A      3.351957  
    1093A      3.353754  1094A      3.487853  1095A      3.488351  
    1096A      3.520578  1097A      3.553790  1098A      3.556877  
    1099A      3.622878  1100A      3.650787  1101A      3.652324  
    1102A      3.666027  1103A      3.696593  1104A      3.698923  
    1105A      3.732691  1106A      3.740530  1107A      3.839497  
    1108A      3.855302  1109A      3.855921  1110A      3.939262  
    1111A      3.939337  1112A      3.982370  1113A      3.982804  
    1114A      4.047963  1115A      4.082115  1116A      4.111067  
    1117A      4.124981  1118A      4.159794  1119A      4.173148  
    1120A      4.173429  1121A      4.174192  1122A      4.201165  
    1123A      4.201374  1124A      4.202106  1125A      4.203809  
    1126A      4.204228  1127A      4.235761  1128A      4.240872  
    1129A      4.248688  1130A      4.448195  1131A      4.448561  
    1132A      4.449109  1133A      4.650535  1134A      4.655290  
    1135A      4.657353  1136A      4.750635  1137A      4.785644  
    1138A      4.787985  

    Final Occupation by Irrep:
              A 
    DOCC [   192 ]
    NA   [   192 ]
    NB   [   192 ]

  @DF-RHF Final Energy: -2478.65966081652141

   => Energetics <=

    Nuclear Repulsion Energy =           7705.8889794687365793
    One-Electron Energy =              -18766.9218795278538892
    Two-Electron Energy =                8582.3732392425954458
    Total Energy =                      -2478.6596608165218640

Computation Completed


Properties will be evaluated at   0.000000,   0.000000,   0.000000 [a0]

Properties computed using the SCF density matrix


 Multipole Moments:

 ------------------------------------------------------------------------------------
     Multipole            Electronic (a.u.)      Nuclear  (a.u.)        Total (a.u.)
 ------------------------------------------------------------------------------------

 L = 1.  Multiply by 2.5417464519 to convert [e a0] to [Debye]
 Dipole X            :         -0.0002154           -0.0000160           -0.0002314
 Dipole Y            :          0.0012891           -0.0001716            0.0011174
 Dipole Z            :         24.2295508          -31.8775598           -7.6480091
 Magnitude           :                                                    7.6480091

 ------------------------------------------------------------------------------------

*** tstop() called on d-17-1-1 at Mon Jan 22 12:05:23 2024
Module time:
	user time   =    3399.16 seconds =      56.65 minutes
	system time =      79.28 seconds =       1.32 minutes
	total time  =        427 seconds =       7.12 minutes
Total time:
	user time   =    3399.16 seconds =      56.65 minutes
	system time =      79.28 seconds =       1.32 minutes
	total time  =        427 seconds =       7.12 minutes

  //>>>>>>>>>>>>>>>>>>>>>>>>>>>>>>>>>>>//
  //            Monomer A HF           //
  //<<<<<<<<<<<<<<<<<<<<<<<<<<<<<<<<<<<//

   => Libint2 <=

    Primary   basis highest AM E, G, H:  7, 7, 4
    Auxiliary basis highest AM E, G, H:  7, 7, 5
    Onebody   basis highest AM E, G, H:  7, 7, 5
    Solid Harmonics ordering:            gaussian

*** tstart() called on d-17-1-1
*** at Mon Jan 22 12:05:23 2024

   => Loading Basis Set <=

    Name: JUN-CC-PVDZ
    Role: ORBITAL
    Keyword: BASIS
    atoms 1     entry B          line   130 file /home/gridsan/tfroembgen/.conda/envs/psi4test/share/psi4/basis/jun-cc-pvdz.gbs 
    atoms 2-5   entry F          line   266 file /home/gridsan/tfroembgen/.conda/envs/psi4test/share/psi4/basis/jun-cc-pvdz.gbs 
    atoms 6-59  entry C          line   164 file /home/gridsan/tfroembgen/.conda/envs/psi4test/share/psi4/basis/jun-cc-pvdz.gbs 
    atoms 60-77 entry H          line    36 file /home/gridsan/tfroembgen/.conda/envs/psi4test/share/psi4/basis/jun-cc-pvdz.gbs 


         ---------------------------------------------------------
                                   SCF
               by Justin Turney, Rob Parrish, Andy Simmonett
                          and Daniel G. A. Smith
                              RHF Reference
                       12 Threads,  30517 MiB Core
         ---------------------------------------------------------

  ==> Geometry <==

    Molecular point group: c1
    Full point group: C1

    Geometry (in Angstrom), charge = -1, multiplicity = 1:

       Center              X                  Y                   Z               Mass       
    ------------   -----------------  -----------------  -----------------  -----------------
         B           -0.000046449334     0.000336519434     4.599293993215    11.009305360000
         F           -1.153597449334     0.000047519434     5.414940993215    18.998403162730
         F            1.153660550666    -0.000581480566     5.414940993215    18.998403162730
         F           -0.000019449334    -1.153637480566     3.783659993215    18.998403162730
         F           -0.000019449334     1.153977519434     3.783659993215    18.998403162730
      Gh(C)           1.225311925931     0.707538180353    -0.594562379501    12.000000000000
      Gh(C)           1.225323886559    -0.707539003137    -0.606893189071    12.000000000000
      Gh(C)          -0.000006123424     1.414965805524    -0.607426812592    12.000000000000
      Gh(C)           2.456448784457     1.418327778612    -0.591675522101    12.000000000000
      Gh(C)           0.000010857787    -1.414976607201    -0.597227255268    12.000000000000
      Gh(C)          -1.225300918401     0.707545265418    -0.592310859179    12.000000000000
      Gh(C)           2.456437785828    -1.418323412447    -0.609138345928    12.000000000000
      Gh(C)          -0.000001302470     2.836800922715    -0.609830362726    12.000000000000
      Gh(C)           3.681826727978     0.709317847435    -0.608789556130    12.000000000000
      Gh(C)           2.455120079373     2.834223552923    -0.608892113091    12.000000000000
      Gh(C)           3.681821135726    -0.709333947995    -0.592717072112    12.000000000000
      Gh(C)          -1.225313568180    -0.707527624110    -0.605820427644    12.000000000000
      Gh(C)           1.226699611710     3.543469375428    -0.592533040181    12.000000000000
      Gh(C)           0.000004815365    -2.836782247802    -0.592379087646    12.000000000000
      Gh(C)          -2.456436002341     1.418316809719    -0.592275463333    12.000000000000
      Gh(C)           2.455123448287    -2.834230137155    -0.592868980480    12.000000000000
      Gh(C)          -1.226714334082     3.543468955184    -0.592429706962    12.000000000000
      Gh(C)           4.914517325709     1.427172763923    -0.602308873101    12.000000000000
      Gh(C)           3.693150221984     3.542795183979    -0.602259073465    12.000000000000
      Gh(C)          -2.456437569560    -1.418313389406    -0.609163384053    12.000000000000
      Gh(C)           1.226704872451    -3.543474350473    -0.608503170931    12.000000000000
      Gh(C)          -2.455125368000     2.834216554068    -0.608885736745    12.000000000000
      Gh(C)           4.914524411290    -1.427187018510    -0.599336130366    12.000000000000
      Gh(C)           1.221424644206     4.970133956694    -0.599197696107    12.000000000000
      Gh(C)           4.893008259828     2.825187891460    -0.601092204742    12.000000000000
      Gh(C)          -1.226696977981    -3.543471105643    -0.608235966521    12.000000000000
      Gh(C)          -3.681818946018     0.709324858166    -0.608776875650    12.000000000000
      Gh(C)           3.693147131658    -3.542801449957    -0.599218239805    12.000000000000
      Gh(C)          -1.221432221486     4.970128189296    -0.599014200734    12.000000000000
      Gh(C)           6.134771003434     0.680547838539    -0.601539098551    12.000000000000
      Gh(C)           3.656788911118     4.972953135001    -0.601350435682    12.000000000000
      Gh(C)          -2.455126877226    -2.834215201627    -0.593113338278    12.000000000000
      Gh(C)          -3.681819148553    -0.709325812035    -0.592599450533    12.000000000000
      Gh(C)           4.893012648421    -2.825200214198    -0.600481052847    12.000000000000
      Gh(C)          -0.000001042605     5.650447257466    -0.600245509441    12.000000000000
      Gh(C)           6.134775142840    -0.680554962641    -0.600273778035    12.000000000000
      Gh(C)           2.478131513363     5.653576642765    -0.600061656032    12.000000000000
      Gh(C)           1.221422435245    -4.970127163499    -0.601997193129    12.000000000000
      Gh(C)          -3.693162353457     3.542796845626    -0.602093566005    12.000000000000
      Gh(C)          -1.221428490437    -4.970118412162    -0.602109954962    12.000000000000
      Gh(C)          -4.914521777434     1.427175338429    -0.602231928093    12.000000000000
      Gh(C)           3.656787050187    -4.972955334806    -0.599899935148    12.000000000000
      Gh(C)          -2.478138499598     5.653574313962    -0.599777131024    12.000000000000
      Gh(C)          -3.693141708056    -3.542790327545    -0.599334365961    12.000000000000
      Gh(C)          -4.914512452545    -1.427181108594    -0.599301433193    12.000000000000
      Gh(C)          -0.000005978418    -5.650438395580    -0.600641013562    12.000000000000
      Gh(C)          -4.893020453593     2.825188490353    -0.601102286602    12.000000000000
      Gh(C)           2.478126023806    -5.653573652455    -0.600990535940    12.000000000000
      Gh(C)          -3.656798679750     4.972956073475    -0.601173755307    12.000000000000
      Gh(C)          -4.892999448349    -2.825191875626    -0.600635088544    12.000000000000
      Gh(C)          -2.478128467575    -5.653566278573    -0.601265723588    12.000000000000
      Gh(C)          -6.134770472823     0.680548657690    -0.601564650253    12.000000000000
      Gh(C)          -3.656788802681    -4.972944131537    -0.600114222965    12.000000000000
      Gh(C)          -6.134765012405    -0.680554024048    -0.600294253830    12.000000000000
      Gh(H)           5.835288526324     3.369275786388    -0.596732879079     1.007825032230
      Gh(H)           7.073859203255     1.228217140333    -0.601077455158     1.007825032230
      Gh(H)           4.600663294682     5.512380693887    -0.600845234930     1.007825032230
      Gh(H)           5.835283417813    -3.369306165295    -0.604935520161     1.007825032230
      Gh(H)          -0.000012120798     6.738530565570    -0.604594754449     1.007825032230
      Gh(H)           7.073861202338    -1.228227051310    -0.600782516130     1.007825032230
      Gh(H)           2.473313762307     6.740684182828    -0.600528376963     1.007825032230
      Gh(H)           4.600668521889    -5.512376237742    -0.600309932316     1.007825032230
      Gh(H)          -2.473318650030     6.740681611040    -0.600227030338     1.007825032230
      Gh(H)          -0.000010237720    -6.738528285018    -0.596111328577     1.007825032230
      Gh(H)          -5.835301883836     3.369270841730    -0.596596856931     1.007825032230
      Gh(H)           2.473307954339    -6.740685482995    -0.600420205515     1.007825032230
      Gh(H)          -4.600674810700     5.512377918037    -0.600679906606     1.007825032230
      Gh(H)          -5.835279476327    -3.369289072346    -0.605214826042     1.007825032230
      Gh(H)          -2.473300316932    -6.740679186706    -0.600869522060     1.007825032230
      Gh(H)          -7.073857736260     1.228220364274    -0.601161446639     1.007825032230
      Gh(H)          -4.600673755577    -5.512362778353    -0.600482240339     1.007825032230
      Gh(H)          -7.073856903901    -1.228220740543    -0.600877372596     1.007825032230

  Running in c1 symmetry.

  Rotational constants: A =      0.00172  B =      0.00172  C =      0.00110 [cm^-1]
  Rotational constants: A =     51.65993  B =     51.65356  C =     33.02250 [MHz]
  Nuclear repulsion =  178.879482610381331

  Charge       = -1
  Multiplicity = 1
  Electrons    = 42
  Nalpha       = 21
  Nbeta        = 21

  ==> Algorithm <==

  SCF Algorithm Type is DF.
  DIIS enabled.
  MOM disabled.
  Fractional occupation disabled.
  Guess Type is SAD.
  Energy threshold   = 1.00e-08
  Density threshold  = 1.00e-08
  Integral threshold = 1.00e-12

  ==> Primary Basis <==

  Basis Set: JUN-CC-PVDZ
    Blend: JUN-CC-PVDZ
    Number of shells: 526
    Number of basis functions: 1152
    Number of Cartesian functions: 1211
    Spherical Harmonics?: true
    Max angular momentum: 2

   => Loading Basis Set <=

    Name: (JUN-CC-PVDZ AUX)
    Role: JKFIT
    Keyword: DF_BASIS_SCF
    atoms 1     entry B          line    90 file /home/gridsan/tfroembgen/.conda/envs/psi4test/share/psi4/basis/jun-cc-pvdz-jkfit.gbs 
    atoms 2-5   entry F          line   314 file /home/gridsan/tfroembgen/.conda/envs/psi4test/share/psi4/basis/jun-cc-pvdz-jkfit.gbs 
    atoms 6-59  entry C          line   146 file /home/gridsan/tfroembgen/.conda/envs/psi4test/share/psi4/basis/jun-cc-pvdz-jkfit.gbs 
    atoms 60-77 entry H          line    70 file /home/gridsan/tfroembgen/.conda/envs/psi4test/share/psi4/basis/jun-cc-pvdz-jkfit.gbs 

  ==> Integral Setup <==

  ==> DiskDFJK: Density-Fitted J/K Matrices <==

    J tasked:                  Yes
    K tasked:                  Yes
    wK tasked:                  No
    OpenMP threads:             12
    Integrals threads:          12
    Memory [MiB]:            22888
    Algorithm:                Core
    Integral Cache:           LOAD
    Schwarz Cutoff:          1E-12
    Fitting Condition:       1E-10

   => Auxiliary Basis Set <=

  Basis Set: (JUN-CC-PVDZ AUX)
    Blend: JUN-CC-PVDZ-JKFIT
    Number of shells: 1755
    Number of basis functions: 5075
    Number of Cartesian functions: 5819
    Spherical Harmonics?: true
    Max angular momentum: 3

  Minimum eigenvalue in the overlap matrix is 8.2372497138E-10.
  Reciprocal condition number of the overlap matrix is 3.6413670412E-11.
    Using canonical orthogonalization.
  Overall, 14 of 1152 possible MOs eliminated.


  ==> Pre-Iterations <==

  SCF Guess: Superposition of Atomic Densities via on-the-fly atomic UHF (no occupation information).

   -------------------------
    Irrep   Nso     Nmo    
   -------------------------
     A       1152    1138 
   -------------------------
    Total    1152    1138
   -------------------------

  ==> Iterations <==

                           Total Energy        Delta E     RMS |[F,P]|

   @DF-RHF iter SAD:  -421.23044603138652   -4.21230e+02   0.00000e+00 
   @DF-RHF iter   1:  -422.65013585677906   -1.41969e+00   5.30113e-04 ADIIS/DIIS
   @DF-RHF iter   2:  -422.73298439956130   -8.28485e-02   3.23259e-04 ADIIS/DIIS
   @DF-RHF iter   3:  -422.77155260793876   -3.85682e-02   1.74183e-05 DIIS
   @DF-RHF iter   4:  -422.77191365063305   -3.61043e-04   2.75977e-06 DIIS
   @DF-RHF iter   5:  -422.77192232030211   -8.66967e-06   7.07367e-07 DIIS
   @DF-RHF iter   6:  -422.77192288700223   -5.66700e-07   1.45682e-07 DIIS
   @DF-RHF iter   7:  -422.77192290834012   -2.13379e-08   1.61272e-08 DIIS
   @DF-RHF iter   8:  -422.77192290856954   -2.29420e-10   6.71278e-09 DIIS
  Energy and wave function converged.


  ==> Post-Iterations <==

    Orbital Energies [Eh]
    ---------------------

    Doubly Occupied:                                                      

       1A    -26.067053     2A    -26.067042     3A    -26.067009  
       4A    -26.066869     5A     -7.539124     6A     -1.410880  
       7A     -1.351193     8A     -1.351173     9A     -1.350988  
      10A     -0.602157    11A     -0.528357    12A     -0.528339  
      13A     -0.528273    14A     -0.447222    15A     -0.447179  
      16A     -0.408427    17A     -0.408376    18A     -0.408327  
      19A     -0.384949    20A     -0.384853    21A     -0.384826  

    Virtual:                                                              

      22A      0.085660    23A      0.086501    24A      0.086685  
      25A      0.093898    26A      0.093907    27A      0.105577  
      28A      0.106233    29A      0.111253    30A      0.122031  
      31A      0.122045    32A      0.126165    33A      0.126192  
      34A      0.138269    35A      0.140048    36A      0.140085  
      37A      0.141615    38A      0.142551    39A      0.142851  
      40A      0.142899    41A      0.151829    42A      0.154566  
      43A      0.154582    44A      0.161417    45A      0.161624  
      46A      0.163662    47A      0.169812    48A      0.173810  
      49A      0.174874    50A      0.175620    51A      0.175666  
      52A      0.181123    53A      0.182475    54A      0.183406  
      55A      0.183677    56A      0.184244    57A      0.184254  
      58A      0.190513    59A      0.190654    60A      0.194734  
      61A      0.195337    62A      0.196322    63A      0.196336  
      64A      0.199425    65A      0.199455    66A      0.201162  
      67A      0.206754    68A      0.206835    69A      0.209629  
      70A      0.209650    71A      0.214682    72A      0.215714  
      73A      0.219357    74A      0.219411    75A      0.219518  
      76A      0.220137    77A      0.221877    78A      0.224972  
      79A      0.225164    80A      0.229111    81A      0.229187  
      82A      0.229312    83A      0.230594    84A      0.237652  
      85A      0.240923    86A      0.240950    87A      0.242266  
      88A      0.242783    89A      0.247200    90A      0.249339  
      91A      0.253870    92A      0.256487    93A      0.257333  
      94A      0.259212    95A      0.259547    96A      0.259634  
      97A      0.261106    98A      0.262630    99A      0.265429  
     100A      0.265431   101A      0.270755   102A      0.270925  
     103A      0.274272   104A      0.275021   105A      0.279357  
     106A      0.279501   107A      0.283688   108A      0.284493  
     109A      0.284617   110A      0.286365   111A      0.286519  
     112A      0.289314   113A      0.290540   114A      0.294274  
     115A      0.295359   116A      0.297911   117A      0.297988  
     118A      0.299921   119A      0.301187   120A      0.301760  
     121A      0.305710   122A      0.311277   123A      0.312694  
     124A      0.319067   125A      0.319644   126A      0.320278  
     127A      0.321080   128A      0.323724   129A      0.323932  
     130A      0.324468   131A      0.325506   132A      0.325595  
     133A      0.332473   134A      0.332918   135A      0.340308  
     136A      0.340533   137A      0.342942   138A      0.344094  
     139A      0.346447   140A      0.347090   141A      0.347351  
     142A      0.348430   143A      0.350425   144A      0.350455  
     145A      0.351557   146A      0.351565   147A      0.359075  
     148A      0.361597   149A      0.367434   150A      0.370940  
     151A      0.373078   152A      0.373272   153A      0.376797  
     154A      0.376884   155A      0.381460   156A      0.387172  
     157A      0.387230   158A      0.389263   159A      0.392694  
     160A      0.393036   161A      0.395099   162A      0.396777  
     163A      0.398052   164A      0.399322   165A      0.400714  
     166A      0.401165   167A      0.405270   168A      0.406431  
     169A      0.407446   170A      0.408439   171A      0.414685  
     172A      0.416462   173A      0.419872   174A      0.425246  
     175A      0.425366   176A      0.427402   177A      0.428443  
     178A      0.431404   179A      0.432902   180A      0.434149  
     181A      0.434738   182A      0.434913   183A      0.435017  
     184A      0.438118   185A      0.439469   186A      0.440465  
     187A      0.444271   188A      0.446805   189A      0.447577  
     190A      0.450369   191A      0.452837   192A      0.452950  
     193A      0.453429   194A      0.455622   195A      0.456788  
     196A      0.458983   197A      0.464901   198A      0.469874  
     199A      0.470939   200A      0.471832   201A      0.476817  
     202A      0.479715   203A      0.479938   204A      0.480765  
     205A      0.481439   206A      0.484167   207A      0.484174  
     208A      0.485214   209A      0.493554   210A      0.495588  
     211A      0.495884   212A      0.497439   213A      0.500863  
     214A      0.502107   215A      0.502894   216A      0.508839  
     217A      0.509214   218A      0.509753   219A      0.510225  
     220A      0.511511   221A      0.511736   222A      0.514478  
     223A      0.516373   224A      0.517511   225A      0.518770  
     226A      0.521039   227A      0.521634   228A      0.523158  
     229A      0.525181   230A      0.526103   231A      0.527375  
     232A      0.527822   233A      0.528113   234A      0.540093  
     235A      0.541677   236A      0.542693   237A      0.547126  
     238A      0.549072   239A      0.551164   240A      0.551890  
     241A      0.555014   242A      0.555871   243A      0.555953  
     244A      0.556728   245A      0.557423   246A      0.557478  
     247A      0.564179   248A      0.569041   249A      0.570827  
     250A      0.571534   251A      0.571966   252A      0.572165  
     253A      0.573469   254A      0.576070   255A      0.580695  
     256A      0.583610   257A      0.584796   258A      0.586583  
     259A      0.587610   260A      0.590010   261A      0.594477  
     262A      0.596979   263A      0.597487   264A      0.597700  
     265A      0.599267   266A      0.600624   267A      0.602572  
     268A      0.603102   269A      0.608544   270A      0.609541  
     271A      0.612312   272A      0.620295   273A      0.620729  
     274A      0.623449   275A      0.629428   276A      0.631229  
     277A      0.638419   278A      0.639466   279A      0.639498  
     280A      0.640857   281A      0.641360   282A      0.646483  
     283A      0.647018   284A      0.648470   285A      0.650698  
     286A      0.651119   287A      0.655600   288A      0.657659  
     289A      0.661431   290A      0.664838   291A      0.667573  
     292A      0.669268   293A      0.671451   294A      0.676889  
     295A      0.677513   296A      0.679254   297A      0.682077  
     298A      0.682175   299A      0.683652   300A      0.684969  
     301A      0.685965   302A      0.686106   303A      0.691088  
     304A      0.694445   305A      0.696527   306A      0.701787  
     307A      0.703623   308A      0.705692   309A      0.708688  
     310A      0.711555   311A      0.712291   312A      0.714590  
     313A      0.715591   314A      0.717191   315A      0.719337  
     316A      0.723825   317A      0.727756   318A      0.733614  
     319A      0.735974   320A      0.738067   321A      0.740987  
     322A      0.743219   323A      0.746880   324A      0.749877  
     325A      0.750186   326A      0.754086   327A      0.755421  
     328A      0.756239   329A      0.765136   330A      0.765228  
     331A      0.767970   332A      0.768288   333A      0.773286  
     334A      0.781190   335A      0.782667   336A      0.784274  
     337A      0.784494   338A      0.787598   339A      0.791568  
     340A      0.793622   341A      0.797420   342A      0.802115  
     343A      0.802249   344A      0.805162   345A      0.805459  
     346A      0.812581   347A      0.813691   348A      0.814959  
     349A      0.815001   350A      0.816001   351A      0.825808  
     352A      0.829249   353A      0.830121   354A      0.830567  
     355A      0.838759   356A      0.839748   357A      0.840173  
     358A      0.843576   359A      0.843658   360A      0.844876  
     361A      0.849688   362A      0.852743   363A      0.855272  
     364A      0.858498   365A      0.859941   366A      0.860396  
     367A      0.861323   368A      0.862866   369A      0.867429  
     370A      0.868684   371A      0.871826   372A      0.873750  
     373A      0.875842   374A      0.876292   375A      0.876429  
     376A      0.876638   377A      0.877676   378A      0.878525  
     379A      0.883522   380A      0.889137   381A      0.898783  
     382A      0.905347   383A      0.905480   384A      0.919591  
     385A      0.919770   386A      0.948186   387A      0.949914  
     388A      0.951414   389A      0.953680   390A      0.954552  
     391A      0.955636   392A      0.964904   393A      0.964972  
     394A      0.970223   395A      0.970502   396A      0.974185  
     397A      0.975802   398A      0.977204   399A      0.978297  
     400A      0.984292   401A      1.009217   402A      1.009908  
     403A      1.016612   404A      1.023257   405A      1.029932  
     406A      1.030027   407A      1.041039   408A      1.041123  
     409A      1.048914   410A      1.053663   411A      1.062069  
     412A      1.062098   413A      1.084449   414A      1.085316  
     415A      1.110352   416A      1.110809   417A      1.131076  
     418A      1.131487   419A      1.133675   420A      1.133838  
     421A      1.133904   422A      1.146234   423A      1.146294  
     424A      1.169211   425A      1.170900   426A      1.171073  
     427A      1.180045   428A      1.234490   429A      1.234802  
     430A      1.237450   431A      1.237729   432A      1.238648  
     433A      1.252001   434A      1.252150   435A      1.252265  
     436A      1.272572   437A      1.272791   438A      1.294625  
     439A      1.294858   440A      1.294950   441A      1.300521  
     442A      1.309956   443A      1.352470   444A      1.353027  
     445A      1.367240   446A      1.374190   447A      1.374422  
     448A      1.381897   449A      1.382047   450A      1.383877  
     451A      1.395166   452A      1.395311   453A      1.405708  
     454A      1.409085   455A      1.434851   456A      1.448295  
     457A      1.448424   458A      1.479147   459A      1.495567  
     460A      1.524390   461A      1.525663   462A      1.541926  
     463A      1.542341   464A      1.549067   465A      1.549568  
     466A      1.549877   467A      1.552022   468A      1.562262  
     469A      1.563603   470A      1.627445   471A      1.633986  
     472A      1.634481   473A      1.638232   474A      1.639560  
     475A      1.647850   476A      1.648494   477A      1.649186  
     478A      1.657425   479A      1.707745   480A      1.716392  
     481A      1.719314   482A      1.731342   483A      1.733208  
     484A      1.739555   485A      1.748933   486A      1.749792  
     487A      1.765030   488A      1.765367   489A      1.766201  
     490A      1.767155   491A      1.781427   492A      1.818158  
     493A      1.819342   494A      1.819877   495A      1.820411  
     496A      1.822227   497A      1.826107   498A      1.830708  
     499A      1.831305   500A      1.841577   501A      1.849365  
     502A      1.850038   503A      1.852558   504A      1.865666  
     505A      1.866939   506A      1.871007   507A      1.872592  
     508A      1.884321   509A      1.891794   510A      1.900506  
     511A      1.902501   512A      1.902829   513A      1.903658  
     514A      1.903762   515A      1.905679   516A      1.906278  
     517A      1.906391   518A      1.911036   519A      1.913520  
     520A      1.917573   521A      1.921038   522A      1.923950  
     523A      1.924771   524A      1.934150   525A      1.934798  
     526A      1.950551   527A      1.953361   528A      1.955026  
     529A      1.956155   530A      1.958450   531A      1.961314  
     532A      1.964658   533A      1.965399   534A      1.965863  
     535A      1.972636   536A      1.983579   537A      1.983825  
     538A      1.985554   539A      1.987100   540A      1.988720  
     541A      1.990440   542A      1.995013   543A      1.996078  
     544A      2.002867   545A      2.005139   546A      2.005608  
     547A      2.007066   548A      2.012184   549A      2.013967  
     550A      2.017781   551A      2.020821   552A      2.027658  
     553A      2.030078   554A      2.045763   555A      2.046107  
     556A      2.046220   557A      2.048296   558A      2.049259  
     559A      2.052511   560A      2.056545   561A      2.062138  
     562A      2.063860   563A      2.064122   564A      2.064259  
     565A      2.064767   566A      2.065950   567A      2.070416  
     568A      2.071326   569A      2.073609   570A      2.075792  
     571A      2.076724   572A      2.078055   573A      2.078893  
     574A      2.081205   575A      2.100583   576A      2.104220  
     577A      2.105619   578A      2.107166   579A      2.145368  
     580A      2.146170   581A      2.148069   582A      2.149887  
     583A      2.153053   584A      2.154904   585A      2.157149  
     586A      2.159731   587A      2.163632   588A      2.169923  
     589A      2.170194   590A      2.172323   591A      2.177163  
     592A      2.189037   593A      2.191479   594A      2.193728  
     595A      2.197464   596A      2.199660   597A      2.205859  
     598A      2.206268   599A      2.212435   600A      2.213457  
     601A      2.213830   602A      2.214962   603A      2.217036  
     604A      2.217373   605A      2.223355   606A      2.224721  
     607A      2.224855   608A      2.225044   609A      2.225269  
     610A      2.226337   611A      2.231562   612A      2.231802  
     613A      2.234643   614A      2.235330   615A      2.236343  
     616A      2.238946   617A      2.239167   618A      2.239544  
     619A      2.241328   620A      2.241342   621A      2.244687  
     622A      2.245637   623A      2.247727   624A      2.252919  
     625A      2.253142   626A      2.253988   627A      2.254843  
     628A      2.256348   629A      2.259732   630A      2.260389  
     631A      2.261620   632A      2.261756   633A      2.263301  
     634A      2.265078   635A      2.267115   636A      2.269664  
     637A      2.272325   638A      2.277355   639A      2.284277  
     640A      2.289987   641A      2.292908   642A      2.297384  
     643A      2.298793   644A      2.312454   645A      2.314884  
     646A      2.320190   647A      2.320703   648A      2.325167  
     649A      2.325440   650A      2.327153   651A      2.328738  
     652A      2.334978   653A      2.345780   654A      2.346849  
     655A      2.347331   656A      2.349877   657A      2.350205  
     658A      2.351126   659A      2.361255   660A      2.361559  
     661A      2.367720   662A      2.367741   663A      2.372816  
     664A      2.384576   665A      2.385131   666A      2.392568  
     667A      2.404620   668A      2.406373   669A      2.408173  
     670A      2.408774   671A      2.410024   672A      2.414634  
     673A      2.422735   674A      2.422796   675A      2.431698  
     676A      2.436660   677A      2.436818   678A      2.444370  
     679A      2.445294   680A      2.448219   681A      2.448319  
     682A      2.448725   683A      2.454056   684A      2.455419  
     685A      2.455729   686A      2.456109   687A      2.460529  
     688A      2.466205   689A      2.468117   690A      2.468629  
     691A      2.470141   692A      2.470731   693A      2.476982  
     694A      2.485340   695A      2.485839   696A      2.492630  
     697A      2.497669   698A      2.497883   699A      2.504932  
     700A      2.506252   701A      2.522486   702A      2.522937  
     703A      2.524021   704A      2.526645   705A      2.531293  
     706A      2.533766   707A      2.534187   708A      2.544025  
     709A      2.546617   710A      2.548881   711A      2.550335  
     712A      2.550672   713A      2.559499   714A      2.560059  
     715A      2.562438   716A      2.562549   717A      2.572229  
     718A      2.577093   719A      2.580440   720A      2.580518  
     721A      2.581657   722A      2.582545   723A      2.590214  
     724A      2.599611   725A      2.602873   726A      2.611159  
     727A      2.611994   728A      2.613207   729A      2.618225  
     730A      2.621995   731A      2.626377   732A      2.626774  
     733A      2.626865   734A      2.629093   735A      2.635401  
     736A      2.636083   737A      2.636504   738A      2.641262  
     739A      2.648431   740A      2.656771   741A      2.658060  
     742A      2.679003   743A      2.681342   744A      2.681370  
     745A      2.700172   746A      2.701035   747A      2.701517  
     748A      2.707663   749A      2.707726   750A      2.708584  
     751A      2.709382   752A      2.715248   753A      2.722456  
     754A      2.727713   755A      2.728809   756A      2.729176  
     757A      2.733349   758A      2.733861   759A      2.736362  
     760A      2.738575   761A      2.751742   762A      2.753556  
     763A      2.767013   764A      2.767861   765A      2.776624  
     766A      2.777520   767A      2.782427   768A      2.786238  
     769A      2.788958   770A      2.791968   771A      2.792133  
     772A      2.794191   773A      2.794888   774A      2.800277  
     775A      2.800569   776A      2.820127   777A      2.820984  
     778A      2.822093   779A      2.824741   780A      2.824896  
     781A      2.827056   782A      2.834635   783A      2.835299  
     784A      2.835344   785A      2.844812   786A      2.857071  
     787A      2.859566   788A      2.887609   789A      2.891000  
[...]
     712A      1.404761   713A      1.405112   714A      1.405974  
     715A      1.408662   716A      1.410081   717A      1.413816  
     718A      1.414629   719A      1.420148   720A      1.423434  
     721A      1.429638   722A      1.429773   723A      1.431880  
     724A      1.436610   725A      1.436994   726A      1.440366  
     727A      1.440750   728A      1.441381   729A      1.443238  
     730A      1.448715   731A      1.449619   732A      1.450723  
     733A      1.450966   734A      1.466171   735A      1.469103  
     736A      1.477405   737A      1.478533   738A      1.517193  
     739A      1.517316   740A      1.521779   741A      1.522035  
     742A      1.533695   743A      1.552403   744A      1.580412  
     745A      1.600489   746A      1.600882   747A      1.602723  
     748A      1.609458   749A      1.610607   750A      1.611889  
     751A      1.613315   752A      1.613572   753A      1.619261  
     754A      1.623069   755A      1.624266   756A      1.633597  
     757A      1.633804   758A      1.641137   759A      1.642008  
     760A      1.643619   761A      1.643857   762A      1.645158  
     763A      1.645378   764A      1.649993   765A      1.653449  
     766A      1.661077   767A      1.661526   768A      1.662999  
     769A      1.669219   770A      1.676622   771A      1.676713  
     772A      1.676939   773A      1.677017   774A      1.677227  
     775A      1.684194   776A      1.686922   777A      1.687128  
     778A      1.696137   779A      1.697515   780A      1.699240  
     781A      1.699449   782A      1.700194   783A      1.704794  
     784A      1.704952   785A      1.705192   786A      1.715661  
     787A      1.715798   788A      1.741809   789A      1.745912  
     790A      1.751734   791A      1.759364   792A      1.760641  
     793A      1.761145   794A      1.761157   795A      1.761560  
     796A      1.764530   797A      1.777001   798A      1.777544  
     799A      1.792067   800A      1.792583   801A      1.816826  
     802A      1.817470   803A      1.817701   804A      1.824755  
     805A      1.824933   806A      1.825093   807A      1.831296  
     808A      1.831391   809A      1.842094   810A      1.842469  
     811A      1.847634   812A      1.860893   813A      1.860949  
     814A      1.864438   815A      1.865667   816A      1.868378  
     817A      1.869238   818A      1.872882   819A      1.878033  
     820A      1.880345   821A      1.880755   822A      1.896463  
     823A      1.896560   824A      1.899874   825A      1.903205  
     826A      1.903385   827A      1.908916   828A      1.909144  
     829A      1.915872   830A      1.917889   831A      1.918005  
     832A      1.919335   833A      1.920449   834A      1.922161  
     835A      1.922235   836A      1.940647   837A      1.942184  
     838A      1.942445   839A      1.943771   840A      1.947156  
     841A      1.947525   842A      1.955185   843A      1.956550  
     844A      1.956867   845A      1.958108   846A      1.958699  
     847A      1.973696   848A      1.983851   849A      1.984834  
     850A      1.993134   851A      1.997201   852A      1.998920  
     853A      2.000065   854A      2.006642   855A      2.008651  
     856A      2.012561   857A      2.013689   858A      2.028055  
     859A      2.030072   860A      2.030526   861A      2.031049  
     862A      2.031624   863A      2.031798   864A      2.033308  
     865A      2.048446   866A      2.052793   867A      2.053517  
     868A      2.059116   869A      2.060704   870A      2.062258  
     871A      2.062863   872A      2.069818   873A      2.072460  
     874A      2.073347   875A      2.075636   876A      2.078240  
     877A      2.080410   878A      2.084138   879A      2.087934  
     880A      2.090358   881A      2.093279   882A      2.095167  
     883A      2.096976   884A      2.097547   885A      2.101095  
     886A      2.101518   887A      2.108621   888A      2.109027  
     889A      2.110417   890A      2.112122   891A      2.112298  
     892A      2.116554   893A      2.119071   894A      2.120237  
     895A      2.120385   896A      2.121309   897A      2.121646  
     898A      2.127812   899A      2.129264   900A      2.134660  
     901A      2.135085   902A      2.136263   903A      2.136684  
     904A      2.143367   905A      2.143410   906A      2.156586  
     907A      2.160366   908A      2.160797   909A      2.163318  
     910A      2.163351   911A      2.171833   912A      2.179251  
     913A      2.179769   914A      2.191134   915A      2.191344  
     916A      2.192595   917A      2.194326   918A      2.196013  
     919A      2.196083   920A      2.201620   921A      2.219778  
     922A      2.220523   923A      2.220670   924A      2.228311  
     925A      2.229137   926A      2.231036   927A      2.233132  
     928A      2.243456   929A      2.244216   930A      2.244377  
     931A      2.244829   932A      2.247920   933A      2.260369  
     934A      2.260585   935A      2.270400   936A      2.270616  
     937A      2.272303   938A      2.272733   939A      2.281112  
     940A      2.300434   941A      2.306741   942A      2.311720  
     943A      2.312919   944A      2.322505   945A      2.325106  
     946A      2.331261   947A      2.331363   948A      2.332125  
     949A      2.335060   950A      2.351077   951A      2.352283  
     952A      2.352917   953A      2.353411   954A      2.366712  
     955A      2.367246   956A      2.374883   957A      2.382258  
     958A      2.416116   959A      2.424104   960A      2.424539  
     961A      2.424585   962A      2.436526   963A      2.441420  
     964A      2.441638   965A      2.470302   966A      2.473661  
     967A      2.474356   968A      2.485803   969A      2.486199  
     970A      2.502413   971A      2.519992   972A      2.530062  
     973A      2.530642   974A      2.544781   975A      2.546264  
     976A      2.546779   977A      2.554540   978A      2.554604  
     979A      2.554956   980A      2.560068   981A      2.560215  
     982A      2.573112   983A      2.573194   984A      2.575058  
     985A      2.575470   986A      2.586079   987A      2.586215  
     988A      2.587549   989A      2.590040   990A      2.591462  
     991A      2.607970   992A      2.623925   993A      2.624253  
     994A      2.628059   995A      2.631592   996A      2.632356  
     997A      2.641519   998A      2.641638   999A      2.651265  
    1000A      2.651566  1001A      2.656901  1002A      2.682860  
    1003A      2.684113  1004A      2.684426  1005A      2.687337  
    1006A      2.702452  1007A      2.702775  1008A      2.713152  
    1009A      2.713232  1010A      2.718920  1011A      2.718957  
    1012A      2.723624  1013A      2.723851  1014A      2.739771  
    1015A      2.752693  1016A      2.753311  1017A      2.777792  
    1018A      2.795028  1019A      2.795132  1020A      2.816556  
    1021A      2.826843  1022A      2.827256  1023A      2.828978  
    1024A      2.837184  1025A      2.843496  1026A      2.853758  
    1027A      2.856175  1028A      2.858473  1029A      2.859759  
    1030A      2.860352  1031A      2.863789  1032A      2.870378  
    1033A      2.917389  1034A      2.918810  1035A      2.925085  
    1036A      2.933754  1037A      2.933956  1038A      2.950173  
    1039A      2.951102  1040A      2.963604  1041A      3.010082  
    1042A      3.010392  1043A      3.012037  1044A      3.029800  
    1045A      3.064430  1046A      3.064694  1047A      3.070831  
    1048A      3.071129  1049A      3.110533  1050A      3.111159  
    1051A      3.129096  1052A      3.129968  1053A      3.130432  
    1054A      3.137561  1055A      3.147215  1056A      3.147412  
    1057A      3.147621  1058A      3.149387  1059A      3.149543  
    1060A      3.158603  1061A      3.159482  1062A      3.166364  
    1063A      3.166888  1064A      3.191922  1065A      3.211197  
    1066A      3.219724  1067A      3.238227  1068A      3.275010  
    1069A      3.277060  1070A      3.277222  1071A      3.282523  
    1072A      3.283577  1073A      3.416914  1074A      3.417310  
    1075A      3.443416  1076A      3.482147  1077A      3.485252  
    1078A      3.550370  1079A      3.578178  1080A      3.579778  
    1081A      3.594249  1082A      3.627100  1083A      3.629282  
    1084A      3.663328  1085A      3.670840  1086A      3.769374  
    1087A      3.783544  1088A      3.784371  1089A      3.871132  
    1090A      3.871150  1091A      3.913510  1092A      3.913754  
    1093A      3.977052  1094A      4.011087  1095A      4.037330  
    1096A      4.050679  1097A      4.084151  1098A      4.216091  
    1099A      4.260066  1100A      4.266635  1101A      4.361402  
    1102A      5.750434  1103A      5.750917  1104A      5.754738  
    1105A      5.756851  1106A      5.758838  1107A      5.761227  
    1108A      5.763334  1109A      5.765033  1110A      5.784725  
    1111A      5.789404  1112A      5.794861  1113A      6.022228  
    1114A      6.022788  1115A      6.024169  1116A      6.197728  
    1117A      6.329113  1118A      6.329375  1119A      6.380021  
    1120A      6.380080  1121A      6.381970  1122A      7.170218  
    1123A      7.238456  1124A      7.254311  1125A      7.263858  
    1126A      7.279798  1127A      7.291389  1128A      7.294486  
    1129A      7.297595  1130A      7.474085  1131A      7.515019  
    1132A      7.541186  1133A      7.662888  1134A     12.623773  
    1135A     42.914746  1136A     42.924316  1137A     42.929540  
    1138A     42.946269  

    Final Occupation by Irrep:
              A 
    DOCC [   171 ]
    NA   [   171 ]
    NB   [   171 ]

  @DF-RHF Final Energy: -2055.89269338565418

   => Energetics <=

    Nuclear Repulsion Energy =           6452.5568002797781446
    One-Electron Energy =              -15636.4579843238880130
    Two-Electron Energy =                7128.0084906584552300
    Total Energy =                      -2055.8926933856537289

Computation Completed


Properties will be evaluated at   0.000000,   0.000000,   0.000000 [a0]

Properties computed using the SCF density matrix


 Multipole Moments:

 ------------------------------------------------------------------------------------
     Multipole            Electronic (a.u.)      Nuclear  (a.u.)        Total (a.u.)
 ------------------------------------------------------------------------------------

 L = 1.  Multiply by 2.5417464519 to convert [e a0] to [Debye]
 Dipole X            :          0.0000690            0.0000112            0.0000802
 Dipole Y            :          0.0001960           -0.0000531            0.0001428
 Dipole Z            :        388.2202406         -388.2256487           -0.0054081
 Magnitude           :                                                    0.0054106

 ------------------------------------------------------------------------------------

*** tstop() called on d-17-1-1 at Mon Jan 22 12:13:35 2024
Module time:
	user time   =    2290.60 seconds =      38.18 minutes
	system time =      64.13 seconds =       1.07 minutes
	total time  =        252 seconds =       4.20 minutes
Total time:
	user time   =    6783.09 seconds =     113.05 minutes
	system time =     173.92 seconds =       2.90 minutes
	total time  =        919 seconds =      15.32 minutes
  Constructing Basis Sets for SAPT...

   => Loading Basis Set <=

    Name: (JUN-CC-PVDZ AUX)
    Role: RIFIT
    Keyword: DF_BASIS_SAPT
    atoms 1     entry B          line    56 file /home/gridsan/tfroembgen/.conda/envs/psi4test/share/psi4/basis/jun-cc-pvdz-ri.gbs 
    atoms 2-5   entry F          line   232 file /home/gridsan/tfroembgen/.conda/envs/psi4test/share/psi4/basis/jun-cc-pvdz-ri.gbs 
    atoms 6-59  entry C          line   100 file /home/gridsan/tfroembgen/.conda/envs/psi4test/share/psi4/basis/jun-cc-pvdz-ri.gbs 
    atoms 60-77 entry H          line    30 file /home/gridsan/tfroembgen/.conda/envs/psi4test/share/psi4/basis/jun-cc-pvdz-ri.gbs 

   => Loading Basis Set <=

    Name: (JUN-CC-PVDZ AUX)
    Role: JKFIT
    Keyword: DF_BASIS_ELST
    atoms 1     entry B          line    90 file /home/gridsan/tfroembgen/.conda/envs/psi4test/share/psi4/basis/jun-cc-pvdz-jkfit.gbs 
    atoms 2-5   entry F          line   314 file /home/gridsan/tfroembgen/.conda/envs/psi4test/share/psi4/basis/jun-cc-pvdz-jkfit.gbs 
    atoms 6-59  entry C          line   146 file /home/gridsan/tfroembgen/.conda/envs/psi4test/share/psi4/basis/jun-cc-pvdz-jkfit.gbs 
    atoms 60-77 entry H          line    70 file /home/gridsan/tfroembgen/.conda/envs/psi4test/share/psi4/basis/jun-cc-pvdz-jkfit.gbs 


  //>>>>>>>>>>>>>>>>>>>>>>>>>>>>>>>>>>>//
  //               SSAPT0              //
  //<<<<<<<<<<<<<<<<<<<<<<<<<<<<<<<<<<<//


*** tstart() called on d-17-1-1
*** at Mon Jan 22 12:13:36 2024

        SAPT0  
    Ed Hohenstein
     6 June 2009

      Orbital Information
  --------------------------
    NSO        =      1152
    NMO        =      1138
    NRI        =      4087
    NRI (Elst) =      5075
    NOCC A     =        21
    NOCC B     =       171
    FOCC A     =         5
    FOCC B     =        54
    NVIR A     =      1117
    NVIR B     =       967

    Elst10,r            =     0.010753315907 [Eh]
    Exch10              =     0.000057366443 [Eh]
    Exch10 (S^2)        =     0.000057367659 [Eh]

    Iter     Energy [mEh]          dE [mEh]         Residual      Time [s]
       1      -0.01462535       0.014625350       0.717972261           119
       2      -0.01680939       0.002184039       0.354158230           149
       3      -0.01752019       0.000710799       0.067849978           170
       4      -0.01748583      -0.000034356       0.015642316           187
       5      -0.01746593      -0.000019900       0.002126415           203
       6      -0.01746908       0.000003151       0.000535778           221
       7      -0.01746903      -0.000000051       0.000175931           238
       8      -0.01746889      -0.000000138       0.000034829           254
       9      -0.01746889       0.000000000       0.000005484           269
      10      -0.01746890       0.000000004       0.000000839           286

    CHF Iterations converged


    Iter     Energy [mEh]          dE [mEh]         Residual      Time [s]
       1      -8.58304980       8.583049796      49.012523519            97
       2      -5.78130830      -2.801741495       6.353171429           136
       3      -5.77336579      -0.007942511       2.169906217           157
       4      -5.90709658       0.133730787       0.505610102           176
       5      -5.91455559       0.007459016       0.147227938           196
       6      -5.91160693      -0.002948660       0.072189645           221
       7      -5.91072801      -0.000878927       0.030438199           248
       8      -5.91119324       0.000465230       0.016242193           268
       9      -5.91135552       0.000162281       0.009708438           287
      10      -5.91126518      -0.000090341       0.007708317           311
      11      -5.91122185      -0.000043322       0.003732340           332
      12      -5.91123555       0.000013696       0.001407119           351
      13      -5.91124719       0.000011643       0.000503040           369
      14      -5.91124665      -0.000000545       0.000164990           388
      15      -5.91124475      -0.000001902       0.000059911           408
      16      -5.91124502       0.000000275       0.000036835           426
      17      -5.91124529       0.000000269       0.000016635           446
      18      -5.91124527      -0.000000019       0.000005996           463
      19      -5.91124522      -0.000000051       0.000003037           481
      20      -5.91124521      -0.000000008       0.000001481           497
      21      -5.91124523       0.000000013       0.000000794           512

    CHF Iterations converged

    Ind20,r (A<-B)      =    -0.000017468896 [Eh]
    Ind20,r (B<-A)      =    -0.005911245225 [Eh]
    Ind20,r             =    -0.005928714121 [Eh]
    Exch-Ind20,r (A<-B) =     0.000005944406 [Eh]
    Exch-Ind20,r (B<-A) =     0.000007875688 [Eh]
    Exch-Ind20,r        =     0.000013820094 [Eh]
    Disp20              =    -0.001856743141 [Eh]
    Disp20 (SS)         =    -0.000928371570 [Eh]
    Disp20 (OS)         =    -0.000928371570 [Eh]
    Exch-Disp20         =     0.000019284368 [Eh]
    Exch-Disp20 (SS)    =     0.000013651280 [Eh]
    Exch-Disp20 (OS)    =     0.000005633088 [Eh]

    SAPT Results 
  --------------------------------------------------------------------------------------------------------
    Electrostatics                 10.75331591 [mEh]       6.74780761 [kcal/mol]      28.23282702 [kJ/mol]
      Elst10,r                     10.75331591 [mEh]       6.74780761 [kcal/mol]      28.23282702 [kJ/mol]

    Exchange                        0.05736644 [mEh]       0.03599799 [kcal/mol]       0.15061558 [kJ/mol]
      Exch10                        0.05736644 [mEh]       0.03599799 [kcal/mol]       0.15061558 [kJ/mol]
      Exch10(S^2)                   0.05736766 [mEh]       0.03599875 [kcal/mol]       0.15061877 [kJ/mol]

    Induction                      -5.85520465 [mEh]      -3.67419639 [kcal/mol]     -15.37283768 [kJ/mol]
      Ind20,r                      -5.92871412 [mEh]      -3.72032428 [kcal/mol]     -15.56583678 [kJ/mol]
      Exch-Ind20,r                  0.01382009 [mEh]       0.00867224 [kcal/mol]       0.03628465 [kJ/mol]
      delta HF,r (2)                0.05968938 [mEh]       0.03745565 [kcal/mol]       0.15671445 [kJ/mol]

    Dispersion                     -1.83745877 [mEh]      -1.15302279 [kcal/mol]      -4.82424734 [kJ/mol]
      Disp20                       -1.85674314 [mEh]      -1.16512391 [kcal/mol]      -4.87487844 [kJ/mol]
      Exch-Disp20                   0.01928437 [mEh]       0.01210112 [kcal/mol]       0.05063110 [kJ/mol]
      Disp20 (SS)                  -0.92837157 [mEh]      -0.58256196 [kcal/mol]      -2.43743922 [kJ/mol]
      Disp20 (OS)                  -0.92837157 [mEh]      -0.58256196 [kcal/mol]      -2.43743922 [kJ/mol]
      Exch-Disp20 (SS)              0.01365128 [mEh]       0.00856631 [kcal/mol]       0.03584143 [kJ/mol]
      Exch-Disp20 (OS)              0.00563309 [mEh]       0.00353482 [kcal/mol]       0.01478967 [kJ/mol]

  Total HF                          4.95547770 [mEh]       3.10960921 [kcal/mol]      13.01060492 [kJ/mol]
  Total SAPT0                       3.11801893 [mEh]       1.95658642 [kcal/mol]       8.18635757 [kJ/mol]

  Special recipe for scaled SAPT0 (see Manual):
    Electrostatics sSAPT0          10.75331591 [mEh]       6.74780761 [kcal/mol]      28.23282702 [kJ/mol]
    Exchange sSAPT0                 0.05736644 [mEh]       0.03599799 [kcal/mol]       0.15061558 [kJ/mol]
    Induction sSAPT0               -5.85520553 [mEh]      -3.67419694 [kcal/mol]     -15.37283999 [kJ/mol]
    Dispersion sSAPT0              -1.83746000 [mEh]      -1.15302356 [kcal/mol]      -4.82425056 [kJ/mol]
  Total sSAPT0                      3.11801682 [mEh]       1.95658510 [kcal/mol]       8.18635205 [kJ/mol]
  --------------------------------------------------------------------------------------------------------

*** tstop() called on d-17-1-1 at Mon Jan 22 13:12:21 2024
Module time:
	user time   =    7605.41 seconds =     126.76 minutes
	system time =     825.31 seconds =      13.76 minutes
	total time  =       3525 seconds =      58.75 minutes
Total time:
	user time   =   14389.36 seconds =     239.82 minutes
	system time =     999.25 seconds =      16.65 minutes
	total time  =       4445 seconds =      74.08 minutes

    Psi4 stopped on: Monday, 22 January 2024 01:12PM
    Psi4 wall time for execution: 1:14:05.43

*** Psi4 exiting successfully. Buy a developer a beer!
