
    -----------------------------------------------------------------------
          Psi4: An Open-Source Ab Initio Electronic Structure Package
                               Psi4 1.9 release

                         Git: Rev {} zzzzzzz 


    D. G. A. Smith, L. A. Burns, A. C. Simmonett, R. M. Parrish,
    M. C. Schieber, R. Galvelis, P. Kraus, H. Kruse, R. Di Remigio,
    A. Alenaizan, A. M. James, S. Lehtola, J. P. Misiewicz, M. Scheurer,
    R. A. Shaw, J. B. Schriber, Y. Xie, Z. L. Glick, D. A. Sirianni,
    J. S. O'Brien, J. M. Waldrop, A. Kumar, E. G. Hohenstein,
    B. P. Pritchard, B. R. Brooks, H. F. Schaefer III, A. Yu. Sokolov,
    K. Patkowski, A. E. DePrince III, U. Bozkaya, R. A. King,
    F. A. Evangelista, J. M. Turney, T. D. Crawford, C. D. Sherrill,
    J. Chem. Phys. 152(18) 184108 (2020). https://doi.org/10.1063/5.0006002

                            Additional Code Authors
    E. T. Seidl, C. L. Janssen, E. F. Valeev, M. L. Leininger,
    J. F. Gonthier, R. M. Richard, H. R. McAlexander, M. Saitow, X. Wang,
    P. Verma, M. H. Lechner, A. Jiang, S. Behnle, A. G. Heide,
    M. F. Herbst, and D. L. Poole

             Previous Authors, Complete List of Code Contributors,
                       and Citations for Specific Modules
    https://github.com/psi4/psi4/blob/master/codemeta.json
    https://github.com/psi4/psi4/graphs/contributors
    http://psicode.org/psi4manual/master/introduction.html#citing-psifour

    -----------------------------------------------------------------------


    Psi4 started on: Saturday, 20 January 2024 11:24PM

    Process ID: 496180
    Host:       d-16-9-3
    PSIDATADIR: /home/gridsan/tfroembgen/.conda/envs/psi4test/share/psi4
    Memory:     500.0 MiB
    Threads:    12
    
  ==> Input File <==

--------------------------------------------------------------------------
memory 32 GB # how much memory is available ! Depends on the nodes/cores !

molecule dimer {
# monomer A
-1 1    # Charge and multiplicity
B -1.977592e-04  2.742729e-04 6.600034
F  1.123153e-16  1.430594e-17 8.012819
F  1.147860e+00  6.757812e-01 6.128893
F  1.191806e-02 -1.332011e+00 6.129095
F -1.159666e+00  6.560735e-01 6.129174
--
# monomer B
0 1     # Charge and multiplicity
C   1.22531237526482      0.70753866091955      0.00613762728373
C   1.22532433589282     -0.70753852257020     -0.00619318228664
C   -0.00000567409046      1.41496628609039     -0.00672680580738
C   2.45644923379077      1.41832825917820      0.00902448468363
C   0.00001130712078     -1.41497612663474      0.00347275151708
C   -1.22530046906674      0.70754574598412      0.00838914760619
C   2.45643823516184     -1.41832293188077     -0.00843833914343
C   -0.00000085313587      2.83680140328112     -0.00913035594137
C   3.68182717731192      0.70931832800114     -0.00808954934571
C   2.45512052870677      2.83422403348893     -0.00819210630633
C   3.68182158506039     -0.70933346742900      0.00798293467272
C   -1.22531311884624     -0.70752714354401     -0.00512042085974
C   1.22670006104402      3.54346985599427      0.00816696660346
C   0.00000526469929     -2.83678176723568      0.00832091913869
C   -2.45643555300670      1.41831729028492      0.00842454345199
C   2.45512389762097     -2.83422965658853      0.00783102630520
C   -1.22671388474763      3.54346943575023      0.00827029982280
C   4.91451777504333      1.42717324448953     -0.00160886631602
C   3.69315067131765      3.54279566454522     -0.00155906667985
C   -2.45643712022637     -1.41831290883911     -0.00846337726810
C   1.22670532178455     -3.54347386990643     -0.00780316414624
C   -2.45512491866593      2.83421703463423     -0.00818572995999
C   4.91452486062398     -1.42718653794377      0.00136387641845
C   1.22142509354026      4.97013443726031      0.00150231067809
C   4.89300870916237      2.82518837202648     -0.00039219795739
C   -1.22669652864725     -3.54347062507680     -0.00753595973677
C   -3.68181849668397      0.70932533873199     -0.00807686886569
C   3.69314758099218     -3.54280096939050      0.00148176697923
C   -1.22143177215231      4.97012866986289      0.00168580605083
C   6.13477145276790      0.68054831910577     -0.00083909176631
C   3.65678936045204      4.97295361556775     -0.00065042889723
C   -2.45512642789169     -2.83421472106065      0.00758666850712
C   -3.68181869921921     -0.70932533146830      0.00810055625144
C   4.89301309775526     -2.82519973363176      0.00021895393805
C   -0.00000059327114      5.65044773803267      0.00045449734393
C   6.13477559217374     -0.68055448207492      0.00042622874941
C   2.47813196269732      5.65357712333155      0.00063835075260
C   1.22142288457925     -4.97012668293268     -0.00129718634452
C   -3.69316190412301      3.54279732619245     -0.00139355922051
C   -1.22142804110313     -4.97011793159564     -0.00140994817719
C   -4.91452132810043      1.42717581899491     -0.00153192130862
C   3.65678749952045     -4.97295485423912      0.00080007163680
C   -2.47813805026426      5.65357479452875      0.00092287576113
C   -3.69314125872231     -3.54278984697859      0.00136564082345
C   -4.91451200321153     -1.42718062802730      0.00139857359209
C   -0.00000552908399     -5.65043791501335      0.00005899322272
C   -4.89302000425900      2.82518897091939     -0.00040227981744
C   2.47812647313991     -5.65357317188818     -0.00029052915548
C   -3.65679823041642      4.97295655404175     -0.00047374852278
C   -4.89299899901461     -2.82519139505969      0.00006491824035
C   -2.47812801824129     -5.65356579800621     -0.00056571680280
C   -6.13477002348955      0.68054913825639     -0.00086464346868
C   -3.65678835334731     -4.97294365097028      0.00058578382008
C   -6.13476456307132     -0.68055354348201      0.00040575295444
H   5.83528897565761      3.36927626695423      0.00396712770529
H   7.07385965258860      1.22821762089947     -0.00037744837300
H   4.60066374401555      5.51238117445323     -0.00014522814529
H   5.83528386714679     -3.36930568472863     -0.00423551337640
H   -0.00001167146422      6.73853104613662     -0.00389474766392
H   7.07386165167227     -1.22822657074368     -0.00008250934481
H   2.47331421164041      6.74068466339473      0.00017162982210
H   4.60066897122302     -5.51237575717576      0.00039007446835
H   -2.47331820069565      6.74068209160650      0.00047297644710
H   -0.00000978838621     -6.73852780445195      0.00458867820736
H   -5.83530143450167      3.36927132229595      0.00410314985360
H   2.47330840367253     -6.74068500242887      0.00027980126949
H   -4.60067436136587      5.51237839860371      0.00002010017831
H   -5.83527902699321     -3.36928859177951     -0.00451481925734
H   -2.47329986759855     -6.74067870613986     -0.00016951527498
H   -7.07385728692578      1.22822084484047     -0.00046143985387
H   -4.60067330624313     -5.51236229778631      0.00021776644566
H   -7.07385645456741     -1.22822025997701     -0.00017736581114

    units angstrom      # Angstroms are the default
    no_reorient         # Geometry fixed, default
    symmetry c1         # C1 symmetry, default
}

set {
    scf_type DF         # Density fitting, faster than exact integrals
    freeze_core True    # Freeze core electrons
    basis jun-cc-pVDZ   # Jun-cc-pVDZ basis set, recommended for sSAPT0 in https://doi.org/10.1063/1.4867135
}

energy('ssapt0')        # Compute sSAPT0 energy, includes also SAPT0
--------------------------------------------------------------------------

  Memory set to  29.802 GiB by Python driver.

Scratch directory: /state/partition1/slurm_tmp/24778954.4294967291.0/
   => Loading Basis Set <=

    Name: JUN-CC-PVDZ
    Role: ORBITAL
    Keyword: BASIS
    atoms 1     entry B          line   130 file /home/gridsan/tfroembgen/.conda/envs/psi4test/share/psi4/basis/jun-cc-pvdz.gbs 
    atoms 2-5   entry F          line   266 file /home/gridsan/tfroembgen/.conda/envs/psi4test/share/psi4/basis/jun-cc-pvdz.gbs 
    atoms 6-59  entry C          line   164 file /home/gridsan/tfroembgen/.conda/envs/psi4test/share/psi4/basis/jun-cc-pvdz.gbs 
    atoms 60-77 entry H          line    36 file /home/gridsan/tfroembgen/.conda/envs/psi4test/share/psi4/basis/jun-cc-pvdz.gbs 

   => Loading Basis Set <=

    Name: JUN-CC-PVDZ
    Role: ORBITAL
    Keyword: BASIS
    atoms 1     entry B          line   130 file /home/gridsan/tfroembgen/.conda/envs/psi4test/share/psi4/basis/jun-cc-pvdz.gbs 
    atoms 2-5   entry F          line   266 file /home/gridsan/tfroembgen/.conda/envs/psi4test/share/psi4/basis/jun-cc-pvdz.gbs 
    atoms 6-59  entry C          line   164 file /home/gridsan/tfroembgen/.conda/envs/psi4test/share/psi4/basis/jun-cc-pvdz.gbs 
    atoms 60-77 entry H          line    36 file /home/gridsan/tfroembgen/.conda/envs/psi4test/share/psi4/basis/jun-cc-pvdz.gbs 


  //>>>>>>>>>>>>>>>>>>>>>>>>>>>>>>>>>>>//
  //              Dimer HF             //
  //<<<<<<<<<<<<<<<<<<<<<<<<<<<<<<<<<<<//

   => Libint2 <=

    Primary   basis highest AM E, G, H:  7, 7, 4
    Auxiliary basis highest AM E, G, H:  7, 7, 5
    Onebody   basis highest AM E, G, H:  7, 7, 5
    Solid Harmonics ordering:            gaussian

*** tstart() called on d-16-9-3
*** at Sat Jan 20 23:24:17 2024

   => Loading Basis Set <=

    Name: JUN-CC-PVDZ
    Role: ORBITAL
    Keyword: BASIS
    atoms 1     entry B          line   130 file /home/gridsan/tfroembgen/.conda/envs/psi4test/share/psi4/basis/jun-cc-pvdz.gbs 
    atoms 2-5   entry F          line   266 file /home/gridsan/tfroembgen/.conda/envs/psi4test/share/psi4/basis/jun-cc-pvdz.gbs 
    atoms 6-59  entry C          line   164 file /home/gridsan/tfroembgen/.conda/envs/psi4test/share/psi4/basis/jun-cc-pvdz.gbs 
    atoms 60-77 entry H          line    36 file /home/gridsan/tfroembgen/.conda/envs/psi4test/share/psi4/basis/jun-cc-pvdz.gbs 


         ---------------------------------------------------------
                                   SCF
               by Justin Turney, Rob Parrish, Andy Simmonett
                          and Daniel G. A. Smith
                              RHF Reference
                       12 Threads,  30517 MiB Core
         ---------------------------------------------------------

  ==> Geometry <==

    Molecular point group: c1
    Full point group: C1

    Geometry (in Angstrom), charge = -1, multiplicity = 1:

       Center              X                  Y                   Z               Mass       
    ------------   -----------------  -----------------  -----------------  -----------------
         B           -0.000198161052     0.000273808717     5.837606403211    11.009305360000
         F           -0.000000401852    -0.000000464183     7.250391403211    18.998403162730
         F            1.147859598148     0.675780735817     5.366465403211    18.998403162730
         F            0.011917658148    -1.332011464183     5.366667403211    18.998403162730
         F           -1.159666401852     0.656073035817     5.366746403211    18.998403162730
         C            1.225311973413     0.707538196736    -0.756289969505    12.000000000000
         C            1.225323934041    -0.707538986754    -0.768620779076    12.000000000000
         C           -0.000006075942     1.414965821907    -0.769154402596    12.000000000000
         C            2.456448831939     1.418327794995    -0.753403112105    12.000000000000
         C            0.000010905269    -1.414976590818    -0.758954845272    12.000000000000
         C           -1.225300870919     0.707545281801    -0.754038449183    12.000000000000
         C            2.456437833310    -1.418323396064    -0.770865935933    12.000000000000
         C           -0.000001254988     2.836800939098    -0.771557952730    12.000000000000
         C            3.681826775460     0.709317863818    -0.770517146135    12.000000000000
         C            2.455120126855     2.834223569306    -0.770619703095    12.000000000000
         C            3.681821183209    -0.709333931612    -0.754444662116    12.000000000000
         C           -1.225313520698    -0.707527607727    -0.767548017649    12.000000000000
         C            1.226699659192     3.543469391811    -0.754260630186    12.000000000000
         C            0.000004862847    -2.836782231419    -0.754106677650    12.000000000000
         C           -2.456435954859     1.418316826102    -0.754003053337    12.000000000000
         C            2.455123495769    -2.834230120772    -0.754596570484    12.000000000000
         C           -1.226714286599     3.543468971567    -0.754157296966    12.000000000000
         C            4.914517373191     1.427172780306    -0.764036463105    12.000000000000
         C            3.693150269466     3.542795200362    -0.763986663469    12.000000000000
         C           -2.456437522078    -1.418313373022    -0.770890974057    12.000000000000
         C            1.226704919933    -3.543474334090    -0.770230760935    12.000000000000
         C           -2.455125320518     2.834216570451    -0.770613326749    12.000000000000
         C            4.914524458772    -1.427187002127    -0.761063720371    12.000000000000
         C            1.221424691688     4.970133973077    -0.760925286111    12.000000000000
         C            4.893008307311     2.825187907843    -0.762819794746    12.000000000000
         C           -1.226696930499    -3.543471089260    -0.769963556526    12.000000000000
         C           -3.681818898536     0.709324874549    -0.770504465655    12.000000000000
         C            3.693147179140    -3.542801433574    -0.760945829810    12.000000000000
         C           -1.221432174004     4.970128205680    -0.760741790738    12.000000000000
         C            6.134771050916     0.680547854922    -0.763266688555    12.000000000000
         C            3.656788958600     4.972953151384    -0.763078025686    12.000000000000
         C           -2.455126829744    -2.834215185244    -0.754840928282    12.000000000000
         C           -3.681819101071    -0.709325795652    -0.754327040538    12.000000000000
         C            4.893012695903    -2.825200197815    -0.762208642851    12.000000000000
         C           -0.000000995123     5.650447273849    -0.761973099445    12.000000000000
         C            6.134775190322    -0.680554946258    -0.762001368040    12.000000000000
         C            2.478131560845     5.653576659148    -0.761789246036    12.000000000000
         C            1.221422482727    -4.970127147116    -0.763724783134    12.000000000000
         C           -3.693162305975     3.542796862009    -0.763821156010    12.000000000000
         C           -1.221428442955    -4.970118395779    -0.763837544966    12.000000000000
         C           -4.914521729952     1.427175354812    -0.763959518098    12.000000000000
         C            3.656787097669    -4.972955318422    -0.761627525152    12.000000000000
         C           -2.478138452116     5.653574330345    -0.761504721028    12.000000000000
         C           -3.693141660574    -3.542790311162    -0.761061955966    12.000000000000
         C           -4.914512405063    -1.427181092211    -0.761029023197    12.000000000000
         C           -0.000005930936    -5.650438379197    -0.762368603566    12.000000000000
         C           -4.893020406111     2.825188506736    -0.762829876607    12.000000000000
         C            2.478126071288    -5.653573636072    -0.762718125945    12.000000000000
         C           -3.656798632268     4.972956089858    -0.762901345312    12.000000000000
         C           -4.892999400866    -2.825191859243    -0.762362678549    12.000000000000
         C           -2.478128420093    -5.653566262190    -0.762993313592    12.000000000000
         C           -6.134770425341     0.680548674073    -0.763292240258    12.000000000000
         C           -3.656788755199    -4.972944115154    -0.761841812969    12.000000000000
         C           -6.134764964923    -0.680554007665    -0.762021843835    12.000000000000
         H            5.835288573806     3.369275802771    -0.758460469084     1.007825032230
         H            7.073859250737     1.228217156716    -0.762805045162     1.007825032230
         H            4.600663342164     5.512380710270    -0.762572824934     1.007825032230
         H            5.835283465295    -3.369306148912    -0.766663110165     1.007825032230
         H           -0.000012073316     6.738530581953    -0.766322344453     1.007825032230
         H            7.073861249820    -1.228227034927    -0.762510106134     1.007825032230
         H            2.473313809789     6.740684199211    -0.762255966967     1.007825032230
         H            4.600668569371    -5.512376221359    -0.762037522321     1.007825032230
         H           -2.473318602548     6.740681627423    -0.761954620342     1.007825032230
         H           -0.000010190238    -6.738528268635    -0.757838918582     1.007825032230
         H           -5.835301836354     3.369270858113    -0.758324446935     1.007825032230
         H            2.473308001821    -6.740685466612    -0.762147795520     1.007825032230
         H           -4.600674763218     5.512377934420    -0.762407496611     1.007825032230
         H           -5.835279428845    -3.369289055963    -0.766942416046     1.007825032230
         H           -2.473300269450    -6.740679170323    -0.762597112064     1.007825032230
         H           -7.073857688778     1.228220380657    -0.762889036643     1.007825032230
         H           -4.600673708095    -5.512362761970    -0.762209830343     1.007825032230
         H           -7.073856856419    -1.228220724160    -0.762604962600     1.007825032230

  Running in c1 symmetry.

  Rotational constants: A =      0.00153  B =      0.00152  C =      0.00110 [cm^-1]
  Rotational constants: A =     45.71877  B =     45.71394  C =     33.02251 [MHz]
  Nuclear repulsion = 7551.147456610701738

  Charge       = -1
  Multiplicity = 1
  Electrons    = 384
  Nalpha       = 192
  Nbeta        = 192

  ==> Algorithm <==

  SCF Algorithm Type is DF.
  DIIS enabled.
  MOM disabled.
  Fractional occupation disabled.
  Guess Type is SAD.
  Energy threshold   = 1.00e-08
  Density threshold  = 1.00e-08
  Integral threshold = 1.00e-12

  ==> Primary Basis <==

  Basis Set: JUN-CC-PVDZ
    Blend: JUN-CC-PVDZ
    Number of shells: 526
    Number of basis functions: 1152
    Number of Cartesian functions: 1211
    Spherical Harmonics?: true
    Max angular momentum: 2

   => Loading Basis Set <=

    Name: (JUN-CC-PVDZ AUX)
    Role: JKFIT
    Keyword: DF_BASIS_SCF
    atoms 1     entry B          line    90 file /home/gridsan/tfroembgen/.conda/envs/psi4test/share/psi4/basis/jun-cc-pvdz-jkfit.gbs 
    atoms 2-5   entry F          line   314 file /home/gridsan/tfroembgen/.conda/envs/psi4test/share/psi4/basis/jun-cc-pvdz-jkfit.gbs 
    atoms 6-59  entry C          line   146 file /home/gridsan/tfroembgen/.conda/envs/psi4test/share/psi4/basis/jun-cc-pvdz-jkfit.gbs 
    atoms 60-77 entry H          line    70 file /home/gridsan/tfroembgen/.conda/envs/psi4test/share/psi4/basis/jun-cc-pvdz-jkfit.gbs 

  ==> Integral Setup <==

  ==> DiskDFJK: Density-Fitted J/K Matrices <==

    J tasked:                  Yes
    K tasked:                  Yes
    wK tasked:                  No
    OpenMP threads:             12
    Integrals threads:          12
    Memory [MiB]:            22888
    Algorithm:                Core
    Integral Cache:           SAVE
    Schwarz Cutoff:          1E-12
    Fitting Condition:       1E-10

   => Auxiliary Basis Set <=

  Basis Set: (JUN-CC-PVDZ AUX)
    Blend: JUN-CC-PVDZ-JKFIT
    Number of shells: 1755
    Number of basis functions: 5075
    Number of Cartesian functions: 5819
    Spherical Harmonics?: true
    Max angular momentum: 3

  Minimum eigenvalue in the overlap matrix is 8.3937909487E-10.
  Reciprocal condition number of the overlap matrix is 3.7474779924E-11.
    Using canonical orthogonalization.
  Overall, 14 of 1152 possible MOs eliminated.


  ==> Pre-Iterations <==

  SCF Guess: Superposition of Atomic Densities via on-the-fly atomic UHF (no occupation information).

   -------------------------
    Irrep   Nso     Nmo    
   -------------------------
     A       1152    1138 
   -------------------------
    Total    1152    1138
   -------------------------

  ==> Iterations <==

                           Total Energy        Delta E     RMS |[F,P]|

   @DF-RHF iter SAD: -2483.26012768457986   -2.48326e+03   0.00000e+00 
   @DF-RHF iter   1: -2477.62254597245510    5.63758e+00   1.09877e-03 ADIIS/DIIS
   @DF-RHF iter   2: -2478.51037607916078   -8.87830e-01   4.74936e-04 ADIIS/DIIS
   @DF-RHF iter   3: -2478.64209586095149   -1.31720e-01   1.30934e-04 ADIIS/DIIS
   @DF-RHF iter   4: -2478.65511074242795   -1.30149e-02   5.28197e-05 DIIS
   @DF-RHF iter   5: -2478.65743938803007   -2.32865e-03   1.58741e-05 DIIS
   @DF-RHF iter   6: -2478.65771695548574   -2.77567e-04   5.37856e-06 DIIS
   @DF-RHF iter   7: -2478.65779741691267   -8.04614e-05   2.64566e-06 DIIS
   @DF-RHF iter   8: -2478.65781957712943   -2.21602e-05   1.21622e-06 DIIS
   @DF-RHF iter   9: -2478.65782616078104   -6.58365e-06   2.48598e-07 DIIS
   @DF-RHF iter  10: -2478.65782637771463   -2.16934e-07   8.76654e-08 DIIS
   @DF-RHF iter  11: -2478.65782639414419   -1.64296e-08   3.38986e-08 DIIS
   @DF-RHF iter  12: -2478.65782639746385   -3.31966e-09   1.14081e-08 DIIS
   @DF-RHF iter  13: -2478.65782639776990   -3.06045e-10   4.16580e-09 DIIS
  Energy and wave function converged.


  ==> Post-Iterations <==

    Orbital Energies [Eh]
    ---------------------

    Doubly Occupied:                                                      

       1A    -26.064804     2A    -26.064318     3A    -26.064223  
       4A    -26.064137     5A    -11.198181     6A    -11.198176  
       7A    -11.198172     8A    -11.198159     9A    -11.198152  
      10A    -11.198144    11A    -11.198087    12A    -11.198079  
      13A    -11.198074    14A    -11.198063    15A    -11.198057  
      16A    -11.198054    17A    -11.197112    18A    -11.196956  
      19A    -11.196955    20A    -11.196775    21A    -11.196774  
      22A    -11.196701    23A    -11.196346    24A    -11.196009  
      25A    -11.196009    26A    -11.195844    27A    -11.195750  
      28A    -11.195748    29A    -11.195348    30A    -11.195347  
      31A    -11.195209    32A    -11.194935    33A    -11.194934  
      34A    -11.194838    35A    -11.194698    36A    -11.194697  
      37A    -11.194644    38A    -11.194474    39A    -11.194474  
      40A    -11.194213    41A    -11.193879    42A    -11.193877  
      43A    -11.193877    44A    -11.193875    45A    -11.193873  
      46A    -11.193872    47A    -11.192457    48A    -11.192455  
      49A    -11.192454    50A    -11.192452    51A    -11.192450  
      52A    -11.192449    53A    -11.191475    54A    -11.191474  
      55A    -11.191473    56A    -11.191415    57A    -11.191415  
      58A    -11.191414    59A     -7.536637    60A     -1.408322  
      61A     -1.348841    62A     -1.348455    63A     -1.348289  
      64A     -1.181457    65A     -1.158239    66A     -1.158238  
      67A     -1.128606    68A     -1.128599    69A     -1.119131  
      70A     -1.097319    71A     -1.088190    72A     -1.074051  
      73A     -1.074044    74A     -1.053047    75A     -1.053043  
      76A     -1.021300    77A     -1.021292    78A     -1.017457  
      79A     -1.006022    80A     -1.006018    81A     -0.978990  
      82A     -0.962631    83A     -0.960144    84A     -0.960101  
      85A     -0.957662    86A     -0.953038    87A     -0.926110  
      88A     -0.926065    89A     -0.901691    90A     -0.901642  
      91A     -0.834207    92A     -0.834179    93A     -0.826439  
      94A     -0.824590    95A     -0.824532    96A     -0.820452  
      97A     -0.820403    98A     -0.801828    99A     -0.778233  
     100A     -0.757961   101A     -0.755475   102A     -0.751363  
     103A     -0.751354   104A     -0.734997   105A     -0.734987  
     106A     -0.685498   107A     -0.684004   108A     -0.672595  
     109A     -0.672587   110A     -0.672431   111A     -0.672407  
     112A     -0.656060   113A     -0.638921   114A     -0.638910  
     115A     -0.633224   116A     -0.633208   117A     -0.601622  
     118A     -0.599593   119A     -0.592705   120A     -0.590775  
     121A     -0.590770   122A     -0.590240   123A     -0.579452  
     124A     -0.579449   125A     -0.569184   126A     -0.567067  
     127A     -0.567052   128A     -0.547599   129A     -0.542863  
     130A     -0.540854   131A     -0.539946   132A     -0.539915  
     133A     -0.532983   134A     -0.530064   135A     -0.530052  
     136A     -0.526402   137A     -0.525881   138A     -0.525752  
     139A     -0.525667   140A     -0.514233   141A     -0.514227  
     142A     -0.507911   143A     -0.507896   144A     -0.505360  
     145A     -0.505344   146A     -0.498116   147A     -0.495392  
     148A     -0.495384   149A     -0.479038   150A     -0.479035  
     151A     -0.476980   152A     -0.476975   153A     -0.469588  
     154A     -0.465656   155A     -0.462753   156A     -0.462746  
     157A     -0.444666   158A     -0.444624   159A     -0.441087  
     160A     -0.435353   161A     -0.433541   162A     -0.426933  
     163A     -0.424403   164A     -0.421525   165A     -0.421517  
     166A     -0.408374   167A     -0.408352   168A     -0.405841  
     169A     -0.405791   170A     -0.405707   171A     -0.389806  
     172A     -0.389727   173A     -0.382420   174A     -0.382357  
     175A     -0.382141   176A     -0.379014   177A     -0.379004  
     178A     -0.343176   179A     -0.343152   180A     -0.341685  
     181A     -0.315659   182A     -0.315656   183A     -0.288401  
     184A     -0.274768   185A     -0.273763   186A     -0.273700  
     187A     -0.250771   188A     -0.238835   189A     -0.222582  
     190A     -0.222531   191A     -0.164260   192A     -0.164194  

    Virtual:                                                              

     193A      0.074444   194A      0.074505   195A      0.099382  
     196A      0.099387   197A      0.101316   198A      0.101865  
     199A      0.101869   200A      0.108865   201A      0.112924  
     202A      0.123873   203A      0.123874   204A      0.125895  
     205A      0.125947   206A      0.135650   207A      0.138647  
     208A      0.138654   209A      0.142308   210A      0.142374  
     211A      0.142443   212A      0.144505   213A      0.144517  
     214A      0.146830   215A      0.149019   216A      0.151002  
     217A      0.151004   218A      0.158405   219A      0.159298  
     220A      0.164374   221A      0.164386   222A      0.168005  
     223A      0.170448   224A      0.174220   225A      0.174221  
     226A      0.176015   227A      0.182384   228A      0.182399  
     229A      0.182445   230A      0.184158   231A      0.184911  
     232A      0.184920   233A      0.188031   234A      0.188753  
     235A      0.188762   236A      0.194103   237A      0.196091  
     238A      0.196160   239A      0.202359   240A      0.202369  
     241A      0.205490   242A      0.205497   243A      0.208516  
     244A      0.208519   245A      0.213416   246A      0.213419  
     247A      0.226494   248A      0.227463   249A      0.227522  
     250A      0.231640   251A      0.231690   252A      0.235121  
     253A      0.236647   254A      0.236662   255A      0.237674  
     256A      0.242440   257A      0.242457   258A      0.244227  
     259A      0.246447   260A      0.246454   261A      0.248760  
     262A      0.253151   263A      0.253162   264A      0.257588  
     265A      0.258729   266A      0.258733   267A      0.263066  
     268A      0.264001   269A      0.264022   270A      0.266894  
     271A      0.267306   272A      0.267330   273A      0.268598  
     274A      0.268990   275A      0.269946   276A      0.270871  
     277A      0.279954   278A      0.280771   279A      0.281220  
     280A      0.281230   281A      0.283178   282A      0.283226  
     283A      0.283756   284A      0.285974   285A      0.286000  
     286A      0.287261   287A      0.291369   288A      0.291389  
     289A      0.299313   290A      0.299314   291A      0.299605  
     292A      0.300831   293A      0.300843   294A      0.302535  
     295A      0.312484   296A      0.312495   297A      0.313295  
     298A      0.313313   299A      0.314541   300A      0.314560  
     301A      0.320674   302A      0.320693   303A      0.326875  
     304A      0.326881   305A      0.330184   306A      0.330188  
     307A      0.332945   308A      0.332974   309A      0.334135  
     310A      0.335639   311A      0.335643   312A      0.337972  
     313A      0.347656   314A      0.347670   315A      0.350028  
     316A      0.350034   317A      0.355888   318A      0.356681  
     319A      0.357720   320A      0.359634   321A      0.359641  
     322A      0.360495   323A      0.363252   324A      0.363282  
     325A      0.364722   326A      0.365309   327A      0.368211  
     328A      0.368220   329A      0.372670   330A      0.372676  
     331A      0.372816   332A      0.377234   333A      0.377255  
     334A      0.377324   335A      0.378548   336A      0.381188  
     337A      0.382505   338A      0.384369   339A      0.387117  
     340A      0.387177   341A      0.388743   342A      0.394127  
     343A      0.394154   344A      0.396063   345A      0.400565  
     346A      0.400577   347A      0.403284   348A      0.405394  
     349A      0.407013   350A      0.407031   351A      0.408515  
     352A      0.408523   353A      0.409339   354A      0.414475  
     355A      0.418533   356A      0.418596   357A      0.423748  
     358A      0.423762   359A      0.424247   360A      0.424295  
     361A      0.424645   362A      0.429896   363A      0.429938  
     364A      0.430982   365A      0.435010   366A      0.442494  
     367A      0.442622   368A      0.446264   369A      0.446272  
     370A      0.448296   371A      0.449818   372A      0.452076  
     373A      0.452163   374A      0.452302   375A      0.453134  
     376A      0.453145   377A      0.456407   378A      0.456431  
     379A      0.460065   380A      0.460184   381A      0.460745  
     382A      0.460949   383A      0.460977   384A      0.463767  
     385A      0.467476   386A      0.469595   387A      0.470643  
     388A      0.470685   389A      0.470699   390A      0.471064  
     391A      0.472439   392A      0.473060   393A      0.473078  
     394A      0.475407   395A      0.475448   396A      0.478798  
     397A      0.480660   398A      0.483148   399A      0.483168  
     400A      0.484012   401A      0.484098   402A      0.492299  
     403A      0.496263   404A      0.496355   405A      0.496436  
     406A      0.499000   407A      0.500113   408A      0.503972  
     409A      0.504109   410A      0.505373   411A      0.505408  
     412A      0.508263   413A      0.508340   414A      0.508557  
     415A      0.511256   416A      0.511293   417A      0.519963  
     418A      0.522308   419A      0.522325   420A      0.522423  
     421A      0.527867   422A      0.527952   423A      0.529575  
     424A      0.529845   425A      0.534429   426A      0.534464  
     427A      0.536197   428A      0.540295   429A      0.540313  
     430A      0.540967   431A      0.540995   432A      0.547567  
     433A      0.547628   434A      0.548164   435A      0.550202  
     436A      0.550920   437A      0.550977   438A      0.554456  
     439A      0.554467   440A      0.558511   441A      0.558733  
     442A      0.564728   443A      0.564763   444A      0.565141  
     445A      0.567196   446A      0.568593   447A      0.568983  
     448A      0.575532   449A      0.575548   450A      0.582121  
     451A      0.582420   452A      0.584656   453A      0.589743  
     454A      0.589792   455A      0.590269   456A      0.590592  
     457A      0.594078   458A      0.599629   459A      0.603543  
     460A      0.606065   461A      0.606147   462A      0.610230  
     463A      0.611339   464A      0.611359   465A      0.611655  
     466A      0.615337   467A      0.615579   468A      0.620308  
     469A      0.621384   470A      0.621459   471A      0.621726  
     472A      0.621766   473A      0.624885   474A      0.630028  
     475A      0.630438   476A      0.630845   477A      0.654246  
     478A      0.654305   479A      0.656016   480A      0.659974  
     481A      0.660020   482A      0.670780   483A      0.678664  
     484A      0.678775   485A      0.686621   486A      0.686701  
     487A      0.686722   488A      0.686841   489A      0.701071  
     490A      0.701342   491A      0.707786   492A      0.713121  
     493A      0.713147   494A      0.715267   495A      0.716758  
     496A      0.729135   497A      0.729159   498A      0.729690  
     499A      0.737730   500A      0.737746   501A      0.738851  
     502A      0.748963   503A      0.757804   504A      0.757927  
     505A      0.776432   506A      0.776487   507A      0.794193  
     508A      0.800368   509A      0.803827   510A      0.803924  
     511A      0.804585   512A      0.804746   513A      0.816773  
     514A      0.816785   515A      0.823227   516A      0.827642  
     517A      0.835729   518A      0.850934   519A      0.857146  
     520A      0.857227   521A      0.865281   522A      0.868837  
     523A      0.871030   524A      0.871074   525A      0.873777  
     526A      0.879344   527A      0.883190   528A      0.883479  
     529A      0.887301   530A      0.887331   531A      0.887757  
     532A      0.895694   533A      0.908367   534A      0.913465  
     535A      0.913541   536A      0.915886   537A      0.915923  
     538A      0.920631   539A      0.921835   540A      0.921851  
     541A      0.926006   542A      0.926140   543A      0.933426  
     544A      0.935331   545A      0.935604   546A      0.935742  
     547A      0.936012   548A      0.948321   549A      0.948371  
     550A      0.948861   551A      0.952106   552A      0.952349  
     553A      0.957125   554A      0.957287   555A      0.959105  
     556A      0.959235   557A      0.966302   558A      0.967473  
     559A      0.967870   560A      0.971351   561A      0.972370  
     562A      0.973635   563A      0.974036   564A      0.978788  
     565A      0.981371   566A      0.981388   567A      0.982586  
     568A      0.986134   569A      0.993206   570A      0.993545  
     571A      0.994106   572A      0.995673   573A      0.995779  
     574A      1.004861   575A      1.004991   576A      1.006367  
     577A      1.006524   578A      1.017710   579A      1.017839  
     580A      1.022054   581A      1.027841   582A      1.028331  
     583A      1.032096   584A      1.032493   585A      1.033788  
     586A      1.033853   587A      1.037991   588A      1.038846  
     589A      1.044814   590A      1.048316   591A      1.048378  
     592A      1.051985   593A      1.059971   594A      1.060045  
     595A      1.065913   596A      1.073483   597A      1.073484  
     598A      1.074813   599A      1.076730   600A      1.076749  
     601A      1.092246   602A      1.092266   603A      1.097176  
     604A      1.097366   605A      1.098004   606A      1.099817  
     607A      1.099923   608A      1.103585   609A      1.103665  
     610A      1.105681   611A      1.105722   612A      1.106306  
     613A      1.108250   614A      1.109826   615A      1.110522  
     616A      1.113754   617A      1.113817   618A      1.120173  
     619A      1.122803   620A      1.125351   621A      1.125743  
     622A      1.131128   623A      1.131158   624A      1.138470  
     625A      1.138550   626A      1.141003   627A      1.143211  
     628A      1.146934   629A      1.148069   630A      1.148219  
     631A      1.149374   632A      1.149418   633A      1.155192  
     634A      1.155220   635A      1.158246   636A      1.164250  
     637A      1.164288   638A      1.166386   639A      1.166518  
     640A      1.175826   641A      1.175877   642A      1.183350  
     643A      1.183461   644A      1.185115   645A      1.186123  
     646A      1.188134   647A      1.188268   648A      1.196063  
     649A      1.199068   650A      1.199196   651A      1.202940  
     652A      1.204704   653A      1.204748   654A      1.206933  
     655A      1.207916   656A      1.215120   657A      1.224492  
     658A      1.236352   659A      1.238430   660A      1.239972  
     661A      1.240270   662A      1.243767   663A      1.246981  
     664A      1.247024   665A      1.255712   666A      1.255801  
     667A      1.261001   668A      1.261104   669A      1.271087  
     670A      1.278028   671A      1.278080   672A      1.281523  
     673A      1.283081   674A      1.283116   675A      1.296218  
     676A      1.296887   677A      1.296991   678A      1.316949  
     679A      1.317010   680A      1.321596   681A      1.321720  
     682A      1.323450   683A      1.323589   684A      1.325188  
     685A      1.325281   686A      1.333264   687A      1.336357  
     688A      1.344839   689A      1.347118   690A      1.347219  
     691A      1.353995   692A      1.354127   693A      1.357430  
     694A      1.358426   695A      1.362696   696A      1.362728  
     697A      1.368945   698A      1.369539   699A      1.369583  
     700A      1.370761   701A      1.377836   702A      1.379330  
     703A      1.379344   704A      1.383828   705A      1.383848  
     706A      1.390768   707A      1.390867   708A      1.398837  
     709A      1.400589   710A      1.405848   711A      1.405912  
     712A      1.408358   713A      1.414571   714A      1.416284  
     715A      1.416312   716A      1.419678   717A      1.419707  
     718A      1.421589   719A      1.421667   720A      1.430560  
     721A      1.430619   722A      1.438849   723A      1.451963  
     724A      1.458956   725A      1.464422   726A      1.464446  
     727A      1.469950   728A      1.469983   729A      1.472139  
     730A      1.472193   731A      1.481197   732A      1.481574  
     733A      1.488229   734A      1.488263   735A      1.491538  
     736A      1.492447   737A      1.496206   738A      1.496225  
     739A      1.499842   740A      1.499940   741A      1.500066  
     742A      1.504920   743A      1.508690   744A      1.508716  
     745A      1.511010   746A      1.526515   747A      1.526533  
     748A      1.536553   749A      1.536738   750A      1.576736  
     751A      1.576785   752A      1.582680   753A      1.582711  
     754A      1.589510   755A      1.613730   756A      1.635571  
     757A      1.641087   758A      1.641150   759A      1.647008  
     760A      1.661216   761A      1.661767   762A      1.661896  
     763A      1.670741   764A      1.671022   765A      1.671046  
     766A      1.676456   767A      1.676628   768A      1.681549  
     769A      1.684020   770A      1.684120   771A      1.693499  
     772A      1.693824   773A      1.701082   774A      1.701107  
     775A      1.705249   776A      1.705393   777A      1.705485  
     778A      1.706141   779A      1.712163   780A      1.721886  
     781A      1.721905   782A      1.728083   783A      1.736820  
     784A      1.736878   785A      1.738560   786A      1.738775  
     787A      1.738897   788A      1.743218   789A      1.747964  
     790A      1.748015   791A      1.756527   792A      1.757952  
     793A      1.759396   794A      1.759441   795A      1.762795  
     796A      1.767141   797A      1.767214   798A      1.775869  
     799A      1.775890   800A      1.802555   801A      1.812942  
     802A      1.819558   803A      1.819578   804A      1.819626  
     805A      1.822158   806A      1.837312   807A      1.837331  
     808A      1.852033   809A      1.852054   810A      1.876356  
     811A      1.876395   812A      1.876431   813A      1.879654  
     814A      1.886311   815A      1.886410   816A      1.891660  
     817A      1.891711   818A      1.897196   819A      1.903875  
     820A      1.904391   821A      1.920301   822A      1.920349  
     823A      1.922092   824A      1.922159   825A      1.924012  
     826A      1.929382   827A      1.933044   828A      1.941447  
     829A      1.941490   830A      1.948240   831A      1.948321  
     832A      1.957148   833A      1.957242   834A      1.958621  
     835A      1.962125   836A      1.962242   837A      1.969976  
     838A      1.970140   839A      1.974516   840A      1.974786  
     841A      1.978551   842A      1.978705   843A      1.980226  
     844A      1.982900   845A      1.982985   846A      1.998759  
     847A      2.002093   848A      2.002242   849A      2.002399  
     850A      2.003232   851A      2.003368   852A      2.005141  
     853A      2.005192   854A      2.015763   855A      2.015845  
     856A      2.016402   857A      2.016426   858A      2.018729  
     859A      2.030041   860A      2.033776   861A      2.036320  
     862A      2.044558   863A      2.044728   864A      2.049090  
     865A      2.049143   866A      2.050676   867A      2.057636  
     868A      2.058723   869A      2.058765   870A      2.064617  
     871A      2.067452   872A      2.072765   873A      2.072929  
     874A      2.089265   875A      2.090124   876A      2.090989  
     877A      2.091123   878A      2.091537   879A      2.091937  
     880A      2.092005   881A      2.108913   882A      2.112300  
     883A      2.112586   884A      2.118484   885A      2.119198  
     886A      2.120239   887A      2.120263   888A      2.126361  
     889A      2.129868   890A      2.132282   891A      2.132674  
     892A      2.133131   893A      2.138176   894A      2.138218  
     895A      2.142087   896A      2.142170   897A      2.143027  
     898A      2.153452   899A      2.154027   900A      2.156590  
     901A      2.156719   902A      2.157036   903A      2.157198  
     904A      2.161048   905A      2.161116   906A      2.167655  
     907A      2.168748   908A      2.168787   909A      2.170965  
     910A      2.172445   911A      2.172684   912A      2.175609  
     913A      2.179494   914A      2.179560   915A      2.182094  
     916A      2.182163   917A      2.183760   918A      2.187148  
     919A      2.187253   920A      2.195053   921A      2.195264  
     922A      2.195735   923A      2.195793   924A      2.203173  
     925A      2.203194   926A      2.216141   927A      2.221637  
     928A      2.221682   929A      2.223864   930A      2.223923  
     931A      2.233351   932A      2.238839   933A      2.238917  
     934A      2.249479   935A      2.249842   936A      2.252482  
     937A      2.253774   938A      2.258416   939A      2.258521  
     940A      2.261182   941A      2.280160   942A      2.282145  
     943A      2.282190   944A      2.287641   945A      2.290204  
     946A      2.290511   947A      2.291884   948A      2.301610  
     949A      2.301920   950A      2.303296   951A      2.303689  
     952A      2.306153   953A      2.319127   954A      2.319241  
     955A      2.330314   956A      2.330324   957A      2.331564  
     958A      2.331610   959A      2.339524   960A      2.359896  
     961A      2.366569   962A      2.371710   963A      2.373461  
     964A      2.382131   965A      2.383864   966A      2.392465  
     967A      2.393379   968A      2.393474   969A      2.395720  
     970A      2.412009   971A      2.412547   972A      2.413072  
     973A      2.413305   974A      2.427753   975A      2.427845  
     976A      2.437239   977A      2.439883   978A      2.475489  
     979A      2.484749   980A      2.484904   981A      2.484942  
     982A      2.496245   983A      2.502373   984A      2.502413  
     985A      2.530905   986A      2.532888   987A      2.533040  
     988A      2.545630   989A      2.545633   990A      2.562859  
     991A      2.578993   992A      2.590245   993A      2.590806  
     994A      2.603735   995A      2.605392   996A      2.605435  
     997A      2.613195   998A      2.613265   999A      2.616711  
    1000A      2.620276  1001A      2.620283  1002A      2.633535  
    1003A      2.633732  1004A      2.633770  1005A      2.634099  
    1006A      2.646166  1007A      2.646309  1008A      2.648345  
    1009A      2.650020  1010A      2.650235  1011A      2.666055  
    1012A      2.683183  1013A      2.683237  1014A      2.686614  
    1015A      2.692600  1016A      2.693128  1017A      2.700721  
    1018A      2.700788  1019A      2.710084  1020A      2.710430  
    1021A      2.716713  1022A      2.743246  1023A      2.743949  
    1024A      2.744434  1025A      2.745661  1026A      2.764197  
    1027A      2.764532  1028A      2.774336  1029A      2.774344  
    1030A      2.779702  1031A      2.779718  1032A      2.783350  
    1033A      2.783579  1034A      2.799604  1035A      2.812088  
    1036A      2.812485  1037A      2.838984  1038A      2.855986  
    1039A      2.856143  1040A      2.876911  1041A      2.888505  
    1042A      2.888748  1043A      2.911044  1044A      2.911185  
    1045A      2.918423  1046A      2.920531  1047A      2.920617  
    1048A      2.920845  1049A      2.927782  1050A      2.961349  
    1051A      2.961419  1052A      2.962295  1053A      2.976432  
    1054A      2.976453  1055A      2.984369  1056A      2.993530  
    1057A      2.993593  1058A      3.009892  1059A      3.009913  
    1060A      3.022587  1061A      3.068757  1062A      3.068896  
    1063A      3.070693  1064A      3.088775  1065A      3.125845  
    1066A      3.125887  1067A      3.131543  1068A      3.131648  
    1069A      3.169356  1070A      3.170154  1071A      3.187320  
    1072A      3.189818  1073A      3.190082  1074A      3.197372  
    1075A      3.206413  1076A      3.206457  1077A      3.206651  
    1078A      3.208911  1079A      3.208921  1080A      3.217761  
    1081A      3.218131  1082A      3.225848  1083A      3.226282  
    1084A      3.250916  1085A      3.270322  1086A      3.272400  
    1087A      3.281790  1088A      3.297712  1089A      3.335042  
    1090A      3.337683  1091A      3.337840  1092A      3.342836  
    1093A      3.342995  1094A      3.477892  1095A      3.478353  
    1096A      3.508196  1097A      3.543483  1098A      3.546136  
    1099A      3.611775  1100A      3.639692  1101A      3.641661  
    1102A      3.656116  1103A      3.687394  1104A      3.689388  
    1105A      3.723714  1106A      3.729067  1107A      3.830491  
    1108A      3.844704  1109A      3.845673  1110A      3.930802  
    1111A      3.930811  1112A      3.973652  1113A      3.973765  
    1114A      4.038593  1115A      4.072635  1116A      4.096685  
    1117A      4.108570  1118A      4.144909  1119A      4.175309  
    1120A      4.175596  1121A      4.175654  1122A      4.203323  
    1123A      4.203342  1124A      4.203532  1125A      4.203608  
    1126A      4.203821  1127A      4.236896  1128A      4.237078  
    1129A      4.237097  1130A      4.450256  1131A      4.450611  
    1132A      4.451150  1133A      4.651454  1134A      4.651532  
    1135A      4.652777  1136A      4.752093  1137A      4.787624  
    1138A      4.787935  

    Final Occupation by Irrep:
              A 
    DOCC [   192 ]
    NA   [   192 ]
    NB   [   192 ]

  @DF-RHF Final Energy: -2478.65782639776990

   => Energetics <=

    Nuclear Repulsion Energy =           7551.1474566107017381
    One-Electron Energy =              -18454.5912416967621539
    Two-Electron Energy =                8424.7859586882896110
    Total Energy =                      -2478.6578263977698953

Computation Completed


Properties will be evaluated at   0.000000,   0.000000,   0.000000 [a0]

Properties computed using the SCF density matrix


 Multipole Moments:

 ------------------------------------------------------------------------------------
     Multipole            Electronic (a.u.)      Nuclear  (a.u.)        Total (a.u.)
 ------------------------------------------------------------------------------------

 L = 1.  Multiply by 2.5417464519 to convert [e a0] to [Debye]
 Dipole X            :         -0.0005558            0.0000481           -0.0005078
 Dipole Y            :          0.0010755           -0.0001453            0.0009302
 Dipole Z            :         30.2427110          -40.4600458          -10.2173348
 Magnitude           :                                                   10.2173348

 ------------------------------------------------------------------------------------

*** tstop() called on d-16-9-3 at Sat Jan 20 23:30:32 2024
Module time:
	user time   =    3429.62 seconds =      57.16 minutes
	system time =     101.42 seconds =       1.69 minutes
	total time  =        375 seconds =       6.25 minutes
Total time:
	user time   =    3429.62 seconds =      57.16 minutes
	system time =     101.42 seconds =       1.69 minutes
	total time  =        375 seconds =       6.25 minutes

  //>>>>>>>>>>>>>>>>>>>>>>>>>>>>>>>>>>>//
  //            Monomer A HF           //
  //<<<<<<<<<<<<<<<<<<<<<<<<<<<<<<<<<<<//

   => Libint2 <=

    Primary   basis highest AM E, G, H:  7, 7, 4
    Auxiliary basis highest AM E, G, H:  7, 7, 5
    Onebody   basis highest AM E, G, H:  7, 7, 5
    Solid Harmonics ordering:            gaussian

*** tstart() called on d-16-9-3
*** at Sat Jan 20 23:30:32 2024

   => Loading Basis Set <=

    Name: JUN-CC-PVDZ
    Role: ORBITAL
    Keyword: BASIS
    atoms 1     entry B          line   130 file /home/gridsan/tfroembgen/.conda/envs/psi4test/share/psi4/basis/jun-cc-pvdz.gbs 
    atoms 2-5   entry F          line   266 file /home/gridsan/tfroembgen/.conda/envs/psi4test/share/psi4/basis/jun-cc-pvdz.gbs 
    atoms 6-59  entry C          line   164 file /home/gridsan/tfroembgen/.conda/envs/psi4test/share/psi4/basis/jun-cc-pvdz.gbs 
    atoms 60-77 entry H          line    36 file /home/gridsan/tfroembgen/.conda/envs/psi4test/share/psi4/basis/jun-cc-pvdz.gbs 


         ---------------------------------------------------------
                                   SCF
               by Justin Turney, Rob Parrish, Andy Simmonett
                          and Daniel G. A. Smith
                              RHF Reference
                       12 Threads,  30517 MiB Core
         ---------------------------------------------------------

  ==> Geometry <==

    Molecular point group: c1
    Full point group: C1

    Geometry (in Angstrom), charge = -1, multiplicity = 1:

       Center              X                  Y                   Z               Mass       
    ------------   -----------------  -----------------  -----------------  -----------------
         B           -0.000198161052     0.000273808717     5.837606403211    11.009305360000
         F           -0.000000401852    -0.000000464183     7.250391403211    18.998403162730
         F            1.147859598148     0.675780735817     5.366465403211    18.998403162730
         F            0.011917658148    -1.332011464183     5.366667403211    18.998403162730
         F           -1.159666401852     0.656073035817     5.366746403211    18.998403162730
      Gh(C)           1.225311973413     0.707538196736    -0.756289969505    12.000000000000
      Gh(C)           1.225323934041    -0.707538986754    -0.768620779076    12.000000000000
      Gh(C)          -0.000006075942     1.414965821907    -0.769154402596    12.000000000000
      Gh(C)           2.456448831939     1.418327794995    -0.753403112105    12.000000000000
      Gh(C)           0.000010905269    -1.414976590818    -0.758954845272    12.000000000000
      Gh(C)          -1.225300870919     0.707545281801    -0.754038449183    12.000000000000
      Gh(C)           2.456437833310    -1.418323396064    -0.770865935933    12.000000000000
      Gh(C)          -0.000001254988     2.836800939098    -0.771557952730    12.000000000000
      Gh(C)           3.681826775460     0.709317863818    -0.770517146135    12.000000000000
      Gh(C)           2.455120126855     2.834223569306    -0.770619703095    12.000000000000
      Gh(C)           3.681821183209    -0.709333931612    -0.754444662116    12.000000000000
      Gh(C)          -1.225313520698    -0.707527607727    -0.767548017649    12.000000000000
      Gh(C)           1.226699659192     3.543469391811    -0.754260630186    12.000000000000
      Gh(C)           0.000004862847    -2.836782231419    -0.754106677650    12.000000000000
      Gh(C)          -2.456435954859     1.418316826102    -0.754003053337    12.000000000000
      Gh(C)           2.455123495769    -2.834230120772    -0.754596570484    12.000000000000
      Gh(C)          -1.226714286599     3.543468971567    -0.754157296966    12.000000000000
      Gh(C)           4.914517373191     1.427172780306    -0.764036463105    12.000000000000
      Gh(C)           3.693150269466     3.542795200362    -0.763986663469    12.000000000000
      Gh(C)          -2.456437522078    -1.418313373022    -0.770890974057    12.000000000000
      Gh(C)           1.226704919933    -3.543474334090    -0.770230760935    12.000000000000
      Gh(C)          -2.455125320518     2.834216570451    -0.770613326749    12.000000000000
      Gh(C)           4.914524458772    -1.427187002127    -0.761063720371    12.000000000000
      Gh(C)           1.221424691688     4.970133973077    -0.760925286111    12.000000000000
      Gh(C)           4.893008307311     2.825187907843    -0.762819794746    12.000000000000
      Gh(C)          -1.226696930499    -3.543471089260    -0.769963556526    12.000000000000
      Gh(C)          -3.681818898536     0.709324874549    -0.770504465655    12.000000000000
      Gh(C)           3.693147179140    -3.542801433574    -0.760945829810    12.000000000000
      Gh(C)          -1.221432174004     4.970128205680    -0.760741790738    12.000000000000
      Gh(C)           6.134771050916     0.680547854922    -0.763266688555    12.000000000000
      Gh(C)           3.656788958600     4.972953151384    -0.763078025686    12.000000000000
      Gh(C)          -2.455126829744    -2.834215185244    -0.754840928282    12.000000000000
      Gh(C)          -3.681819101071    -0.709325795652    -0.754327040538    12.000000000000
      Gh(C)           4.893012695903    -2.825200197815    -0.762208642851    12.000000000000
      Gh(C)          -0.000000995123     5.650447273849    -0.761973099445    12.000000000000
      Gh(C)           6.134775190322    -0.680554946258    -0.762001368040    12.000000000000
      Gh(C)           2.478131560845     5.653576659148    -0.761789246036    12.000000000000
      Gh(C)           1.221422482727    -4.970127147116    -0.763724783134    12.000000000000
      Gh(C)          -3.693162305975     3.542796862009    -0.763821156010    12.000000000000
      Gh(C)          -1.221428442955    -4.970118395779    -0.763837544966    12.000000000000
      Gh(C)          -4.914521729952     1.427175354812    -0.763959518098    12.000000000000
      Gh(C)           3.656787097669    -4.972955318422    -0.761627525152    12.000000000000
      Gh(C)          -2.478138452116     5.653574330345    -0.761504721028    12.000000000000
      Gh(C)          -3.693141660574    -3.542790311162    -0.761061955966    12.000000000000
      Gh(C)          -4.914512405063    -1.427181092211    -0.761029023197    12.000000000000
      Gh(C)          -0.000005930936    -5.650438379197    -0.762368603566    12.000000000000
      Gh(C)          -4.893020406111     2.825188506736    -0.762829876607    12.000000000000
      Gh(C)           2.478126071288    -5.653573636072    -0.762718125945    12.000000000000
      Gh(C)          -3.656798632268     4.972956089858    -0.762901345312    12.000000000000
      Gh(C)          -4.892999400866    -2.825191859243    -0.762362678549    12.000000000000
      Gh(C)          -2.478128420093    -5.653566262190    -0.762993313592    12.000000000000
      Gh(C)          -6.134770425341     0.680548674073    -0.763292240258    12.000000000000
      Gh(C)          -3.656788755199    -4.972944115154    -0.761841812969    12.000000000000
      Gh(C)          -6.134764964923    -0.680554007665    -0.762021843835    12.000000000000
      Gh(H)           5.835288573806     3.369275802771    -0.758460469084     1.007825032230
      Gh(H)           7.073859250737     1.228217156716    -0.762805045162     1.007825032230
      Gh(H)           4.600663342164     5.512380710270    -0.762572824934     1.007825032230
      Gh(H)           5.835283465295    -3.369306148912    -0.766663110165     1.007825032230
      Gh(H)          -0.000012073316     6.738530581953    -0.766322344453     1.007825032230
      Gh(H)           7.073861249820    -1.228227034927    -0.762510106134     1.007825032230
      Gh(H)           2.473313809789     6.740684199211    -0.762255966967     1.007825032230
      Gh(H)           4.600668569371    -5.512376221359    -0.762037522321     1.007825032230
      Gh(H)          -2.473318602548     6.740681627423    -0.761954620342     1.007825032230
      Gh(H)          -0.000010190238    -6.738528268635    -0.757838918582     1.007825032230
      Gh(H)          -5.835301836354     3.369270858113    -0.758324446935     1.007825032230
      Gh(H)           2.473308001821    -6.740685466612    -0.762147795520     1.007825032230
      Gh(H)          -4.600674763218     5.512377934420    -0.762407496611     1.007825032230
      Gh(H)          -5.835279428845    -3.369289055963    -0.766942416046     1.007825032230
      Gh(H)          -2.473300269450    -6.740679170323    -0.762597112064     1.007825032230
      Gh(H)          -7.073857688778     1.228220380657    -0.762889036643     1.007825032230
      Gh(H)          -4.600673708095    -5.512362761970    -0.762209830343     1.007825032230
      Gh(H)          -7.073856856419    -1.228220724160    -0.762604962600     1.007825032230

  Running in c1 symmetry.

  Rotational constants: A =      0.00153  B =      0.00152  C =      0.00110 [cm^-1]
  Rotational constants: A =     45.71877  B =     45.71394  C =     33.02251 [MHz]
  Nuclear repulsion =  178.879455044809134

  Charge       = -1
  Multiplicity = 1
  Electrons    = 42
  Nalpha       = 21
  Nbeta        = 21

  ==> Algorithm <==

  SCF Algorithm Type is DF.
  DIIS enabled.
  MOM disabled.
  Fractional occupation disabled.
  Guess Type is SAD.
  Energy threshold   = 1.00e-08
  Density threshold  = 1.00e-08
  Integral threshold = 1.00e-12

  ==> Primary Basis <==

  Basis Set: JUN-CC-PVDZ
    Blend: JUN-CC-PVDZ
    Number of shells: 526
    Number of basis functions: 1152
    Number of Cartesian functions: 1211
    Spherical Harmonics?: true
    Max angular momentum: 2

   => Loading Basis Set <=

    Name: (JUN-CC-PVDZ AUX)
    Role: JKFIT
    Keyword: DF_BASIS_SCF
    atoms 1     entry B          line    90 file /home/gridsan/tfroembgen/.conda/envs/psi4test/share/psi4/basis/jun-cc-pvdz-jkfit.gbs 
    atoms 2-5   entry F          line   314 file /home/gridsan/tfroembgen/.conda/envs/psi4test/share/psi4/basis/jun-cc-pvdz-jkfit.gbs 
    atoms 6-59  entry C          line   146 file /home/gridsan/tfroembgen/.conda/envs/psi4test/share/psi4/basis/jun-cc-pvdz-jkfit.gbs 
    atoms 60-77 entry H          line    70 file /home/gridsan/tfroembgen/.conda/envs/psi4test/share/psi4/basis/jun-cc-pvdz-jkfit.gbs 

  ==> Integral Setup <==

  ==> DiskDFJK: Density-Fitted J/K Matrices <==

    J tasked:                  Yes
    K tasked:                  Yes
    wK tasked:                  No
    OpenMP threads:             12
    Integrals threads:          12
    Memory [MiB]:            22888
    Algorithm:                Core
    Integral Cache:           LOAD
    Schwarz Cutoff:          1E-12
    Fitting Condition:       1E-10

   => Auxiliary Basis Set <=

  Basis Set: (JUN-CC-PVDZ AUX)
    Blend: JUN-CC-PVDZ-JKFIT
    Number of shells: 1755
    Number of basis functions: 5075
    Number of Cartesian functions: 5819
    Spherical Harmonics?: true
    Max angular momentum: 3

  Minimum eigenvalue in the overlap matrix is 8.3937909487E-10.
  Reciprocal condition number of the overlap matrix is 3.7474779924E-11.
    Using canonical orthogonalization.
  Overall, 14 of 1152 possible MOs eliminated.


  ==> Pre-Iterations <==

  SCF Guess: Superposition of Atomic Densities via on-the-fly atomic UHF (no occupation information).

   -------------------------
    Irrep   Nso     Nmo    
   -------------------------
     A       1152    1138 
   -------------------------
    Total    1152    1138
   -------------------------

  ==> Iterations <==

                           Total Energy        Delta E     RMS |[F,P]|

   @DF-RHF iter SAD:  -421.23044315611702   -4.21230e+02   0.00000e+00 
   @DF-RHF iter   1:  -422.64974581616298   -1.41930e+00   5.29833e-04 ADIIS/DIIS
   @DF-RHF iter   2:  -422.73253181346576   -8.27860e-02   3.22945e-04 ADIIS/DIIS
   @DF-RHF iter   3:  -422.77110593265047   -3.85741e-02   1.73862e-05 DIIS
   @DF-RHF iter   4:  -422.77146639492213   -3.60462e-04   2.75184e-06 DIIS
   @DF-RHF iter   5:  -422.77147503664719   -8.64173e-06   7.01783e-07 DIIS
   @DF-RHF iter   6:  -422.77147559424247   -5.57595e-07   1.44788e-07 DIIS
   @DF-RHF iter   7:  -422.77147561519706   -2.09546e-08   1.51651e-08 DIIS
   @DF-RHF iter   8:  -422.77147561541159   -2.14527e-10   5.91374e-09 DIIS
  Energy and wave function converged.


  ==> Post-Iterations <==

    Orbital Energies [Eh]
    ---------------------

    Doubly Occupied:                                                      

       1A    -26.067091     2A    -26.067019     3A    -26.066995  
       4A    -26.066911     5A     -7.539277     6A     -1.410952  
       7A     -1.351241     8A     -1.351189     9A     -1.351056  
      10A     -0.602232    11A     -0.528441    12A     -0.528409  
      13A     -0.528353    14A     -0.447297    15A     -0.447255  
      16A     -0.408459    17A     -0.408425    18A     -0.408364  
      19A     -0.384984    20A     -0.384944    21A     -0.384897  

    Virtual:                                                              

      22A      0.079440    23A      0.081311    24A      0.081314  
      25A      0.089342    26A      0.089346    27A      0.101007  
      28A      0.102091    29A      0.103170    30A      0.118140  
      31A      0.118141    32A      0.119393    33A      0.119397  
      34A      0.128772    35A      0.135188    36A      0.135196  
      37A      0.136608    38A      0.136613    39A      0.137062  
      40A      0.137078    41A      0.144904    42A      0.148095  
      43A      0.148101    44A      0.157131    45A      0.158102  
      46A      0.158421    47A      0.161580    48A      0.166238  
      49A      0.168641    50A      0.170429    51A      0.170434  
      52A      0.170773    53A      0.177522    54A      0.177536  
      55A      0.179646    56A      0.179651    57A      0.184150  
      58A      0.184175    59A      0.187425    60A      0.187443  
      61A      0.190625    62A      0.190630    63A      0.190900  
      64A      0.193686    65A      0.194119    66A      0.194139  
      67A      0.200287    68A      0.200306    69A      0.205087  
      70A      0.205092    71A      0.207729    72A      0.207734  
      73A      0.209373    74A      0.210658    75A      0.213432  
      76A      0.213447    77A      0.215092    78A      0.216816  
      79A      0.217017    80A      0.217021    81A      0.223549  
      82A      0.223553    83A      0.226600    84A      0.229859  
      85A      0.235109    86A      0.236148    87A      0.236150  
      88A      0.236416    89A      0.238258    90A      0.239786  
      91A      0.239821    92A      0.248769    93A      0.248780  
      94A      0.249910    95A      0.251234    96A      0.251449  
      97A      0.254014    98A      0.254171    99A      0.260733  
     100A      0.260735   101A      0.263374   102A      0.263392  
     103A      0.266763   104A      0.266786   105A      0.267632  
     106A      0.268838   107A      0.268841   108A      0.275325  
     109A      0.275340   110A      0.279664   111A      0.280368  
     112A      0.280372   113A      0.286294   114A      0.286590  
     115A      0.286601   116A      0.287788   117A      0.292596  
     118A      0.292612   119A      0.293364   120A      0.293384  
     121A      0.297644   122A      0.304068   123A      0.304496  
     124A      0.308516   125A      0.308531   126A      0.310686  
     127A      0.313280   128A      0.313284   129A      0.318949  
     130A      0.318960   131A      0.320749   132A      0.320751  
     133A      0.321747   134A      0.321772   135A      0.325607  
     136A      0.334887   137A      0.334893   138A      0.338914  
     139A      0.339264   140A      0.339965   141A      0.339984  
     142A      0.343545   143A      0.343547   144A      0.343817  
     145A      0.344290   146A      0.344294   147A      0.350491  
     148A      0.352711   149A      0.355836   150A      0.360373  
     151A      0.360406   152A      0.361977   153A      0.365227  
     154A      0.365246   155A      0.372238   156A      0.381241  
     157A      0.381252   158A      0.381847   159A      0.381861  
     160A      0.382255   161A      0.387160   162A      0.387231  
     163A      0.388375   164A      0.389065   165A      0.391896  
     166A      0.391899   167A      0.398889   168A      0.398966  
     169A      0.399512   170A      0.402878   171A      0.404382  
     172A      0.404454   173A      0.414178   174A      0.415889  
     175A      0.415908   176A      0.420876   177A      0.421047  
     178A      0.421969   179A      0.426374   180A      0.426719  
     181A      0.427920   182A      0.427931   183A      0.428022  
     184A      0.429831   185A      0.431928   186A      0.432156  
     187A      0.434835   188A      0.435024   189A      0.435076  
     190A      0.441596   191A      0.442071   192A      0.442673  
     193A      0.442737   194A      0.445455   195A      0.446503  
     196A      0.446545   197A      0.450570   198A      0.453985  
     199A      0.454064   200A      0.459802   201A      0.459907  
     202A      0.464379   203A      0.464445   204A      0.469509  
     205A      0.473219   206A      0.473379   207A      0.476940  
     208A      0.477920   209A      0.479370   210A      0.479389  
     211A      0.488461   212A      0.488663   213A      0.488788  
     214A      0.490469   215A      0.492173   216A      0.493126  
     217A      0.493137   218A      0.498387   219A      0.498546  
     220A      0.499718   221A      0.502592   222A      0.502637  
     223A      0.505855   224A      0.507094   225A      0.507274  
     226A      0.508256   227A      0.508386   228A      0.508928  
     229A      0.511369   230A      0.516277   231A      0.516583  
     232A      0.520687   233A      0.521242   234A      0.521596  
     235A      0.524509   236A      0.524834   237A      0.529944  
     238A      0.534048   239A      0.534097   240A      0.534491  
     241A      0.541954   242A      0.541972   243A      0.543341  
     244A      0.543839   245A      0.543897   246A      0.547762  
     247A      0.550354   248A      0.550364   249A      0.551091  
     250A      0.557519   251A      0.557603   252A      0.558798  
     253A      0.559790   254A      0.559844   255A      0.564415  
     256A      0.564572   257A      0.565015   258A      0.570900  
     259A      0.576259   260A      0.576301   261A      0.580376  
     262A      0.582594   263A      0.582614   264A      0.584460  
     265A      0.587566   266A      0.587604   267A      0.589237  
     268A      0.591062   269A      0.592288   270A      0.592342  
     271A      0.594901   272A      0.598393   273A      0.605476  
     274A      0.605521   275A      0.605903   276A      0.612275  
     277A      0.612509   278A      0.612608   279A      0.619182  
     280A      0.621987   281A      0.623675   282A      0.623691  
     283A      0.631973   284A      0.631992   285A      0.633958  
     286A      0.634037   287A      0.637887   288A      0.640673  
     289A      0.641880   290A      0.643090   291A      0.643092  
     292A      0.648338   293A      0.648369   294A      0.652848  
     295A      0.656336   296A      0.659499   297A      0.659522  
     298A      0.671428   299A      0.671491   300A      0.672921  
     301A      0.672972   302A      0.674871   303A      0.675950  
     304A      0.675960   305A      0.679017   306A      0.679027  
     307A      0.681868   308A      0.681909   309A      0.688314  
     310A      0.698894   311A      0.699182   312A      0.700687  
     313A      0.706667   314A      0.706688   315A      0.706811  
     316A      0.707527   317A      0.707541   318A      0.708433  
     319A      0.709584   320A      0.709640   321A      0.710566  
     322A      0.722185   323A      0.728245   324A      0.734275  
     325A      0.737382   326A      0.740933   327A      0.740949  
     328A      0.741083   329A      0.742112   330A      0.742116  
     331A      0.749922   332A      0.753799   333A      0.753843  
     334A      0.753923   335A      0.758228   336A      0.758241  
     337A      0.763364   338A      0.772258   339A      0.772330  
     340A      0.775891   341A      0.775967   342A      0.778258  
     343A      0.778275   344A      0.780909   345A      0.782462  
     346A      0.782573   347A      0.790996   348A      0.791009  
     349A      0.791076   350A      0.800429   351A      0.800455  
     352A      0.804686   353A      0.807596   354A      0.807640  
     355A      0.821405   356A      0.821408   357A      0.822284  
     358A      0.826894   359A      0.833304   360A      0.833322  
     361A      0.835630   362A      0.836399   363A      0.836993  
     364A      0.837039   365A      0.842608   366A      0.844111  
     367A      0.844289   368A      0.847988   369A      0.848053  
     370A      0.852995   371A      0.853347   372A      0.858353  
     373A      0.858366   374A      0.858964   375A      0.862975  
     376A      0.863065   377A      0.865913   378A      0.865955  
     379A      0.867936   380A      0.870617   381A      0.878177  
     382A      0.898608   383A      0.898613   384A      0.910621  
     385A      0.910644   386A      0.930003   387A      0.930172  
     388A      0.936802   389A      0.936921   390A      0.938570  
     391A      0.942816   392A      0.944485   393A      0.944513  
     394A      0.951121   395A      0.953066   396A      0.953116  
     397A      0.960847   398A      0.960880   399A      0.962508  
     400A      0.966070   401A      0.995607   402A      0.996293  
     403A      0.996312   404A      1.011886   405A      1.020916  
     406A      1.020942   407A      1.031320   408A      1.031364  
     409A      1.039260   410A      1.046567   411A      1.054972  
     412A      1.054988   413A      1.071564   414A      1.074577  
     415A      1.097466   416A      1.097521   417A      1.117379  
     418A      1.117437   419A      1.123125   420A      1.125171  
     421A      1.125186   422A      1.134902   423A      1.134940  
     424A      1.159738   425A      1.162392   426A      1.162410  
     427A      1.169884   428A      1.222418   429A      1.222484  
     430A      1.226703   431A      1.226851   432A      1.231687  
     433A      1.240858   434A      1.243489   435A      1.243495  
     436A      1.262106   437A      1.262156   438A      1.279549  
     439A      1.284467   440A      1.284474   441A      1.290491  
     442A      1.298069   443A      1.345059   444A      1.345172  
     445A      1.355765   446A      1.362689   447A      1.362742  
     448A      1.369061   449A      1.371498   450A      1.371546  
     451A      1.376993   452A      1.385365   453A      1.385460  
     454A      1.394350   455A      1.397140   456A      1.425940  
     457A      1.437259   458A      1.437305   459A      1.484388  
     460A      1.511909   461A      1.512455   462A      1.529889  
     463A      1.529913   464A      1.535292   465A      1.536681  
     466A      1.536792   467A      1.539831   468A      1.550033  
     469A      1.550908   470A      1.614605   471A      1.622655  
     472A      1.622786   473A      1.626021   474A      1.627277  
     475A      1.633846   476A      1.635794   477A      1.635863  
     478A      1.641795   479A      1.693051   480A      1.704606  
     481A      1.706868   482A      1.717654   483A      1.720466  
     484A      1.728099   485A      1.734615   486A      1.734771  
     487A      1.753374   488A      1.754023   489A      1.755773  
     490A      1.756980   491A      1.770308   492A      1.807999  
     493A      1.809528   494A      1.809621   495A      1.810673  
     496A      1.812005   497A      1.818039   498A      1.822108  
     499A      1.822433   500A      1.825894   501A      1.833821  
     502A      1.833901   503A      1.844770   504A      1.855690  
     505A      1.856967   506A      1.862505   507A      1.862937  
     508A      1.869719   509A      1.880155   510A      1.890627  
     511A      1.891791   512A      1.892119   513A      1.894405  
     514A      1.894510   515A      1.894662   516A      1.896332  
     517A      1.898322   518A      1.900110   519A      1.905136  
     520A      1.905221   521A      1.908784   522A      1.908920  
     523A      1.916397   524A      1.924383   525A      1.925057  
     526A      1.935462   527A      1.935507   528A      1.940792  
     529A      1.943643   530A      1.948559   531A      1.951177  
     532A      1.951373   533A      1.955320   534A      1.955841  
     535A      1.962396   536A      1.962432   537A      1.972754  
     538A      1.973291   539A      1.973598   540A      1.973952  
     541A      1.974607   542A      1.975714   543A      1.985113  
     544A      1.985465   545A      1.993327   546A      1.994153  
     547A      1.994750   548A      2.000426   549A      2.000504  
     550A      2.001745   551A      2.001864   552A      2.003017  
     553A      2.004198   554A      2.016806   555A      2.016958  
     556A      2.035224   557A      2.035889   558A      2.036185  
     559A      2.036254   560A      2.040812   561A      2.040981  
     562A      2.042462   563A      2.046232   564A      2.046345  
     565A      2.053295   566A      2.053345   567A      2.059079  
     568A      2.061584   569A      2.063393   570A      2.063404  
     571A      2.067552   572A      2.067686   573A      2.068093  
     574A      2.073098   575A      2.086968   576A      2.087002  
     577A      2.095606   578A      2.095840   579A      2.123433  
     580A      2.132493   581A      2.132510   582A      2.137990  
     583A      2.141266   584A      2.141396   585A      2.144169  
     586A      2.145217   587A      2.152424   588A      2.152587  
     589A      2.160053   590A      2.160273   591A      2.163049  
     592A      2.164349   593A      2.168584   594A      2.180755  
     595A      2.180822   596A      2.185970   597A      2.187041  
     598A      2.191911   599A      2.194603   600A      2.194653  
     601A      2.204770   602A      2.204809   603A      2.204894  
     604A      2.206584   605A      2.206608   606A      2.212930  
     607A      2.212987   608A      2.214173   609A      2.215140  
     610A      2.215263   611A      2.215417   612A      2.215472  
     613A      2.220338   614A      2.220390   615A      2.225986  
     616A      2.225993   617A      2.227516   618A      2.229992  
     619A      2.230000   620A      2.234243   621A      2.235596  
     622A      2.235853   623A      2.236492   624A      2.238871  
     625A      2.239774   626A      2.241260   627A      2.241371  
     628A      2.243376   629A      2.243432   630A      2.244826  
     631A      2.245026   632A      2.249494   633A      2.249527  
     634A      2.250311   635A      2.253793   636A      2.253913  
     637A      2.259477   638A      2.259839   639A      2.260661  
     640A      2.262223   641A      2.262315   642A      2.283027  
     643A      2.283055   644A      2.303692   645A      2.304022  
     646A      2.309087   647A      2.309113   648A      2.313632  
     649A      2.313850   650A      2.317189   651A      2.317359  
     652A      2.317426   653A      2.333323   654A      2.334120  
     655A      2.334234   656A      2.339905   657A      2.339990  
     658A      2.341051   659A      2.351705   660A      2.351740  
     661A      2.358022   662A      2.358047   663A      2.363779  
     664A      2.375327   665A      2.375394   666A      2.383234  
     667A      2.393141   668A      2.393154   669A      2.394720  
     670A      2.394796   671A      2.399491   672A      2.406274  
     673A      2.410789   674A      2.410808   675A      2.412397  
     676A      2.424831   677A      2.426056   678A      2.432299  
     679A      2.432376   680A      2.434187   681A      2.434300  
     682A      2.436320   683A      2.436354   684A      2.438082  
     685A      2.438773   686A      2.445375   687A      2.445503  
     688A      2.445591   689A      2.451402   690A      2.451553  
     691A      2.455541   692A      2.459994   693A      2.462335  
     694A      2.475998   695A      2.476030   696A      2.478428  
     697A      2.478671   698A      2.482251   699A      2.484012  
     700A      2.487714   701A      2.487779   702A      2.489339  
     703A      2.489527   704A      2.497270   705A      2.507589  
     706A      2.510516   707A      2.510519   708A      2.513962  
     709A      2.513996   710A      2.521429   711A      2.521483  
     712A      2.531409   713A      2.533795   714A      2.536935  
     715A      2.536979   716A      2.541872   717A      2.551823  
     718A      2.552106   719A      2.552258   720A      2.568054  
     721A      2.568064   722A      2.571518   723A      2.571557  
     724A      2.580675   725A      2.590310   726A      2.593100  
     727A      2.601504   728A      2.601562   729A      2.607981  
     730A      2.608606   731A      2.614253   732A      2.614351  
     733A      2.614597   734A      2.614649   735A      2.622008  
     736A      2.626361   737A      2.626426   738A      2.631226  
     739A      2.639166   740A      2.646112   741A      2.646385  
     742A      2.647207   743A      2.671236   744A      2.671296  
     745A      2.688216   746A      2.691005   747A      2.691081  
     748A      2.697997   749A      2.698022   750A      2.698677  
     751A      2.698728   752A      2.699624   753A      2.714000  
     754A      2.714779   755A      2.715095   756A      2.719131  
     757A      2.723278   758A      2.723665   759A      2.724631  
     760A      2.724665   761A      2.742336   762A      2.742472  
     763A      2.758453   764A      2.758489   765A      2.767047  
     766A      2.767332   767A      2.774386   768A      2.775770  
     769A      2.777840   770A      2.780287   771A      2.780501  
     772A      2.785438   773A      2.785471   774A      2.790558  
     775A      2.790647   776A      2.809524   777A      2.809662  
     778A      2.811388   779A      2.811455   780A      2.811978  
     781A      2.816292   782A      2.824219   783A      2.824313  
     784A      2.825723   785A      2.833065   786A      2.834840  
[...]
     709A      1.369049   710A      1.380075   711A      1.391492  
     712A      1.401007   713A      1.404524   714A      1.404549  
     715A      1.408429   716A      1.408464   717A      1.412633  
     718A      1.412686   719A      1.420061   720A      1.422485  
     721A      1.427637   722A      1.427658   723A      1.429580  
     724A      1.431877   725A      1.436366   726A      1.436385  
     727A      1.438689   728A      1.439706   729A      1.439925  
     730A      1.440246   731A      1.448530   732A      1.448561  
     733A      1.450511   734A      1.464277   735A      1.464292  
     736A      1.474536   737A      1.474723   738A      1.516493  
     739A      1.516522   740A      1.521340   741A      1.521368  
     742A      1.530636   743A      1.552346   744A      1.574497  
     745A      1.595661   746A      1.599677   747A      1.600245  
     748A      1.601386   749A      1.608779   750A      1.608823  
     751A      1.609679   752A      1.612909   753A      1.613089  
     754A      1.618308   755A      1.622177   756A      1.622283  
     757A      1.630388   758A      1.630717   759A      1.640110  
     760A      1.640121   761A      1.641400   762A      1.641421  
     763A      1.643529   764A      1.643574   765A      1.644621  
     766A      1.644699   767A      1.645847   768A      1.655091  
     769A      1.661215   770A      1.661235   771A      1.667477  
     772A      1.676314   773A      1.676371   774A      1.676763  
     775A      1.676782   776A      1.677026   777A      1.683480  
     778A      1.686657   779A      1.686710   780A      1.696058  
     781A      1.698160   782A      1.699236   783A      1.699282  
     784A      1.701066   785A      1.704775   786A      1.704848  
     787A      1.715764   788A      1.715784   789A      1.741678  
     790A      1.743011   791A      1.743199   792A      1.751403  
     793A      1.760352   794A      1.760372   795A      1.761067  
     796A      1.761808   797A      1.776765   798A      1.776788  
     799A      1.791568   800A      1.791589   801A      1.816647  
     802A      1.816677   803A      1.817002   804A      1.817904  
     805A      1.824665   806A      1.824765   807A      1.831019  
     808A      1.831077   809A      1.831573   810A      1.837367  
     811A      1.842403   812A      1.842860   813A      1.860839  
     814A      1.860888   815A      1.862142   816A      1.862202  
     817A      1.864079   818A      1.869293   819A      1.872457  
     820A      1.880166   821A      1.880219   822A      1.896211  
     823A      1.896303   824A      1.899565   825A      1.902964  
     826A      1.903089   827A      1.908559   828A      1.908710  
     829A      1.914291   830A      1.914553   831A      1.917674  
     832A      1.917825   833A      1.919232   834A      1.921998  
     835A      1.922083   836A      1.940445   837A      1.941621  
     838A      1.942013   839A      1.942186   840A      1.946534  
     841A      1.946565   842A      1.954336   843A      1.954390  
     844A      1.954886   845A      1.954918   846A      1.958004  
     847A      1.971261   848A      1.983432   849A      1.983489  
     850A      1.990399   851A      1.997104   852A      1.998607  
     853A      1.998625   854A      2.004885   855A      2.008158  
     856A      2.012428   857A      2.012597   858A      2.027842  
     859A      2.028624   860A      2.030205   861A      2.030384  
     862A      2.030738   863A      2.031300   864A      2.031421  
     865A      2.047956   866A      2.052067   867A      2.052435  
     868A      2.057620   869A      2.058206   870A      2.060625  
     871A      2.060951   872A      2.068356   873A      2.070887  
     874A      2.071640   875A      2.072006   876A      2.076429  
     877A      2.076464   878A      2.082307   879A      2.085649  
     880A      2.085697   881A      2.093107   882A      2.094973  
     883A      2.096067   884A      2.096854   885A      2.100573  
     886A      2.100636   887A      2.107603   888A      2.108255  
     889A      2.108315   890A      2.110485   891A      2.110639  
     892A      2.113743   893A      2.114804   894A      2.119372  
     895A      2.119434   896A      2.120788   897A      2.120852  
     898A      2.126470   899A      2.126510   900A      2.133895  
     901A      2.134569   902A      2.135892   903A      2.135964  
     904A      2.143180   905A      2.143200   906A      2.155873  
     907A      2.159793   908A      2.159854   909A      2.162954  
     910A      2.163003   911A      2.171355   912A      2.178429  
     913A      2.178499   914A      2.190433   915A      2.190822  
     916A      2.192494   917A      2.193789   918A      2.195793  
     919A      2.195894   920A      2.198913   921A      2.219662  
     922A      2.220274   923A      2.220306   924A      2.228051  
     925A      2.228238   926A      2.228858   927A      2.229264  
     928A      2.243254   929A      2.243597   930A      2.243957  
     931A      2.244365   932A      2.247172   933A      2.260112  
     934A      2.260223   935A      2.270170   936A      2.270180  
     937A      2.272038   938A      2.272084   939A      2.281046  
     940A      2.300180   941A      2.306667   942A      2.310405  
     943A      2.312265   944A      2.320448   945A      2.322407  
     946A      2.330981   947A      2.331007   948A      2.331106  
     949A      2.333906   950A      2.350724   951A      2.351405  
     952A      2.352412   953A      2.352495   954A      2.366314  
     955A      2.366432   956A      2.374611   957A      2.379544  
     958A      2.415871   959A      2.423998   960A      2.424378  
     961A      2.424402   962A      2.436447   963A      2.441138  
     964A      2.441179   965A      2.469914   966A      2.472783  
     967A      2.472940   968A      2.485452   969A      2.485467  
     970A      2.502292   971A      2.519412   972A      2.529803  
     973A      2.529992   974A      2.544194   975A      2.545649  
     976A      2.545679   977A      2.554345   978A      2.554411  
     979A      2.554796   980A      2.559840   981A      2.559845  
     982A      2.572978   983A      2.573013   984A      2.574646  
     985A      2.575199   986A      2.586203   987A      2.586318  
     988A      2.587318   989A      2.589725   990A      2.591388  
     991A      2.606220   992A      2.623565   993A      2.623622  
     994A      2.625822   995A      2.631403   996A      2.631945  
     997A      2.641214   998A      2.641279   999A      2.650778  
    1000A      2.651134  1001A      2.656843  1002A      2.682059  
    1003A      2.683234  1004A      2.683983  1005A      2.686912  
    1006A      2.702021  1007A      2.702346  1008A      2.713008  
    1009A      2.713015  1010A      2.718688  1011A      2.718709  
    1012A      2.722733  1013A      2.722964  1014A      2.738098  
    1015A      2.752164  1016A      2.752552  1017A      2.777213  
    1018A      2.794592  1019A      2.794749  1020A      2.814491  
    1021A      2.815142  1022A      2.815207  1023A      2.819479  
    1024A      2.827086  1025A      2.827699  1026A      2.852338  
    1027A      2.852500  1028A      2.856022  1029A      2.858309  
    1030A      2.859473  1031A      2.859571  1032A      2.868485  
    1033A      2.916848  1034A      2.916872  1035A      2.924054  
    1036A      2.933573  1037A      2.933634  1038A      2.949603  
    1039A      2.949625  1040A      2.962853  1041A      3.007544  
    1042A      3.007712  1043A      3.011860  1044A      3.029420  
    1045A      3.064131  1046A      3.064174  1047A      3.070517  
    1048A      3.070626  1049A      3.109462  1050A      3.110267  
    1051A      3.128237  1052A      3.129690  1053A      3.129955  
    1054A      3.137445  1055A      3.146419  1056A      3.146462  
    1057A      3.146632  1058A      3.149152  1059A      3.149161  
    1060A      3.157829  1061A      3.158192  1062A      3.165862  
    1063A      3.166305  1064A      3.191671  1065A      3.211134  
    1066A      3.218855  1067A      3.237498  1068A      3.273169  
    1069A      3.276923  1070A      3.277067  1071A      3.281914  
    1072A      3.282079  1073A      3.416251  1074A      3.416723  
    1075A      3.442937  1076A      3.481365  1077A      3.484038  
    1078A      3.549258  1079A      3.577095  1080A      3.579083  
    1081A      3.593818  1082A      3.626506  1083A      3.628490  
    1084A      3.662921  1085A      3.668241  1086A      3.769214  
    1087A      3.782714  1088A      3.783659  1089A      3.870800  
    1090A      3.870810  1091A      3.913147  1092A      3.913261  
    1093A      3.976902  1094A      4.010864  1095A      4.032935  
    1096A      4.044799  1097A      4.080961  1098A      4.193170  
    1099A      4.194612  1100A      4.194742  1101A      4.329081  
    1102A      5.747721  1103A      5.747722  1104A      5.748940  
    1105A      5.752467  1106A      5.752471  1107A      5.758692  
    1108A      5.758695  1109A      5.759095  1110A      5.778354  
    1111A      5.778401  1112A      5.779514  1113A      6.018982  
    1114A      6.019310  1115A      6.020225  1116A      6.191959  
    1117A      6.325865  1118A      6.326195  1119A      6.373596  
    1120A      6.373852  1121A      6.373997  1122A      7.155206  
    1123A      7.155317  1124A      7.222597  1125A      7.222724  
    1126A      7.245484  1127A      7.251095  1128A      7.258502  
    1129A      7.258546  1130A      7.458043  1131A      7.458199  
    1132A      7.463970  1133A      7.602052  1134A     12.594037  
    1135A     42.907879  1136A     42.910798  1137A     42.910836  
    1138A     42.938050  

    Final Occupation by Irrep:
              A 
    DOCC [   171 ]
    NA   [   171 ]
    NB   [   171 ]

  @DF-RHF Final Energy: -2055.89173443940354

   => Energetics <=

    Nuclear Repulsion Energy =           6452.5568002797772351
    One-Electron Energy =              -15636.4279868297253415
    Two-Electron Energy =                7127.9794521105441163
    Total Energy =                      -2055.8917344394039901

Computation Completed


Properties will be evaluated at   0.000000,   0.000000,   0.000000 [a0]

Properties computed using the SCF density matrix


 Multipole Moments:

 ------------------------------------------------------------------------------------
     Multipole            Electronic (a.u.)      Nuclear  (a.u.)        Total (a.u.)
 ------------------------------------------------------------------------------------

 L = 1.  Multiply by 2.5417464519 to convert [e a0] to [Debye]
 Dipole X            :          0.0000496            0.0000419            0.0000915
 Dipole Y            :          0.0000257           -0.0000426           -0.0000169
 Dipole Z            :        492.7461215         -492.7479801           -0.0018586
 Magnitude           :                                                    0.0018609

 ------------------------------------------------------------------------------------

*** tstop() called on d-16-9-3 at Sat Jan 20 23:36:39 2024
Module time:
	user time   =    2390.96 seconds =      39.85 minutes
	system time =      35.60 seconds =       0.59 minutes
	total time  =        242 seconds =       4.03 minutes
Total time:
	user time   =    6998.09 seconds =     116.63 minutes
	system time =     156.15 seconds =       2.60 minutes
	total time  =        742 seconds =      12.37 minutes
  Constructing Basis Sets for SAPT...

   => Loading Basis Set <=

    Name: (JUN-CC-PVDZ AUX)
    Role: RIFIT
    Keyword: DF_BASIS_SAPT
    atoms 1     entry B          line    56 file /home/gridsan/tfroembgen/.conda/envs/psi4test/share/psi4/basis/jun-cc-pvdz-ri.gbs 
    atoms 2-5   entry F          line   232 file /home/gridsan/tfroembgen/.conda/envs/psi4test/share/psi4/basis/jun-cc-pvdz-ri.gbs 
    atoms 6-59  entry C          line   100 file /home/gridsan/tfroembgen/.conda/envs/psi4test/share/psi4/basis/jun-cc-pvdz-ri.gbs 
    atoms 60-77 entry H          line    30 file /home/gridsan/tfroembgen/.conda/envs/psi4test/share/psi4/basis/jun-cc-pvdz-ri.gbs 

   => Loading Basis Set <=

    Name: (JUN-CC-PVDZ AUX)
    Role: JKFIT
    Keyword: DF_BASIS_ELST
    atoms 1     entry B          line    90 file /home/gridsan/tfroembgen/.conda/envs/psi4test/share/psi4/basis/jun-cc-pvdz-jkfit.gbs 
    atoms 2-5   entry F          line   314 file /home/gridsan/tfroembgen/.conda/envs/psi4test/share/psi4/basis/jun-cc-pvdz-jkfit.gbs 
    atoms 6-59  entry C          line   146 file /home/gridsan/tfroembgen/.conda/envs/psi4test/share/psi4/basis/jun-cc-pvdz-jkfit.gbs 
    atoms 60-77 entry H          line    70 file /home/gridsan/tfroembgen/.conda/envs/psi4test/share/psi4/basis/jun-cc-pvdz-jkfit.gbs 


  //>>>>>>>>>>>>>>>>>>>>>>>>>>>>>>>>>>>//
  //               SSAPT0              //
  //<<<<<<<<<<<<<<<<<<<<<<<<<<<<<<<<<<<//


*** tstart() called on d-16-9-3
*** at Sat Jan 20 23:36:40 2024

        SAPT0  
    Ed Hohenstein
     6 June 2009

      Orbital Information
  --------------------------
    NSO        =      1152
    NMO        =      1138
    NRI        =      4087
    NRI (Elst) =      5075
    NOCC A     =        21
    NOCC B     =       171
    FOCC A     =         5
    FOCC B     =        54
    NVIR A     =      1117
    NVIR B     =       967

    Elst10,r            =     0.008122545242 [Eh]
    Exch10              =    -0.000000176214 [Eh]
    Exch10 (S^2)        =    -0.000000176214 [Eh]

    Iter     Energy [mEh]          dE [mEh]         Residual      Time [s]
       1      -0.00530582       0.005305816       0.510545283           256
       2      -0.00619529       0.000889471       0.262377003           696
       3      -0.00652791       0.000332621       0.054705551           836
       4      -0.00654275       0.000014844       0.010443662           853
       5      -0.00653095      -0.000011802       0.001327033           958
       6      -0.00653205       0.000001105       0.000287422           975
       7      -0.00653203      -0.000000026       0.000086818           987
       8      -0.00653201      -0.000000023       0.000023295           999
       9      -0.00653200      -0.000000004       0.000003750          1011
      10      -0.00653200       0.000000001       0.000000833          1023

    CHF Iterations converged


    Iter     Energy [mEh]          dE [mEh]         Residual      Time [s]
       1      -3.96250244       3.962502443      33.021702044           218
       2      -2.68675976      -1.275742682       4.169556876           434
       3      -2.68706852       0.000308756       1.471112196           471
       4      -2.75010568       0.063037167       0.332430699           489
       5      -2.75307111       0.002965423       0.092094012           506
       6      -2.75188943      -0.001181677       0.042148162           523
       7      -2.75148761      -0.000401824       0.017169993           542
       8      -2.75166444       0.000176833       0.010028964           561
       9      -2.75173046       0.000066021       0.005954584           579
      10      -2.75168083      -0.000049631       0.003809925           599
      11      -2.75167384      -0.000006984       0.001604229           616
      12      -2.75168136       0.000007511       0.000720548           632
      13      -2.75168409       0.000002732       0.000285524           649
      14      -2.75168368      -0.000000403       0.000095619           667
      15      -2.75168299      -0.000000699       0.000028304           685
      16      -2.75168307       0.000000085       0.000016237           708
      17      -2.75168315       0.000000081       0.000007926           725
      18      -2.75168314      -0.000000008       0.000002747           741
      19      -2.75168313      -0.000000013       0.000001155           757
      20      -2.75168313      -0.000000001       0.000000408           772

    CHF Iterations converged

    Ind20,r (A<-B)      =    -0.000006532002 [Eh]
    Ind20,r (B<-A)      =    -0.002751683128 [Eh]
    Ind20,r             =    -0.002758215131 [Eh]
    Exch-Ind20,r (A<-B) =     0.000000050855 [Eh]
    Exch-Ind20,r (B<-A) =     0.000000104102 [Eh]
    Exch-Ind20,r        =     0.000000154958 [Eh]
    Disp20              =    -0.000505192874 [Eh]
    Disp20 (SS)         =    -0.000252596437 [Eh]
    Disp20 (OS)         =    -0.000252596437 [Eh]
    Exch-Disp20         =     0.000000176285 [Eh]
    Exch-Disp20 (SS)    =     0.000000136537 [Eh]
    Exch-Disp20 (OS)    =     0.000000039749 [Eh]

    SAPT Results 
  --------------------------------------------------------------------------------------------------------
    Electrostatics                  8.12254524 [mEh]       5.09697409 [kcal/mol]      21.32573959 [kJ/mol]
      Elst10,r                      8.12254524 [mEh]       5.09697409 [kcal/mol]      21.32573959 [kJ/mol]

    Exchange                       -0.00017621 [mEh]      -0.00011058 [kcal/mol]      -0.00046265 [kJ/mol]
      Exch10                       -0.00017621 [mEh]      -0.00011058 [kcal/mol]      -0.00046265 [kJ/mol]
      Exch10(S^2)                  -0.00017621 [mEh]      -0.00011058 [kcal/mol]      -0.00046265 [kJ/mol]

    Induction                      -2.73871198 [mEh]      -1.71856771 [kcal/mol]      -7.19048732 [kJ/mol]
      Ind20,r                      -2.75821513 [mEh]      -1.73080613 [kcal/mol]      -7.24169283 [kJ/mol]
      Exch-Ind20,r                  0.00015496 [mEh]       0.00009724 [kcal/mol]       0.00040684 [kJ/mol]
      delta HF,r (2)                0.01934819 [mEh]       0.01214117 [kcal/mol]       0.05079867 [kJ/mol]

    Dispersion                     -0.50501659 [mEh]      -0.31690269 [kcal/mol]      -1.32592087 [kJ/mol]
      Disp20                       -0.50519287 [mEh]      -0.31701331 [kcal/mol]      -1.32638371 [kJ/mol]
      Exch-Disp20                   0.00017629 [mEh]       0.00011062 [kcal/mol]       0.00046284 [kJ/mol]
      Disp20 (SS)                  -0.25259644 [mEh]      -0.15850666 [kcal/mol]      -0.66319185 [kJ/mol]
      Disp20 (OS)                  -0.25259644 [mEh]      -0.15850666 [kcal/mol]      -0.66319185 [kJ/mol]
      Exch-Disp20 (SS)              0.00013654 [mEh]       0.00008568 [kcal/mol]       0.00035848 [kJ/mol]
      Exch-Disp20 (OS)              0.00003975 [mEh]       0.00002494 [kcal/mol]       0.00010436 [kJ/mol]

  Total HF                          5.38365705 [mEh]       3.37829580 [kcal/mol]      14.13478962 [kJ/mol]
  Total SAPT0                       4.87864046 [mEh]       3.06139311 [kcal/mol]      12.80886875 [kJ/mol]

  Special recipe for scaled SAPT0 (see Manual):
    Electrostatics sSAPT0           8.12254524 [mEh]       5.09697409 [kcal/mol]      21.32573959 [kJ/mol]
    Exchange sSAPT0                -0.00017621 [mEh]      -0.00011058 [kcal/mol]      -0.00046265 [kJ/mol]
    Induction sSAPT0               -2.73871198 [mEh]      -1.71856771 [kcal/mol]      -7.19048732 [kJ/mol]
    Dispersion sSAPT0              -0.50501659 [mEh]      -0.31690269 [kcal/mol]      -1.32592087 [kJ/mol]
  Total sSAPT0                      4.87864046 [mEh]       3.06139311 [kcal/mol]      12.80886875 [kJ/mol]
  --------------------------------------------------------------------------------------------------------

*** tstop() called on d-16-9-3 at Sun Jan 21 00:40:23 2024
Module time:
	user time   =    6974.85 seconds =     116.25 minutes
	system time =     655.15 seconds =      10.92 minutes
	total time  =       3823 seconds =      63.72 minutes
Total time:
	user time   =   13974.51 seconds =     232.91 minutes
	system time =     811.31 seconds =      13.52 minutes
	total time  =       4566 seconds =      76.10 minutes

    Psi4 stopped on: Sunday, 21 January 2024 12:40AM
    Psi4 wall time for execution: 1:16:08.51

*** Psi4 exiting successfully. Buy a developer a beer!
