
    -----------------------------------------------------------------------
          Psi4: An Open-Source Ab Initio Electronic Structure Package
                               Psi4 1.9 release

                         Git: Rev {} zzzzzzz 


    D. G. A. Smith, L. A. Burns, A. C. Simmonett, R. M. Parrish,
    M. C. Schieber, R. Galvelis, P. Kraus, H. Kruse, R. Di Remigio,
    A. Alenaizan, A. M. James, S. Lehtola, J. P. Misiewicz, M. Scheurer,
    R. A. Shaw, J. B. Schriber, Y. Xie, Z. L. Glick, D. A. Sirianni,
    J. S. O'Brien, J. M. Waldrop, A. Kumar, E. G. Hohenstein,
    B. P. Pritchard, B. R. Brooks, H. F. Schaefer III, A. Yu. Sokolov,
    K. Patkowski, A. E. DePrince III, U. Bozkaya, R. A. King,
    F. A. Evangelista, J. M. Turney, T. D. Crawford, C. D. Sherrill,
    J. Chem. Phys. 152(18) 184108 (2020). https://doi.org/10.1063/5.0006002

                            Additional Code Authors
    E. T. Seidl, C. L. Janssen, E. F. Valeev, M. L. Leininger,
    J. F. Gonthier, R. M. Richard, H. R. McAlexander, M. Saitow, X. Wang,
    P. Verma, M. H. Lechner, A. Jiang, S. Behnle, A. G. Heide,
    M. F. Herbst, and D. L. Poole

             Previous Authors, Complete List of Code Contributors,
                       and Citations for Specific Modules
    https://github.com/psi4/psi4/blob/master/codemeta.json
    https://github.com/psi4/psi4/graphs/contributors
    http://psicode.org/psi4manual/master/introduction.html#citing-psifour

    -----------------------------------------------------------------------


    Psi4 started on: Saturday, 10 February 2024 12:54PM

    Process ID: 3163614
    Host:       n2cn0837
    PSIDATADIR: /opt/software/pc2/EB-SW/software/PSI4/1.9-foss-2022a/share/psi4
    Memory:     500.0 MiB
    Threads:    16
    
  ==> Input File <==

--------------------------------------------------------------------------
memory 48 GB # how much memory is available ! Depends on the nodes/cores !

molecule dimer {
# monomer A
+1 1    # Charge and multiplicity
C  0.680067 1.417258 -5.315929
C -0.680504 1.419286 -5.315545
N -1.085635 1.420284 -3.997221
C  0.000108 1.423560 -3.215820
C -2.477365 1.469690 -3.529242
N  1.085222 1.420284 -3.997221
H  1.385146 1.409430 -6.133368
H -1.385302 1.419096 -6.133214
H -0.000009 1.425307 -2.134731
C  2.478117 1.403392 -3.532123
H  2.490592 1.430737 -2.441870
H  2.967028 0.489946 -3.879299
H  3.001428 2.278875 -3.923595
H -2.857359 2.491761 -3.609201
H -3.082679 0.799606 -4.142306
H -2.518128 1.142706 -2.489294
--
# monomer B
0 1     # Charge and multiplicity
C   1.22531237526482      0.70753866091955      0.00613762728373
C   1.22532433589282     -0.70753852257020     -0.00619318228664
C   -0.00000567409046      1.41496628609039     -0.00672680580738
C   2.45644923379077      1.41832825917820      0.00902448468363
C   0.00001130712078     -1.41497612663474      0.00347275151708
C   -1.22530046906674      0.70754574598412      0.00838914760619
C   2.45643823516184     -1.41832293188077     -0.00843833914343
C   -0.00000085313587      2.83680140328112     -0.00913035594137
C   3.68182717731192      0.70931832800114     -0.00808954934571
C   2.45512052870677      2.83422403348893     -0.00819210630633
C   3.68182158506039     -0.70933346742900      0.00798293467272
C   -1.22531311884624     -0.70752714354401     -0.00512042085974
C   1.22670006104402      3.54346985599427      0.00816696660346
C   0.00000526469929     -2.83678176723568      0.00832091913869
C   -2.45643555300670      1.41831729028492      0.00842454345199
C   2.45512389762097     -2.83422965658853      0.00783102630520
C   -1.22671388474763      3.54346943575023      0.00827029982280
C   4.91451777504333      1.42717324448953     -0.00160886631602
C   3.69315067131765      3.54279566454522     -0.00155906667985
C   -2.45643712022637     -1.41831290883911     -0.00846337726810
C   1.22670532178455     -3.54347386990643     -0.00780316414624
C   -2.45512491866593      2.83421703463423     -0.00818572995999
C   4.91452486062398     -1.42718653794377      0.00136387641845
C   1.22142509354026      4.97013443726031      0.00150231067809
C   4.89300870916237      2.82518837202648     -0.00039219795739
C   -1.22669652864725     -3.54347062507680     -0.00753595973677
C   -3.68181849668397      0.70932533873199     -0.00807686886569
C   3.69314758099218     -3.54280096939050      0.00148176697923
C   -1.22143177215231      4.97012866986289      0.00168580605083
C   6.13477145276790      0.68054831910577     -0.00083909176631
C   3.65678936045204      4.97295361556775     -0.00065042889723
C   -2.45512642789169     -2.83421472106065      0.00758666850712
C   -3.68181869921921     -0.70932533146830      0.00810055625144
C   4.89301309775526     -2.82519973363176      0.00021895393805
C   -0.00000059327114      5.65044773803267      0.00045449734393
C   6.13477559217374     -0.68055448207492      0.00042622874941
C   2.47813196269732      5.65357712333155      0.00063835075260
C   1.22142288457925     -4.97012668293268     -0.00129718634452
C   -3.69316190412301      3.54279732619245     -0.00139355922051
C   -1.22142804110313     -4.97011793159564     -0.00140994817719
C   -4.91452132810043      1.42717581899491     -0.00153192130862
C   3.65678749952045     -4.97295485423912      0.00080007163680
C   -2.47813805026426      5.65357479452875      0.00092287576113
C   -3.69314125872231     -3.54278984697859      0.00136564082345
C   -4.91451200321153     -1.42718062802730      0.00139857359209
C   -0.00000552908399     -5.65043791501335      0.00005899322272
C   -4.89302000425900      2.82518897091939     -0.00040227981744
C   2.47812647313991     -5.65357317188818     -0.00029052915548
C   -3.65679823041642      4.97295655404175     -0.00047374852278
C   -4.89299899901461     -2.82519139505969      0.00006491824035
C   -2.47812801824129     -5.65356579800621     -0.00056571680280
C   -6.13477002348955      0.68054913825639     -0.00086464346868
C   -3.65678835334731     -4.97294365097028      0.00058578382008
C   -6.13476456307132     -0.68055354348201      0.00040575295444
H   5.83528897565761      3.36927626695423      0.00396712770529
H   7.07385965258860      1.22821762089947     -0.00037744837300
H   4.60066374401555      5.51238117445323     -0.00014522814529
H   5.83528386714679     -3.36930568472863     -0.00423551337640
H   -0.00001167146422      6.73853104613662     -0.00389474766392
H   7.07386165167227     -1.22822657074368     -0.00008250934481
H   2.47331421164041      6.74068466339473      0.00017162982210
H   4.60066897122302     -5.51237575717576      0.00039007446835
H   -2.47331820069565      6.74068209160650      0.00047297644710
H   -0.00000978838621     -6.73852780445195      0.00458867820736
H   -5.83530143450167      3.36927132229595      0.00410314985360
H   2.47330840367253     -6.74068500242887      0.00027980126949
H   -4.60067436136587      5.51237839860371      0.00002010017831
H   -5.83527902699321     -3.36928859177951     -0.00451481925734
H   -2.47329986759855     -6.74067870613986     -0.00016951527498
H   -7.07385728692578      1.22822084484047     -0.00046143985387
H   -4.60067330624313     -5.51236229778631      0.00021776644566
H   -7.07385645456741     -1.22822025997701     -0.00017736581114

    units angstrom      # Angstroms are the default
    no_reorient         # Geometry fixed, default
    symmetry c1         # C1 symmetry, default
}

set {
    scf_type DF         # Density fitting, faster than exact integrals
    freeze_core True    # Freeze core electrons
    basis jun-cc-pVDZ   # Jun-cc-pVDZ basis set, recommended for sSAPT0 in https://doi.org/10.1063/1.4867135
}

energy('ssapt0')        # Compute sSAPT0 energy, includes also SAPT0
--------------------------------------------------------------------------

  Memory set to  44.703 GiB by Python driver.

Scratch directory: /tmp/
   => Loading Basis Set <=

    Name: JUN-CC-PVDZ
    Role: ORBITAL
    Keyword: BASIS
    atoms 1-2, 4-5, 10, 17-70 entry C          line   164 file /opt/software/pc2/EB-SW/software/PSI4/1.9-foss-2022a/share/psi4/basis/jun-cc-pvdz.gbs 
    atoms 3, 6                entry N          line   198 file /opt/software/pc2/EB-SW/software/PSI4/1.9-foss-2022a/share/psi4/basis/jun-cc-pvdz.gbs 
    atoms 7-9, 11-16, 71-88   entry H          line    36 file /opt/software/pc2/EB-SW/software/PSI4/1.9-foss-2022a/share/psi4/basis/jun-cc-pvdz.gbs 

   => Loading Basis Set <=

    Name: JUN-CC-PVDZ
    Role: ORBITAL
    Keyword: BASIS
    atoms 1-2, 4-5, 10, 17-70 entry C          line   164 file /opt/software/pc2/EB-SW/software/PSI4/1.9-foss-2022a/share/psi4/basis/jun-cc-pvdz.gbs 
    atoms 3, 6                entry N          line   198 file /opt/software/pc2/EB-SW/software/PSI4/1.9-foss-2022a/share/psi4/basis/jun-cc-pvdz.gbs 
    atoms 7-9, 11-16, 71-88   entry H          line    36 file /opt/software/pc2/EB-SW/software/PSI4/1.9-foss-2022a/share/psi4/basis/jun-cc-pvdz.gbs 


  //>>>>>>>>>>>>>>>>>>>>>>>>>>>>>>>>>>>//
  //              Dimer HF             //
  //<<<<<<<<<<<<<<<<<<<<<<<<<<<<<<<<<<<//

   => Libint2 <=

    Primary   basis highest AM E, G, H:  5, 4, 3
    Auxiliary basis highest AM E, G, H:  6, 5, 4
    Onebody   basis highest AM E, G, H:  6, 5, 4
    Solid Harmonics ordering:            gaussian

*** tstart() called on n2cn0837
*** at Sat Feb 10 12:54:54 2024

   => Loading Basis Set <=

    Name: JUN-CC-PVDZ
    Role: ORBITAL
    Keyword: BASIS
    atoms 1-2, 4-5, 10, 17-70 entry C          line   164 file /opt/software/pc2/EB-SW/software/PSI4/1.9-foss-2022a/share/psi4/basis/jun-cc-pvdz.gbs 
    atoms 3, 6                entry N          line   198 file /opt/software/pc2/EB-SW/software/PSI4/1.9-foss-2022a/share/psi4/basis/jun-cc-pvdz.gbs 
    atoms 7-9, 11-16, 71-88   entry H          line    36 file /opt/software/pc2/EB-SW/software/PSI4/1.9-foss-2022a/share/psi4/basis/jun-cc-pvdz.gbs 


         ---------------------------------------------------------
                                   SCF
               by Justin Turney, Rob Parrish, Andy Simmonett
                          and Daniel G. A. Smith
                              RHF Reference
                       16 Threads,  45776 MiB Core
         ---------------------------------------------------------

  ==> Geometry <==

    Molecular point group: c1
    Full point group: C1

    Geometry (in Angstrom), charge = 1, multiplicity = 1:

       Center              X                  Y                   Z               Mass       
    ------------   -----------------  -----------------  -----------------  -----------------
         C            0.680066520158     1.235968212970    -4.794436426406    12.000000000000
         C           -0.680504479842     1.237996212970    -4.794052426406    12.000000000000
         N           -1.085635479842     1.238994212970    -3.475728426406    14.003074004430
         C            0.000107520158     1.242270212970    -2.694327426406    12.000000000000
         C           -2.477365479842     1.288400212970    -3.007749426406    12.000000000000
         N            1.085221520158     1.238994212970    -3.475728426406    14.003074004430
         H            1.385145520158     1.228140212970    -5.611875426406     1.007825032230
         H           -1.385302479842     1.237806212970    -5.611721426406     1.007825032230
         H           -0.000009479842     1.244017212970    -1.613238426406     1.007825032230
         C            2.478116520158     1.222102212970    -3.010630426406    12.000000000000
         H            2.490591520158     1.249447212970    -1.920377426406     1.007825032230
         H            2.967027520158     0.308656212970    -3.357806426406     1.007825032230
         H            3.001427520158     2.097585212970    -3.402102426406     1.007825032230
         H           -2.857359479842     2.310471212970    -3.087708426406     1.007825032230
         H           -3.082679479842     0.618316212970    -3.620813426406     1.007825032230
         H           -2.518128479842     0.961416212970    -1.967801426406     1.007825032230
         C            1.225311895423     0.526248873889     0.527630200877    12.000000000000
         C            1.225323856051    -0.888828309601     0.515299391307    12.000000000000
         C           -0.000006153932     1.233676499060     0.514765767786    12.000000000000
         C            2.456448753949     1.237038472148     0.530517058277    12.000000000000
         C            0.000010827279    -1.596265913665     0.524965325111    12.000000000000
         C           -1.225300948908     0.526255958954     0.529881721200    12.000000000000
         C            2.456437755320    -1.599612718911     0.513054234450    12.000000000000
         C           -0.000001332978     2.655511616251     0.512362217652    12.000000000000
         C            3.681826697470     0.528028540971     0.513403024248    12.000000000000
         C            2.455120048865     2.652934246459     0.513300467287    12.000000000000
         C            3.681821105219    -0.890623254459     0.529475508266    12.000000000000
         C           -1.225313598688    -0.888816930574     0.516372152734    12.000000000000
         C            1.226699581202     3.362180068964     0.529659540197    12.000000000000
         C            0.000004784858    -3.018071554266     0.529813492732    12.000000000000
         C           -2.456436032848     1.237027503255     0.529917117046    12.000000000000
         C            2.455123417779    -3.015519443619     0.529323599899    12.000000000000
         C           -1.226714364589     3.362179648720     0.529762873416    12.000000000000
         C            4.914517295202     1.245883457459     0.519883707278    12.000000000000
         C            3.693150191476     3.361505877515     0.519933506914    12.000000000000
         C           -2.456437600068    -1.599602695869     0.513029196325    12.000000000000
         C            1.226704841943    -3.724763656937     0.513689409447    12.000000000000
         C           -2.455125398508     2.652927247604     0.513306843634    12.000000000000
         C            4.914524380782    -1.608476324974     0.522856450012    12.000000000000
         C            1.221424613699     4.788844650230     0.522994884272    12.000000000000
         C            4.893008229321     2.643898584996     0.521100375636    12.000000000000
         C           -1.226697008489    -3.724760412107     0.513956613857    12.000000000000
         C           -3.681818976526     0.528035551702     0.513415704728    12.000000000000
         C            3.693147101150    -3.724090756421     0.522974340573    12.000000000000
         C           -1.221432251994     4.788838882833     0.523178379644    12.000000000000
         C            6.134770972926     0.499258532075     0.520653481827    12.000000000000
         C            3.656788880610     4.791663828537     0.520842144696    12.000000000000
         C           -2.455126907733    -3.015504508091     0.529079242101    12.000000000000
         C           -3.681819179061    -0.890615118499     0.529593129845    12.000000000000
         C            4.893012617914    -3.006489520662     0.521711527532    12.000000000000
         C           -0.000001073113     5.469157951002     0.521947070937    12.000000000000
         C            6.134775112332    -0.861844269105     0.521918802343    12.000000000000
         C            2.478131482856     5.472287336301     0.522130924346    12.000000000000
         C            1.221422404738    -5.151416469963     0.520195387249    12.000000000000
         C           -3.693162383965     3.361507539162     0.520099014373    12.000000000000
         C           -1.221428520945    -5.151407718626     0.520082625416    12.000000000000
         C           -4.914521807942     1.245886031965     0.519960652285    12.000000000000
         C            3.656787019679    -5.154244641269     0.522292645230    12.000000000000
         C           -2.478138530106     5.472285007498     0.522415449355    12.000000000000
         C           -3.693141738564    -3.724079634009     0.522858214417    12.000000000000
         C           -4.914512483053    -1.608470415058     0.522891147186    12.000000000000
         C           -0.000006008926    -5.831727702044     0.521551566816    12.000000000000
         C           -4.893020484101     2.643899183889     0.521090293776    12.000000000000
         C            2.478125993298    -5.834862958919     0.521202044438    12.000000000000
         C           -3.656798710258     4.791666767011     0.521018825071    12.000000000000
         C           -4.892999478856    -3.006481182090     0.521557491834    12.000000000000
         C           -2.478128498083    -5.834855585037     0.520926856791    12.000000000000
         C           -6.134770503331     0.499259351226     0.520627930125    12.000000000000
         C           -3.656788833189    -5.154233438001     0.522078357414    12.000000000000
         C           -6.134765042913    -0.861843330512     0.521898326548    12.000000000000
         H            5.835288495816     3.187986479924     0.525459701299     1.007825032230
         H            7.073859172747     1.046927833869     0.521115125221     1.007825032230
         H            4.600663264174     5.331091387423     0.521347345448     1.007825032230
         H            5.835283387305    -3.550595471759     0.517257060217     1.007825032230
         H           -0.000012151306     6.557241259106     0.517597825930     1.007825032230
         H            7.073861171831    -1.409516357774     0.521410064249     1.007825032230
         H            2.473313731799     6.559394876364     0.521664203416     1.007825032230
         H            4.600668491381    -5.693665544206     0.521882648062     1.007825032230
         H           -2.473318680537     6.559392304576     0.521965550041     1.007825032230
         H           -0.000010268228    -6.919817591482     0.526081251801     1.007825032230
         H           -5.835301914343     3.187981535266     0.525595723447     1.007825032230
         H            2.473307923831    -6.921974789459     0.521772374863     1.007825032230
         H           -4.600674841208     5.331088611573     0.521512673772     1.007825032230
         H           -5.835279506835    -3.550578378810     0.516977754336     1.007825032230
         H           -2.473300347440    -6.921968493170     0.521323058319     1.007825032230
         H           -7.073857766768     1.046931057810     0.521031133740     1.007825032230
         H           -4.600673786085    -5.693652084817     0.521710340039     1.007825032230
         H           -7.073856934409    -1.409510047007     0.521315207782     1.007825032230

  Running in c1 symmetry.

  Rotational constants: A =      0.00182  B =      0.00181  C =      0.00108 [cm^-1]
  Rotational constants: A =     54.50377  B =     54.33451  C =     32.27043 [MHz]
  Nuclear repulsion = 8316.592269136237519

  Charge       = 1
  Multiplicity = 1
  Electrons    = 394
  Nalpha       = 197
  Nbeta        = 197

  ==> Algorithm <==

  SCF Algorithm Type is DF.
  DIIS enabled.
  MOM disabled.
  Fractional occupation disabled.
  Guess Type is SAD.
  Energy threshold   = 1.00e-08
  Density threshold  = 1.00e-08
  Integral threshold = 1.00e-12

  ==> Primary Basis <==

  Basis Set: JUN-CC-PVDZ
    Blend: JUN-CC-PVDZ
    Number of shells: 569
    Number of basis functions: 1233
    Number of Cartesian functions: 1294
    Spherical Harmonics?: true
    Max angular momentum: 2

   => Loading Basis Set <=

    Name: (JUN-CC-PVDZ AUX)
    Role: JKFIT
    Keyword: DF_BASIS_SCF
    atoms 1-2, 4-5, 10, 17-70 entry C          line   146 file /opt/software/pc2/EB-SW/software/PSI4/1.9-foss-2022a/share/psi4/basis/jun-cc-pvdz-jkfit.gbs 
    atoms 3, 6                entry N          line   202 file /opt/software/pc2/EB-SW/software/PSI4/1.9-foss-2022a/share/psi4/basis/jun-cc-pvdz-jkfit.gbs 
    atoms 7-9, 11-16, 71-88   entry H          line    70 file /opt/software/pc2/EB-SW/software/PSI4/1.9-foss-2022a/share/psi4/basis/jun-cc-pvdz-jkfit.gbs 

  ==> Integral Setup <==

  ==> DiskDFJK: Density-Fitted J/K Matrices <==

    J tasked:                  Yes
    K tasked:                  Yes
    wK tasked:                  No
    OpenMP threads:             16
    Integrals threads:          16
    Memory [MiB]:            34332
    Algorithm:                Core
    Integral Cache:           SAVE
    Schwarz Cutoff:          1E-12
    Fitting Condition:       1E-10

   => Auxiliary Basis Set <=

  Basis Set: (JUN-CC-PVDZ AUX)
    Blend: JUN-CC-PVDZ-JKFIT
    Number of shells: 1890
    Number of basis functions: 5440
    Number of Cartesian functions: 6226
    Spherical Harmonics?: true
    Max angular momentum: 3

  Minimum eigenvalue in the overlap matrix is 6.4931409797E-10.
  Reciprocal condition number of the overlap matrix is 2.6523085210E-11.
    Using canonical orthogonalization.
  Overall, 14 of 1233 possible MOs eliminated.


  ==> Pre-Iterations <==

  SCF Guess: Superposition of Atomic Densities via on-the-fly atomic UHF (no occupation information).

   -------------------------
    Irrep   Nso     Nmo    
   -------------------------
     A       1233    1219 
   -------------------------
    Total    1233    1219
   -------------------------

  ==> Iterations <==

                           Total Energy        Delta E     RMS |[F,P]|

   @DF-RHF iter SAD: -2365.87495209258623   -2.36587e+03   0.00000e+00 
   @DF-RHF iter   1: -2358.21209170342172    7.66286e+00   9.41733e-04 ADIIS/DIIS
   @DF-RHF iter   2: -2359.10185459819877   -8.89763e-01   3.17203e-04 ADIIS/DIIS
   @DF-RHF iter   3: -2359.18947419545248   -8.76196e-02   1.20614e-04 ADIIS/DIIS
   @DF-RHF iter   4: -2359.20264202258068   -1.31678e-02   4.60483e-05 DIIS
   @DF-RHF iter   5: -2359.20463145954363   -1.98944e-03   1.08064e-05 DIIS
   @DF-RHF iter   6: -2359.20482283134106   -1.91372e-04   5.69186e-06 DIIS
   @DF-RHF iter   7: -2359.20490001797771   -7.71866e-05   2.39685e-06 DIIS
   @DF-RHF iter   8: -2359.20492283066642   -2.28127e-05   1.16117e-06 DIIS
   @DF-RHF iter   9: -2359.20492839729923   -5.56663e-06   3.18832e-07 DIIS
   @DF-RHF iter  10: -2359.20492867048415   -2.73185e-07   1.40527e-07 DIIS
   @DF-RHF iter  11: -2359.20492870272346   -3.22393e-08   5.61708e-08 DIIS
   @DF-RHF iter  12: -2359.20492871012266   -7.39919e-09   2.63680e-08 DIIS
   @DF-RHF iter  13: -2359.20492871258011   -2.45745e-09   1.22411e-08 DIIS
   @DF-RHF iter  14: -2359.20492871346778   -8.87667e-10   8.13949e-09 DIIS
  Energy and wave function converged.


  ==> Post-Iterations <==

    Orbital Energies [Eh]
    ---------------------

    Doubly Occupied:                                                      

       1A    -15.791857     2A    -15.791507     3A    -11.480912  
       4A    -11.422797     5A    -11.421238     6A    -11.407102  
       7A    -11.406534     8A    -11.351026     9A    -11.350338  
      10A    -11.349655    11A    -11.348577    12A    -11.347892  
      13A    -11.347586    14A    -11.346656    15A    -11.346560  
      16A    -11.345862    17A    -11.345123    18A    -11.344944  
      19A    -11.343834    20A    -11.343625    21A    -11.341969  
      22A    -11.341862    23A    -11.341469    24A    -11.341385  
      25A    -11.341295    26A    -11.341151    27A    -11.340933  
      28A    -11.340883    29A    -11.340308    30A    -11.340193  
      31A    -11.338935    32A    -11.338852    33A    -11.337994  
      34A    -11.336429    35A    -11.336393    36A    -11.336089  
      37A    -11.336058    38A    -11.334873    39A    -11.334727  
      40A    -11.334409    41A    -11.334366    42A    -11.334059  
      43A    -11.333403    44A    -11.333199    45A    -11.332781  
      46A    -11.332694    47A    -11.331293    48A    -11.331245  
      49A    -11.329854    50A    -11.329807    51A    -11.328382  
      52A    -11.328313    53A    -11.328241    54A    -11.328210  
      55A    -11.326538    56A    -11.326474    57A    -11.326006  
      58A    -11.323423    59A    -11.323388    60A    -11.321903  
      61A    -11.321872    62A     -1.536469    63A     -1.392043  
      64A     -1.331370    65A     -1.303592    66A     -1.302590  
      67A     -1.270897    68A     -1.270847    69A     -1.265309  
      70A     -1.237013    71A     -1.229863    72A     -1.218968  
      73A     -1.218853    74A     -1.198621    75A     -1.192447  
      76A     -1.192419    77A     -1.164688    78A     -1.164595  
      79A     -1.161175    80A     -1.147625    81A     -1.144750  
      82A     -1.144669    83A     -1.119440    84A     -1.107686  
      85A     -1.105623    86A     -1.105532    87A     -1.096543  
      88A     -1.091126    89A     -1.078309    90A     -1.068446  
      91A     -1.068156    92A     -1.041201    93A     -1.041174  
      94A     -0.982260    95A     -0.975250    96A     -0.975240  
      97A     -0.971652    98A     -0.968718    99A     -0.968582  
     100A     -0.962656   101A     -0.962356   102A     -0.956190  
     103A     -0.941122   104A     -0.914519   105A     -0.898949  
     106A     -0.898561   107A     -0.893427   108A     -0.892888  
     109A     -0.876888   110A     -0.873092   111A     -0.873013  
     112A     -0.828896   113A     -0.826611   114A     -0.815438  
     115A     -0.815177   116A     -0.810845   117A     -0.810556  
     118A     -0.809517   119A     -0.796912   120A     -0.778738  
     121A     -0.778499   122A     -0.778073   123A     -0.774769  
     124A     -0.773950   125A     -0.773342   126A     -0.750419  
     127A     -0.746183   128A     -0.744513   129A     -0.739767  
     130A     -0.734259   131A     -0.732941   132A     -0.728447  
     133A     -0.728355   134A     -0.718301   135A     -0.718287  
     136A     -0.710310   137A     -0.708177   138A     -0.708165  
     139A     -0.706418   140A     -0.691271   141A     -0.682532  
     142A     -0.680943   143A     -0.679183   144A     -0.678924  
     145A     -0.677873   146A     -0.676533   147A     -0.674689  
     148A     -0.672485   149A     -0.672466   150A     -0.662075  
     151A     -0.657571   152A     -0.655526   153A     -0.647476  
     154A     -0.647043   155A     -0.644779   156A     -0.644666  
     157A     -0.639702   158A     -0.632822   159A     -0.632720  
     160A     -0.619125   161A     -0.618767   162A     -0.617154  
     163A     -0.616536   164A     -0.611990   165A     -0.608574  
     166A     -0.602113   167A     -0.601920   168A     -0.578441  
     169A     -0.574739   170A     -0.571739   171A     -0.568117  
     172A     -0.565476   173A     -0.561488   174A     -0.561111  
     175A     -0.556899   176A     -0.553721   177A     -0.553134  
     178A     -0.532985   179A     -0.532643   180A     -0.517661  
     181A     -0.517496   182A     -0.489374   183A     -0.487290  
     184A     -0.487075   185A     -0.482561   186A     -0.453229  
     187A     -0.453205   188A     -0.429429   189A     -0.423668  
     190A     -0.423216   191A     -0.422628   192A     -0.389957  
     193A     -0.374768   194A     -0.367535   195A     -0.367130  
     196A     -0.305162   197A     -0.305077  

    Virtual:                                                              

     198A     -0.066878   199A     -0.066517   200A     -0.036574  
     201A     -0.030274   202A     -0.029593   203A     -0.019199  
     204A     -0.018281   205A     -0.017640   206A     -0.011796  
     207A     -0.011374   208A     -0.009320   209A     -0.007710  
     210A     -0.004214   211A     -0.001217   212A      0.000651  
     213A      0.003515   214A      0.003836   215A      0.004382  
     216A      0.005232   217A      0.007972   218A      0.011608  
     219A      0.011815   220A      0.013188   221A      0.014261  
     222A      0.017243   223A      0.017491   224A      0.019917  
     225A      0.021257   226A      0.025107   227A      0.031786  
     228A      0.032285   229A      0.033173   230A      0.033402  
     231A      0.034025   232A      0.035860   233A      0.038248  
     234A      0.043217   235A      0.043640   236A      0.045926  
     237A      0.046899   238A      0.048764   239A      0.048925  
     240A      0.053047   241A      0.053213   242A      0.058970  
     243A      0.059358   244A      0.065376   245A      0.065739  
     246A      0.066619   247A      0.069155   248A      0.071054  
     249A      0.073440   250A      0.075240   251A      0.075559  
     252A      0.076807   253A      0.082199   254A      0.083955  
     255A      0.085708   256A      0.087250   257A      0.088202  
     258A      0.089207   259A      0.091802   260A      0.097477  
     261A      0.098258   262A      0.100430   263A      0.100756  
     264A      0.102504   265A      0.104537   266A      0.105557  
     267A      0.107998   268A      0.108066   269A      0.109228  
     270A      0.112594   271A      0.113139   272A      0.115680  
     273A      0.118248   274A      0.118407   275A      0.120033  
     276A      0.122281   277A      0.122647   278A      0.126350  
     279A      0.127695   280A      0.132504   281A      0.135737  
     282A      0.137404   283A      0.138180   284A      0.140767  
     285A      0.141793   286A      0.145248   287A      0.145825  
     288A      0.146208   289A      0.148685   290A      0.149005  
     291A      0.149169   292A      0.150168   293A      0.150315  
     294A      0.150811   295A      0.152261   296A      0.153531  
     297A      0.155129   298A      0.160075   299A      0.160507  
     300A      0.160820   301A      0.161236   302A      0.162229  
     303A      0.166231   304A      0.168093   305A      0.168441  
     306A      0.169280   307A      0.169880   308A      0.170975  
     309A      0.172813   310A      0.177551   311A      0.179732  
     312A      0.180139   313A      0.184284   314A      0.184991  
     315A      0.187195   316A      0.187380   317A      0.187665  
     318A      0.188242   319A      0.190089   320A      0.190550  
     321A      0.190911   322A      0.193532   323A      0.195663  
     324A      0.195774   325A      0.196402   326A      0.200049  
     327A      0.201471   328A      0.202693   329A      0.203773  
     330A      0.205506   331A      0.205662   332A      0.207451  
     333A      0.209253   334A      0.212184   335A      0.214975  
     336A      0.216493   337A      0.218809   338A      0.220544  
     339A      0.221909   340A      0.225449   341A      0.230760  
     342A      0.231918   343A      0.233102   344A      0.235679  
     345A      0.236145   346A      0.237036   347A      0.238522  
     348A      0.238649   349A      0.241679   350A      0.241914  
     351A      0.242191   352A      0.242946   353A      0.243237  
     354A      0.244771   355A      0.245521   356A      0.246053  
     357A      0.247666   358A      0.248395   359A      0.250253  
     360A      0.250711   361A      0.252140   362A      0.252205  
     363A      0.254472   364A      0.257014   365A      0.259687  
     366A      0.260863   367A      0.261695   368A      0.263029  
     369A      0.265080   370A      0.266232   371A      0.267738  
     372A      0.268218   373A      0.269160   374A      0.274098  
     375A      0.278018   376A      0.279822   377A      0.280369  
     378A      0.281623   379A      0.282948   380A      0.283739  
     381A      0.285392   382A      0.286847   383A      0.287696  
     384A      0.290202   385A      0.291685   386A      0.292192  
     387A      0.296431   388A      0.296728   389A      0.298601  
     390A      0.299187   391A      0.300770   392A      0.301104  
     393A      0.304094   394A      0.305668   395A      0.307435  
     396A      0.309286   397A      0.309909   398A      0.310785  
     399A      0.312408   400A      0.313861   401A      0.314781  
     402A      0.317256   403A      0.318134   404A      0.319099  
     405A      0.320734   406A      0.321981   407A      0.324507  
     408A      0.325568   409A      0.325753   410A      0.326486  
     411A      0.328109   412A      0.330383   413A      0.332867  
     414A      0.333868   415A      0.335433   416A      0.336740  
     417A      0.337586   418A      0.338106   419A      0.338827  
     420A      0.339614   421A      0.340599   422A      0.342245  
     423A      0.342558   424A      0.345268   425A      0.345463  
     426A      0.346541   427A      0.348479   428A      0.349279  
     429A      0.350316   430A      0.352548   431A      0.353649  
     432A      0.359814   433A      0.361593   434A      0.363606  
     435A      0.364929   436A      0.366937   437A      0.368010  
     438A      0.368624   439A      0.370248   440A      0.373147  
     441A      0.373519   442A      0.374611   443A      0.376629  
     444A      0.379096   445A      0.380474   446A      0.383327  
     447A      0.384340   448A      0.385632   449A      0.386707  
     450A      0.388948   451A      0.389524   452A      0.390464  
     453A      0.394720   454A      0.398663   455A      0.399241  
     456A      0.400069   457A      0.401939   458A      0.403918  
     459A      0.405302   460A      0.409338   461A      0.410163  
     462A      0.412887   463A      0.413472   464A      0.416199  
     465A      0.418788   466A      0.419871   467A      0.421132  
     468A      0.422268   469A      0.422993   470A      0.425418  
     471A      0.427489   472A      0.431167   473A      0.432840  
     474A      0.435385   475A      0.437301   476A      0.442076  
     477A      0.443153   478A      0.443717   479A      0.445660  
     480A      0.447760   481A      0.449881   482A      0.451971  
     483A      0.455645   484A      0.456356   485A      0.461179  
     486A      0.464305   487A      0.465361   488A      0.468771  
     489A      0.471291   490A      0.472701   491A      0.473719  
     492A      0.475813   493A      0.476553   494A      0.477767  
     495A      0.480336   496A      0.482070   497A      0.482636  
     498A      0.485029   499A      0.486657   500A      0.487609  
     501A      0.490831   502A      0.496950   503A      0.497557  
     504A      0.503707   505A      0.508538   506A      0.512815  
     507A      0.516248   508A      0.518461   509A      0.519900  
     510A      0.521822   511A      0.524965   512A      0.526388  
     513A      0.535143   514A      0.540939   515A      0.543942  
     516A      0.545559   517A      0.547389   518A      0.549834  
     519A      0.551539   520A      0.556223   521A      0.560377  
     522A      0.565507   523A      0.573376   524A      0.577300  
     525A      0.580064   526A      0.584148   527A      0.591900  
     528A      0.592297   529A      0.593636   530A      0.598991  
     531A      0.599299   532A      0.609219   533A      0.637521  
     534A      0.637732   535A      0.657830   536A      0.663629  
     537A      0.665612   538A      0.665746   539A      0.667021  
     540A      0.667569   541A      0.678809   542A      0.679460  
     543A      0.687897   544A      0.690646   545A      0.711822  
     546A      0.713185   547A      0.719197   548A      0.720153  
     549A      0.728133   550A      0.733199   551A      0.734518  
     552A      0.738372   553A      0.741578   554A      0.748283  
     555A      0.749668   556A      0.750531   557A      0.751539  
     558A      0.752354   559A      0.757028   560A      0.762184  
     561A      0.765623   562A      0.771363   563A      0.773339  
     564A      0.778767   565A      0.782880   566A      0.784035  
     567A      0.787104   568A      0.788223   569A      0.790644  
     570A      0.791867   571A      0.798013   572A      0.800305  
     573A      0.801490   574A      0.801734   575A      0.807428  
     576A      0.808928   577A      0.810409   578A      0.811770  
     579A      0.813529   580A      0.815387   581A      0.816102  
     582A      0.820226   583A      0.823955   584A      0.825106  
     585A      0.828783   586A      0.830751   587A      0.835273  
     588A      0.837943   589A      0.838418   590A      0.840680  
     591A      0.841235   592A      0.844210   593A      0.844967  
     594A      0.846273   595A      0.848013   596A      0.849278  
     597A      0.851374   598A      0.854682   599A      0.857483  
     600A      0.860622   601A      0.862771   602A      0.864515  
     603A      0.865938   604A      0.867255   605A      0.872298  
     606A      0.872735   607A      0.875657   608A      0.875971  
     609A      0.878789   610A      0.883417   611A      0.885253  
     612A      0.888433   613A      0.891577   614A      0.893441  
     615A      0.894717   616A      0.897071   617A      0.899349  
     618A      0.899619   619A      0.901319   620A      0.904424  
     621A      0.905490   622A      0.907868   623A      0.911141  
     624A      0.911935   625A      0.913503   626A      0.917743  
     627A      0.919521   628A      0.928557   629A      0.929480  
     630A      0.932085   631A      0.933901   632A      0.939008  
     633A      0.940053   634A      0.943933   635A      0.945175  
     636A      0.945922   637A      0.947044   638A      0.949720  
     639A      0.950201   640A      0.953403   641A      0.957229  
     642A      0.958036   643A      0.959972   644A      0.964559  
     645A      0.965381   646A      0.966774   647A      0.968036  
     648A      0.968870   649A      0.969776   650A      0.970653  
     651A      0.971395   652A      0.973552   653A      0.976316  
     654A      0.978503   655A      0.980700   656A      0.981768  
     657A      0.983086   658A      0.985128   659A      0.987221  
     660A      0.990498   661A      0.997640   662A      0.998697  
     663A      0.999969   664A      1.002105   665A      1.004162  
     666A      1.005390   667A      1.006631   668A      1.007023  
     669A      1.011239   670A      1.012676   671A      1.014392  
     672A      1.019005   673A      1.019898   674A      1.020766  
     675A      1.024290   676A      1.027299   677A      1.029938  
     678A      1.030865   679A      1.034347   680A      1.034726  
     681A      1.035922   682A      1.038337   683A      1.040287  
     684A      1.040609   685A      1.043122   686A      1.048213  
     687A      1.052839   688A      1.053882   689A      1.055904  
     690A      1.057468   691A      1.060868   692A      1.063815  
     693A      1.068292   694A      1.070758   695A      1.075184  
     696A      1.076130   697A      1.078453   698A      1.081556  
     699A      1.083311   700A      1.087292   701A      1.088457  
     702A      1.091130   703A      1.092420   704A      1.094816  
     705A      1.099649   706A      1.103732   707A      1.105738  
     708A      1.106859   709A      1.114158   710A      1.117888  
     711A      1.121030   712A      1.122629   713A      1.125981  
     714A      1.130458   715A      1.133459   716A      1.135606  
     717A      1.137312   718A      1.144127   719A      1.144528  
     720A      1.147326   721A      1.149351   722A      1.152804  
     723A      1.158397   724A      1.162617   725A      1.163374  
     726A      1.167326   727A      1.170732   728A      1.176898  
     729A      1.181118   730A      1.182818   731A      1.183644  
     732A      1.185899   733A      1.186276   734A      1.190299  
     735A      1.191860   736A      1.197215   737A      1.199214  
     738A      1.199637   739A      1.202909   740A      1.204100  
     741A      1.209278   742A      1.213596   743A      1.217553  
     744A      1.218510   745A      1.220557   746A      1.223785  
     747A      1.227608   748A      1.232233   749A      1.236125  
     750A      1.238861   751A      1.242856   752A      1.244672  
     753A      1.244855   754A      1.247812   755A      1.250084  
     756A      1.251694   757A      1.252783   758A      1.255039  
     759A      1.259143   760A      1.263388   761A      1.266080  
     762A      1.268135   763A      1.271627   764A      1.272190  
     765A      1.274900   766A      1.276387   767A      1.278719  
     768A      1.282865   769A      1.288570   770A      1.290308  
     771A      1.294625   772A      1.297714   773A      1.303126  
     774A      1.310697   775A      1.311080   776A      1.313659  
     777A      1.318954   778A      1.328443   779A      1.330823  
     780A      1.333415   781A      1.338662   782A      1.339480  
     783A      1.342108   784A      1.344378   785A      1.347336  
     786A      1.348292   787A      1.354844   788A      1.355229  
     789A      1.356519   790A      1.359015   791A      1.359849  
     792A      1.362598   793A      1.367599   794A      1.369715  
     795A      1.370203   796A      1.373715   797A      1.375469  
     798A      1.379667   799A      1.380259   800A      1.389416  
     801A      1.393018   802A      1.401796   803A      1.404765  
     804A      1.424518   805A      1.438195   806A      1.440748  
     807A      1.441637   808A      1.442795   809A      1.447540  
     810A      1.458602   811A      1.462138   812A      1.470624  
     813A      1.490301   814A      1.501676   815A      1.503388  
     816A      1.510385   817A      1.519319   818A      1.522331  
     819A      1.526316   820A      1.530259   821A      1.532143  
     822A      1.534681   823A      1.535760   824A      1.539792  
     825A      1.540229   826A      1.546292   827A      1.547972  
     828A      1.552742   829A      1.558201   830A      1.559748  
     831A      1.560403   832A      1.564947   833A      1.565707  
     834A      1.568218   835A      1.572200   836A      1.574318  
     837A      1.580593   838A      1.581616   839A      1.586890  
     840A      1.590997   841A      1.593098   842A      1.594895  
     843A      1.597412   844A      1.601473   845A      1.603765  
     846A      1.604945   847A      1.606818   848A      1.610200  
     849A      1.616067   850A      1.617224   851A      1.619209  
     852A      1.620199   853A      1.621571   854A      1.624522  
     855A      1.628971   856A      1.636398   857A      1.638483  
     858A      1.639327   859A      1.647667   860A      1.655571  
     861A      1.659933   862A      1.662496   863A      1.668905  
     864A      1.680418   865A      1.682092   866A      1.686501  
     867A      1.688480   868A      1.692756   869A      1.698754  
     870A      1.702914   871A      1.705287   872A      1.712261  
     873A      1.716017   874A      1.727719   875A      1.737425  
     876A      1.740254   877A      1.741211   878A      1.744382  
     879A      1.744765   880A      1.748984   881A      1.753371  
     882A      1.759636   883A      1.762604   884A      1.766184  
     885A      1.772391   886A      1.774448   887A      1.776329  
     888A      1.779519   889A      1.784842   890A      1.786954  
     891A      1.789413   892A      1.792565   893A      1.794542  
     894A      1.796027   895A      1.798165   896A      1.803446  
     897A      1.811295   898A      1.813682   899A      1.815681  
     900A      1.818898   901A      1.827319   902A      1.827889  
     903A      1.829089   904A      1.830386   905A      1.831394  
     906A      1.834718   907A      1.836757   908A      1.838708  
     909A      1.838976   910A      1.843977   911A      1.845482  
     912A      1.845843   913A      1.847164   914A      1.848627  
     915A      1.855243   916A      1.865139   917A      1.868099  
     918A      1.869717   919A      1.871077   920A      1.872329  
     921A      1.873438   922A      1.875430   923A      1.876650  
     924A      1.878535   925A      1.880599   926A      1.883903  
     927A      1.887749   928A      1.893246   929A      1.896232  
     930A      1.908252   931A      1.911110   932A      1.916224  
     933A      1.916988   934A      1.920935   935A      1.923405  
     936A      1.925534   937A      1.926968   938A      1.931505  
     939A      1.933185   940A      1.936513   941A      1.938029  
     942A      1.939005   943A      1.942142   944A      1.945870  
     945A      1.952938   946A      1.954745   947A      1.955519  
     948A      1.956927   949A      1.959979   950A      1.963807  
     951A      1.967132   952A      1.971166   953A      1.976736  
     954A      1.979730   955A      1.982465   956A      1.985108  
     957A      1.985898   958A      1.989696   959A      1.993327  
     960A      1.993531   961A      1.994575   962A      1.997437  
     963A      2.000074   964A      2.004627   965A      2.006436  
     966A      2.011809   967A      2.015651   968A      2.017342  
     969A      2.019865   970A      2.020216   971A      2.022492  
     972A      2.023909   973A      2.024790   974A      2.025796  
     975A      2.028937   976A      2.033356   977A      2.036235  
     978A      2.036710   979A      2.039918   980A      2.040576  
     981A      2.041875   982A      2.042537   983A      2.044944  
     984A      2.045476   985A      2.049254   986A      2.051609  
     987A      2.053161   988A      2.057662   989A      2.058606  
     990A      2.059741   991A      2.062417   992A      2.063603  
     993A      2.065858   994A      2.066082   995A      2.076590  
     996A      2.078770   997A      2.082611   998A      2.083567  
     999A      2.086434  1000A      2.090817  1001A      2.093871  
    1002A      2.098457  1003A      2.103789  1004A      2.108073  
    1005A      2.108681  1006A      2.111438  1007A      2.112734  
    1008A      2.116290  1009A      2.119623  1010A      2.124547  
    1011A      2.131100  1012A      2.134102  1013A      2.138658  
    1014A      2.139729  1015A      2.142352  1016A      2.144783  
    1017A      2.153165  1018A      2.154700  1019A      2.159307  
    1020A      2.160322  1021A      2.163276  1022A      2.169189  
    1023A      2.170721  1024A      2.172397  1025A      2.173168  
    1026A      2.176597  1027A      2.185384  1028A      2.188443  
    1029A      2.191392  1030A      2.195221  1031A      2.196240  
    1032A      2.197013  1033A      2.206341  1034A      2.207101  
    1035A      2.212658  1036A      2.223196  1037A      2.228459  
    1038A      2.235278  1039A      2.237621  1040A      2.240506  
    1041A      2.245781  1042A      2.247276  1043A      2.252850  
    1044A      2.254551  1045A      2.255703  1046A      2.259004  
    1047A      2.265352  1048A      2.271217  1049A      2.274138  
    1050A      2.274750  1051A      2.280088  1052A      2.283155  
    1053A      2.288840  1054A      2.291546  1055A      2.304018  
    1056A      2.306738  1057A      2.314489  1058A      2.318644  
    1059A      2.339516  1060A      2.343953  1061A      2.344589  
    1062A      2.345331  1063A      2.352947  1064A      2.358502  
    1065A      2.362620  1066A      2.371457  1067A      2.389517  
    1068A      2.393393  1069A      2.400283  1070A      2.404660  
    1071A      2.410044  1072A      2.413059  1073A      2.418282  
    1074A      2.423868  1075A      2.443367  1076A      2.445611  
    1077A      2.453194  1078A      2.455788  1079A      2.470872  
    1080A      2.472449  1081A      2.473430  1082A      2.473877  
    1083A      2.480186  1084A      2.481045  1085A      2.481778  
    1086A      2.482270  1087A      2.493623  1088A      2.493990  
    1089A      2.502168  1090A      2.502567  1091A      2.505681  
    1092A      2.511469  1093A      2.515859  1094A      2.517017  
    1095A      2.519014  1096A      2.524829  1097A      2.543030  
    1098A      2.546256  1099A      2.550337  1100A      2.551238  
    1101A      2.555756  1102A      2.561579  1103A      2.566615  
    1104A      2.568802  1105A      2.573462  1106A      2.576725  
    1107A      2.579910  1108A      2.583294  1109A      2.598578  
    1110A      2.606871  1111A      2.612232  1112A      2.612979  
    1113A      2.616723  1114A      2.627013  1115A      2.632117  
    1116A      2.632455  1117A      2.634010  1118A      2.638114  
    1119A      2.638349  1120A      2.645231  1121A      2.649157  
    1122A      2.652914  1123A      2.666401  1124A      2.678157  
    1125A      2.682405  1126A      2.689468  1127A      2.705749  
    1128A      2.715924  1129A      2.716175  1130A      2.741095  
    1131A      2.743678  1132A      2.744871  1133A      2.750089  
    1134A      2.755692  1135A      2.761477  1136A      2.769596  
    1137A      2.772057  1138A      2.774186  1139A      2.778294  
    1140A      2.780798  1141A      2.783583  1142A      2.795039  
    1143A      2.803020  1144A      2.807036  1145A      2.811561  
    1146A      2.827672  1147A      2.840247  1148A      2.844898  
    1149A      2.846284  1150A      2.860072  1151A      2.864885  
    1152A      2.871192  1153A      2.886932  1154A      2.905684  
    1155A      2.908895  1156A      2.911221  1157A      2.938522  
    1158A      2.943277  1159A      2.958631  1160A      2.966122  
    1161A      2.975318  1162A      2.983393  1163A      2.983584  
    1164A      2.995779  1165A      3.006404  1166A      3.035350  
    1167A      3.046375  1168A      3.051574  1169A      3.055938  
    1170A      3.058110  1171A      3.063963  1172A      3.064637  
    1173A      3.069705  1174A      3.071261  1175A      3.072805  
    1176A      3.075331  1177A      3.083440  1178A      3.087654  
    1179A      3.094198  1180A      3.097714  1181A      3.100127  
    1182A      3.112626  1183A      3.116775  1184A      3.135877  
    1185A      3.146328  1186A      3.158432  1187A      3.170341  
    1188A      3.202196  1189A      3.210241  1190A      3.214711  
    1191A      3.226332  1192A      3.249130  1193A      3.341138  
    1194A      3.341605  1195A      3.411329  1196A      3.415342  
    1197A      3.437592  1198A      3.473597  1199A      3.499448  
    1200A      3.530517  1201A      3.539780  1202A      3.557425  
    1203A      3.571752  1204A      3.584380  1205A      3.587919  
    1206A      3.603374  1207A      3.640201  1208A      3.703207  
    1209A      3.728104  1210A      3.793454  1211A      3.793510  
    1212A      3.834669  1213A      3.835542  1214A      3.848190  
    1215A      3.896507  1216A      3.929716  1217A      4.030467  
    1218A      4.046021  1219A      4.059890  

    Final Occupation by Irrep:
              A 
    DOCC [   197 ]
    NA   [   197 ]
    NB   [   197 ]

  @DF-RHF Final Energy: -2359.20492871346778

   => Energetics <=

    Nuclear Repulsion Energy =           8316.5922691362375190
    One-Electron Energy =              -19732.3684730085733463
    Two-Electron Energy =                9056.5712751588689571
    Total Energy =                      -2359.2049287134668702

Computation Completed


Properties will be evaluated at   0.000000,   0.000000,   0.000000 [a0]

Properties computed using the SCF density matrix


 Multipole Moments:

 ------------------------------------------------------------------------------------
     Multipole            Electronic (a.u.)      Nuclear  (a.u.)        Total (a.u.)
 ------------------------------------------------------------------------------------

 L = 1.  Multiply by 2.5417464519 to convert [e a0] to [Debye]
 Dipole X            :         -0.0009640            0.0006313           -0.0003327
 Dipole Y            :         -6.1570886            7.4856329            1.3285444
 Dipole Z            :         14.9446776          -19.4851985           -4.5405209
 Magnitude           :                                                    4.7308943

 ------------------------------------------------------------------------------------

*** tstop() called on n2cn0837 at Sat Feb 10 13:03:13 2024
Module time:
	user time   =    6192.24 seconds =     103.20 minutes
	system time =     230.55 seconds =       3.84 minutes
	total time  =        499 seconds =       8.32 minutes
Total time:
	user time   =    6192.24 seconds =     103.20 minutes
	system time =     230.55 seconds =       3.84 minutes
	total time  =        499 seconds =       8.32 minutes

  //>>>>>>>>>>>>>>>>>>>>>>>>>>>>>>>>>>>//
  //            Monomer A HF           //
  //<<<<<<<<<<<<<<<<<<<<<<<<<<<<<<<<<<<//

   => Libint2 <=

    Primary   basis highest AM E, G, H:  5, 4, 3
    Auxiliary basis highest AM E, G, H:  6, 5, 4
    Onebody   basis highest AM E, G, H:  6, 5, 4
    Solid Harmonics ordering:            gaussian

*** tstart() called on n2cn0837
*** at Sat Feb 10 13:03:13 2024

   => Loading Basis Set <=

    Name: JUN-CC-PVDZ
    Role: ORBITAL
    Keyword: BASIS
    atoms 1-2, 4-5, 10, 17-70 entry C          line   164 file /opt/software/pc2/EB-SW/software/PSI4/1.9-foss-2022a/share/psi4/basis/jun-cc-pvdz.gbs 
    atoms 3, 6                entry N          line   198 file /opt/software/pc2/EB-SW/software/PSI4/1.9-foss-2022a/share/psi4/basis/jun-cc-pvdz.gbs 
    atoms 7-9, 11-16, 71-88   entry H          line    36 file /opt/software/pc2/EB-SW/software/PSI4/1.9-foss-2022a/share/psi4/basis/jun-cc-pvdz.gbs 


         ---------------------------------------------------------
                                   SCF
               by Justin Turney, Rob Parrish, Andy Simmonett
                          and Daniel G. A. Smith
                              RHF Reference
                       16 Threads,  45776 MiB Core
         ---------------------------------------------------------

  ==> Geometry <==

    Molecular point group: c1
    Full point group: C1

    Geometry (in Angstrom), charge = 1, multiplicity = 1:

       Center              X                  Y                   Z               Mass       
    ------------   -----------------  -----------------  -----------------  -----------------
         C            0.680066520158     1.235968212970    -4.794436426406    12.000000000000
         C           -0.680504479842     1.237996212970    -4.794052426406    12.000000000000
         N           -1.085635479842     1.238994212970    -3.475728426406    14.003074004430
         C            0.000107520158     1.242270212970    -2.694327426406    12.000000000000
         C           -2.477365479842     1.288400212970    -3.007749426406    12.000000000000
         N            1.085221520158     1.238994212970    -3.475728426406    14.003074004430
         H            1.385145520158     1.228140212970    -5.611875426406     1.007825032230
         H           -1.385302479842     1.237806212970    -5.611721426406     1.007825032230
         H           -0.000009479842     1.244017212970    -1.613238426406     1.007825032230
         C            2.478116520158     1.222102212970    -3.010630426406    12.000000000000
         H            2.490591520158     1.249447212970    -1.920377426406     1.007825032230
         H            2.967027520158     0.308656212970    -3.357806426406     1.007825032230
         H            3.001427520158     2.097585212970    -3.402102426406     1.007825032230
         H           -2.857359479842     2.310471212970    -3.087708426406     1.007825032230
         H           -3.082679479842     0.618316212970    -3.620813426406     1.007825032230
         H           -2.518128479842     0.961416212970    -1.967801426406     1.007825032230
      Gh(C)           1.225311895423     0.526248873889     0.527630200877    12.000000000000
      Gh(C)           1.225323856051    -0.888828309601     0.515299391307    12.000000000000
      Gh(C)          -0.000006153932     1.233676499060     0.514765767786    12.000000000000
      Gh(C)           2.456448753949     1.237038472148     0.530517058277    12.000000000000
      Gh(C)           0.000010827279    -1.596265913665     0.524965325111    12.000000000000
      Gh(C)          -1.225300948908     0.526255958954     0.529881721200    12.000000000000
      Gh(C)           2.456437755320    -1.599612718911     0.513054234450    12.000000000000
      Gh(C)          -0.000001332978     2.655511616251     0.512362217652    12.000000000000
      Gh(C)           3.681826697470     0.528028540971     0.513403024248    12.000000000000
      Gh(C)           2.455120048865     2.652934246459     0.513300467287    12.000000000000
      Gh(C)           3.681821105219    -0.890623254459     0.529475508266    12.000000000000
      Gh(C)          -1.225313598688    -0.888816930574     0.516372152734    12.000000000000
      Gh(C)           1.226699581202     3.362180068964     0.529659540197    12.000000000000
      Gh(C)           0.000004784858    -3.018071554266     0.529813492732    12.000000000000
      Gh(C)          -2.456436032848     1.237027503255     0.529917117046    12.000000000000
      Gh(C)           2.455123417779    -3.015519443619     0.529323599899    12.000000000000
      Gh(C)          -1.226714364589     3.362179648720     0.529762873416    12.000000000000
      Gh(C)           4.914517295202     1.245883457459     0.519883707278    12.000000000000
      Gh(C)           3.693150191476     3.361505877515     0.519933506914    12.000000000000
      Gh(C)          -2.456437600068    -1.599602695869     0.513029196325    12.000000000000
      Gh(C)           1.226704841943    -3.724763656937     0.513689409447    12.000000000000
      Gh(C)          -2.455125398508     2.652927247604     0.513306843634    12.000000000000
      Gh(C)           4.914524380782    -1.608476324974     0.522856450012    12.000000000000
      Gh(C)           1.221424613699     4.788844650230     0.522994884272    12.000000000000
      Gh(C)           4.893008229321     2.643898584996     0.521100375636    12.000000000000
      Gh(C)          -1.226697008489    -3.724760412107     0.513956613857    12.000000000000
      Gh(C)          -3.681818976526     0.528035551702     0.513415704728    12.000000000000
      Gh(C)           3.693147101150    -3.724090756421     0.522974340573    12.000000000000
      Gh(C)          -1.221432251994     4.788838882833     0.523178379644    12.000000000000
      Gh(C)           6.134770972926     0.499258532075     0.520653481827    12.000000000000
      Gh(C)           3.656788880610     4.791663828537     0.520842144696    12.000000000000
      Gh(C)          -2.455126907733    -3.015504508091     0.529079242101    12.000000000000
      Gh(C)          -3.681819179061    -0.890615118499     0.529593129845    12.000000000000
      Gh(C)           4.893012617914    -3.006489520662     0.521711527532    12.000000000000
      Gh(C)          -0.000001073113     5.469157951002     0.521947070937    12.000000000000
      Gh(C)           6.134775112332    -0.861844269105     0.521918802343    12.000000000000
      Gh(C)           2.478131482856     5.472287336301     0.522130924346    12.000000000000
      Gh(C)           1.221422404738    -5.151416469963     0.520195387249    12.000000000000
      Gh(C)          -3.693162383965     3.361507539162     0.520099014373    12.000000000000
      Gh(C)          -1.221428520945    -5.151407718626     0.520082625416    12.000000000000
      Gh(C)          -4.914521807942     1.245886031965     0.519960652285    12.000000000000
      Gh(C)           3.656787019679    -5.154244641269     0.522292645230    12.000000000000
      Gh(C)          -2.478138530106     5.472285007498     0.522415449355    12.000000000000
      Gh(C)          -3.693141738564    -3.724079634009     0.522858214417    12.000000000000
      Gh(C)          -4.914512483053    -1.608470415058     0.522891147186    12.000000000000
      Gh(C)          -0.000006008926    -5.831727702044     0.521551566816    12.000000000000
      Gh(C)          -4.893020484101     2.643899183889     0.521090293776    12.000000000000
      Gh(C)           2.478125993298    -5.834862958919     0.521202044438    12.000000000000
      Gh(C)          -3.656798710258     4.791666767011     0.521018825071    12.000000000000
      Gh(C)          -4.892999478856    -3.006481182090     0.521557491834    12.000000000000
      Gh(C)          -2.478128498083    -5.834855585037     0.520926856791    12.000000000000
      Gh(C)          -6.134770503331     0.499259351226     0.520627930125    12.000000000000
      Gh(C)          -3.656788833189    -5.154233438001     0.522078357414    12.000000000000
      Gh(C)          -6.134765042913    -0.861843330512     0.521898326548    12.000000000000
      Gh(H)           5.835288495816     3.187986479924     0.525459701299     1.007825032230
      Gh(H)           7.073859172747     1.046927833869     0.521115125221     1.007825032230
      Gh(H)           4.600663264174     5.331091387423     0.521347345448     1.007825032230
      Gh(H)           5.835283387305    -3.550595471759     0.517257060217     1.007825032230
      Gh(H)          -0.000012151306     6.557241259106     0.517597825930     1.007825032230
      Gh(H)           7.073861171831    -1.409516357774     0.521410064249     1.007825032230
      Gh(H)           2.473313731799     6.559394876364     0.521664203416     1.007825032230
      Gh(H)           4.600668491381    -5.693665544206     0.521882648062     1.007825032230
      Gh(H)          -2.473318680537     6.559392304576     0.521965550041     1.007825032230
      Gh(H)          -0.000010268228    -6.919817591482     0.526081251801     1.007825032230
      Gh(H)          -5.835301914343     3.187981535266     0.525595723447     1.007825032230
      Gh(H)           2.473307923831    -6.921974789459     0.521772374863     1.007825032230
      Gh(H)          -4.600674841208     5.331088611573     0.521512673772     1.007825032230
      Gh(H)          -5.835279506835    -3.550578378810     0.516977754336     1.007825032230
      Gh(H)          -2.473300347440    -6.921968493170     0.521323058319     1.007825032230
      Gh(H)          -7.073857766768     1.046931057810     0.521031133740     1.007825032230
      Gh(H)          -4.600673786085    -5.693652084817     0.521710340039     1.007825032230
      Gh(H)          -7.073856934409    -1.409510047007     0.521315207782     1.007825032230

  Running in c1 symmetry.

  Rotational constants: A =      0.00182  B =      0.00181  C =      0.00108 [cm^-1]
  Rotational constants: A =     54.50377  B =     54.33451  C =     32.27043 [MHz]
  Nuclear repulsion =  306.774908447733083

  Charge       = 1
  Multiplicity = 1
  Electrons    = 52
  Nalpha       = 26
  Nbeta        = 26

  ==> Algorithm <==

  SCF Algorithm Type is DF.
  DIIS enabled.
  MOM disabled.
  Fractional occupation disabled.
  Guess Type is SAD.
  Energy threshold   = 1.00e-08
  Density threshold  = 1.00e-08
  Integral threshold = 1.00e-12

  ==> Primary Basis <==

  Basis Set: JUN-CC-PVDZ
    Blend: JUN-CC-PVDZ
    Number of shells: 569
    Number of basis functions: 1233
    Number of Cartesian functions: 1294
    Spherical Harmonics?: true
    Max angular momentum: 2

   => Loading Basis Set <=

    Name: (JUN-CC-PVDZ AUX)
    Role: JKFIT
    Keyword: DF_BASIS_SCF
    atoms 1-2, 4-5, 10, 17-70 entry C          line   146 file /opt/software/pc2/EB-SW/software/PSI4/1.9-foss-2022a/share/psi4/basis/jun-cc-pvdz-jkfit.gbs 
    atoms 3, 6                entry N          line   202 file /opt/software/pc2/EB-SW/software/PSI4/1.9-foss-2022a/share/psi4/basis/jun-cc-pvdz-jkfit.gbs 
    atoms 7-9, 11-16, 71-88   entry H          line    70 file /opt/software/pc2/EB-SW/software/PSI4/1.9-foss-2022a/share/psi4/basis/jun-cc-pvdz-jkfit.gbs 

  ==> Integral Setup <==

  ==> DiskDFJK: Density-Fitted J/K Matrices <==

    J tasked:                  Yes
    K tasked:                  Yes
    wK tasked:                  No
    OpenMP threads:             16
    Integrals threads:          16
    Memory [MiB]:            34332
    Algorithm:                Core
    Integral Cache:           LOAD
    Schwarz Cutoff:          1E-12
    Fitting Condition:       1E-10

   => Auxiliary Basis Set <=

  Basis Set: (JUN-CC-PVDZ AUX)
    Blend: JUN-CC-PVDZ-JKFIT
    Number of shells: 1890
    Number of basis functions: 5440
    Number of Cartesian functions: 6226
    Spherical Harmonics?: true
    Max angular momentum: 3

  Minimum eigenvalue in the overlap matrix is 6.4931409797E-10.
  Reciprocal condition number of the overlap matrix is 2.6523085210E-11.
    Using canonical orthogonalization.
  Overall, 14 of 1233 possible MOs eliminated.


  ==> Pre-Iterations <==

  SCF Guess: Superposition of Atomic Densities via on-the-fly atomic UHF (no occupation information).

   -------------------------
    Irrep   Nso     Nmo    
   -------------------------
     A       1233    1219 
   -------------------------
    Total    1233    1219
   -------------------------

  ==> Iterations <==

                           Total Energy        Delta E     RMS |[F,P]|

   @DF-RHF iter SAD:  -303.36536765509663   -3.03365e+02   0.00000e+00 
   @DF-RHF iter   1:  -303.17036247121814    1.95005e-01   3.44836e-04 ADIIS/DIIS
   @DF-RHF iter   2:  -303.28481565390427   -1.14453e-01   1.16094e-04 ADIIS/DIIS
   @DF-RHF iter   3:  -303.29633246499867   -1.15168e-02   4.55031e-05 DIIS
   @DF-RHF iter   4:  -303.29825689615387   -1.92443e-03   9.98267e-06 DIIS
   @DF-RHF iter   5:  -303.29836513613452   -1.08240e-04   2.44146e-06 DIIS
   @DF-RHF iter   6:  -303.29837466508195   -9.52895e-06   6.58052e-07 DIIS
   @DF-RHF iter   7:  -303.29837575934374   -1.09426e-06   3.35866e-07 DIIS
   @DF-RHF iter   8:  -303.29837601972326   -2.60380e-07   1.35300e-07 DIIS
   @DF-RHF iter   9:  -303.29837606985745   -5.01342e-08   3.36881e-08 DIIS
   @DF-RHF iter  10:  -303.29837607268325   -2.82580e-09   1.24315e-08 DIIS
   @DF-RHF iter  11:  -303.29837607292109   -2.37833e-10   2.84861e-09 DIIS
  Energy and wave function converged.


  ==> Post-Iterations <==

    Orbital Energies [Eh]
    ---------------------

    Doubly Occupied:                                                      

       1A    -15.834516     2A    -15.833996     3A    -11.529207  
       4A    -11.459663     5A    -11.458109     6A    -11.449541  
       7A    -11.449447     8A     -1.577769     9A     -1.433397  
      10A     -1.238266    11A     -1.189008    12A     -1.118631  
      13A     -1.022138    14A     -0.996608    15A     -0.916730  
      16A     -0.850210    17A     -0.815929    18A     -0.812824  
      19A     -0.789786    20A     -0.786005    21A     -0.781432  
      22A     -0.729501    23A     -0.725595    24A     -0.716989  
      25A     -0.595948    26A     -0.523560  

    Virtual:                                                              

      27A     -0.080047    28A     -0.073523    29A     -0.062644  
      30A     -0.055088    31A     -0.043283    32A     -0.040108  
      33A     -0.039625    34A     -0.039080    35A     -0.037667  
      36A     -0.026957    37A     -0.026874    38A     -0.020666  
      39A     -0.020211    40A     -0.015369    41A     -0.013598  
      42A     -0.013140    43A     -0.010234    44A     -0.007551  
      45A     -0.002582    46A      0.002954    47A      0.004493  
      48A      0.006059    49A      0.006427    50A      0.007057  
      51A      0.012690    52A      0.013520    53A      0.014246  
      54A      0.018099    55A      0.022802    56A      0.022890  
      57A      0.024131    58A      0.029173    59A      0.029699  
      60A      0.031383    61A      0.037552    62A      0.038170  
      63A      0.040532    64A      0.041134    65A      0.043559  
      66A      0.045638    67A      0.049463    68A      0.050834  
      69A      0.053288    70A      0.054190    71A      0.055129  
      72A      0.056676    73A      0.058542    74A      0.060436  
      75A      0.065471    76A      0.065885    77A      0.066867  
      78A      0.067729    79A      0.068425    80A      0.071139  
      81A      0.071757    82A      0.073348    83A      0.073618  
      84A      0.075579    85A      0.080604    86A      0.080746  
      87A      0.081333    88A      0.082097    89A      0.083676  
      90A      0.086363    91A      0.086963    92A      0.089236  
      93A      0.092390    94A      0.093381    95A      0.095229  
      96A      0.100105    97A      0.101334    98A      0.101848  
      99A      0.105388   100A      0.105920   101A      0.106816  
     102A      0.109406   103A      0.110007   104A      0.111589  
     105A      0.112582   106A      0.112925   107A      0.114170  
     108A      0.114329   109A      0.115503   110A      0.115885  
     111A      0.116846   112A      0.120756   113A      0.122829  
     114A      0.124026   115A      0.124623   116A      0.125781  
     117A      0.127824   118A      0.131874   119A      0.133692  
     120A      0.135121   121A      0.135416   122A      0.136956  
     123A      0.140570   124A      0.141085   125A      0.143360  
     126A      0.144747   127A      0.147696   128A      0.148611  
     129A      0.150287   130A      0.151056   131A      0.152329  
     132A      0.152765   133A      0.153802   134A      0.156188  
     135A      0.158335   136A      0.158990   137A      0.159342  
     138A      0.160522   139A      0.163083   140A      0.166623  
     141A      0.167241   142A      0.167791   143A      0.170770  
     144A      0.173562   145A      0.174447   146A      0.174945  
     147A      0.175689   148A      0.178391   149A      0.178470  
     150A      0.178914   151A      0.179329   152A      0.181609  
     153A      0.184286   154A      0.185301   155A      0.187903  
     156A      0.192421   157A      0.194284   158A      0.197248  
     159A      0.200169   160A      0.201507   161A      0.202762  
     162A      0.203589   163A      0.204787   164A      0.205938  
     165A      0.206377   166A      0.208775   167A      0.209720  
     168A      0.212078   169A      0.212441   170A      0.213358  
     171A      0.214576   172A      0.220615   173A      0.221262  
     174A      0.221558   175A      0.222691   176A      0.223883  
     177A      0.224986   178A      0.226255   179A      0.227858  
     180A      0.229449   181A      0.229950   182A      0.230520  
     183A      0.233944   184A      0.236046   185A      0.237189  
     186A      0.238773   187A      0.239253   188A      0.241837  
     189A      0.244786   190A      0.247349   191A      0.248796  
     192A      0.252823   193A      0.255254   194A      0.258430  
     195A      0.259168   196A      0.261073   197A      0.263379  
     198A      0.264289   199A      0.267846   200A      0.269480  
     201A      0.270609   202A      0.273417   203A      0.274198  
     204A      0.275902   205A      0.277878   206A      0.278066  
     207A      0.282349   208A      0.283839   209A      0.284205  
     210A      0.285640   211A      0.286469   212A      0.288269  
     213A      0.289223   214A      0.290926   215A      0.294428  
     216A      0.295574   217A      0.297830   218A      0.299401  
     219A      0.302538   220A      0.304501   221A      0.306302  
     222A      0.307268   223A      0.310805   224A      0.311882  
     225A      0.312477   226A      0.313459   227A      0.314740  
     228A      0.315766   229A      0.318873   230A      0.322431  
     231A      0.324440   232A      0.326669   233A      0.328346  
     234A      0.332532   235A      0.338771   236A      0.339737  
     237A      0.342598   238A      0.345469   239A      0.346146  
     240A      0.350216   241A      0.353637   242A      0.353820  
     243A      0.355487   244A      0.356911   245A      0.357192  
     246A      0.359780   247A      0.360295   248A      0.364600  
     249A      0.365959   250A      0.369907   251A      0.372463  
     252A      0.373966   253A      0.375313   254A      0.375886  
     255A      0.380213   256A      0.380520   257A      0.381469  
     258A      0.382343   259A      0.384833   260A      0.386294  
     261A      0.387610   262A      0.391322   263A      0.392138  
     264A      0.393573   265A      0.395834   266A      0.396485  
     267A      0.397561   268A      0.399812   269A      0.402585  
     270A      0.403487   271A      0.407699   272A      0.409066  
     273A      0.410117   274A      0.410447   275A      0.413405  
     276A      0.415760   277A      0.418104   278A      0.419454  
     279A      0.421502   280A      0.423073   281A      0.426891  
     282A      0.427959   283A      0.433816   284A      0.435459  
     285A      0.436235   286A      0.440694   287A      0.441514  
     288A      0.443081   289A      0.444399   290A      0.445703  
     291A      0.448910   292A      0.449568   293A      0.452156  
     294A      0.453477   295A      0.454298   296A      0.456750  
     297A      0.457336   298A      0.460470   299A      0.461286  
     300A      0.462039   301A      0.468662   302A      0.469837  
     303A      0.470463   304A      0.471815   305A      0.473368  
     306A      0.476358   307A      0.478942   308A      0.482230  
     309A      0.486329   310A      0.487524   311A      0.490512  
     312A      0.494564   313A      0.495165   314A      0.497186  
     315A      0.499911   316A      0.500490   317A      0.503054  
     318A      0.504442   319A      0.507070   320A      0.508676  
     321A      0.510445   322A      0.511848   323A      0.513328  
     324A      0.520626   325A      0.522298   326A      0.525352  
     327A      0.528147   328A      0.532180   329A      0.532822  
     330A      0.533837   331A      0.536788   332A      0.540392  
     333A      0.541181   334A      0.543445   335A      0.546524  
     336A      0.548966   337A      0.550759   338A      0.553479  
     339A      0.554486   340A      0.557165   341A      0.557995  
     342A      0.559484   343A      0.564338   344A      0.565658  
     345A      0.569775   346A      0.570771   347A      0.571838  
     348A      0.574603   349A      0.575010   350A      0.581609  
     351A      0.582466   352A      0.588414   353A      0.589217  
     354A      0.591709   355A      0.593596   356A      0.594914  
     357A      0.598549   358A      0.601941   359A      0.603947  
     360A      0.604770   361A      0.605369   362A      0.606637  
     363A      0.609543   364A      0.610412   365A      0.614802  
     366A      0.615437   367A      0.617663   368A      0.620411  
     369A      0.623607   370A      0.629056   371A      0.632399  
     372A      0.634108   373A      0.637202   374A      0.641823  
     375A      0.644007   376A      0.645596   377A      0.649143  
     378A      0.654477   379A      0.659565   380A      0.664365  
     381A      0.669482   382A      0.671874   383A      0.673251  
     384A      0.675960   385A      0.678207   386A      0.679597  
     387A      0.682477   388A      0.683955   389A      0.685422  
     390A      0.687020   391A      0.687805   392A      0.688062  
     393A      0.691573   394A      0.694467   395A      0.695834  
     396A      0.699992   397A      0.705117   398A      0.707191  
     399A      0.710863   400A      0.712193   401A      0.712716  
     402A      0.715269   403A      0.718644   404A      0.719873  
     405A      0.726125   406A      0.727325   407A      0.730332  
     408A      0.734779   409A      0.745874   410A      0.755619  
     411A      0.762001   412A      0.764196   413A      0.767064  
     414A      0.768465   415A      0.771838   416A      0.774042  
     417A      0.774774   418A      0.776622   419A      0.778544  
     420A      0.785033   421A      0.791828   422A      0.793524  
     423A      0.796535   424A      0.801947   425A      0.803868  
     426A      0.804609   427A      0.806254   428A      0.813459  
     429A      0.816728   430A      0.817730   431A      0.819167  
     432A      0.824608   433A      0.831013   434A      0.833413  
     435A      0.836838   436A      0.839842   437A      0.844890  
     438A      0.859395   439A      0.861936   440A      0.867215  
     441A      0.876715   442A      0.878801   443A      0.883860  
     444A      0.887453   445A      0.892543   446A      0.894158  
     447A      0.903597   448A      0.905769   449A      0.915361  
     450A      0.921060   451A      0.923626   452A      0.924815  
     453A      0.925190   454A      0.928023   455A      0.937179  
     456A      0.938350   457A      0.940880   458A      0.949201  
     459A      0.954725   460A      0.965377   461A      0.973993  
     462A      0.977601   463A      0.978856   464A      0.981511  
     465A      0.983578   466A      0.988319   467A      0.988916  
     468A      1.003899   469A      1.007810   470A      1.017165  
     471A      1.020103   472A      1.024266   473A      1.026144  
     474A      1.044925   475A      1.053790   476A      1.056913  
     477A      1.065480   478A      1.069685   479A      1.077082  
     480A      1.078192   481A      1.082292   482A      1.090769  
     483A      1.093288   484A      1.101722   485A      1.101933  
     486A      1.102713   487A      1.113715   488A      1.114077  
     489A      1.120094   490A      1.133843   491A      1.134951  
     492A      1.139421   493A      1.140166   494A      1.145965  
     495A      1.152118   496A      1.165682   497A      1.174161  
     498A      1.179475   499A      1.182437   500A      1.202861  
     501A      1.209038   502A      1.210685   503A      1.215554  
     504A      1.221122   505A      1.221313   506A      1.224015  
     507A      1.241279   508A      1.241792   509A      1.242775  
     510A      1.243608   511A      1.283640   512A      1.284367  
     513A      1.289294   514A      1.310084   515A      1.342094  
     516A      1.352246   517A      1.356515   518A      1.365094  
     519A      1.373834   520A      1.376726   521A      1.378635  
     522A      1.379839   523A      1.384343   524A      1.406411  
     525A      1.408765   526A      1.415302   527A      1.419376  
     528A      1.445872   529A      1.457436   530A      1.462373  
     531A      1.467428   532A      1.471325   533A      1.478018  
     534A      1.485697   535A      1.494365   536A      1.497553  
     537A      1.518485   538A      1.524053   539A      1.533615  
     540A      1.542696   541A      1.545562   542A      1.560277  
     543A      1.569751   544A      1.576095   545A      1.578154  
     546A      1.582291   547A      1.585476   548A      1.592400  
     549A      1.593550   550A      1.602764   551A      1.607519  
     552A      1.614075   553A      1.622482   554A      1.633790  
     555A      1.640962   556A      1.657968   557A      1.661691  
     558A      1.667317   559A      1.673519   560A      1.673794  
     561A      1.677062   562A      1.682488   563A      1.683177  
     564A      1.685837   565A      1.690634   566A      1.692550  
     567A      1.695017   568A      1.702696   569A      1.706979  
     570A      1.708749   571A      1.709931   572A      1.715262  
     573A      1.717014   574A      1.717247   575A      1.725399  
     576A      1.729142   577A      1.731468   578A      1.737575  
     579A      1.738310   580A      1.741442   581A      1.744643  
     582A      1.746692   583A      1.753572   584A      1.755678  
     585A      1.756266   586A      1.758783   587A      1.762588  
     588A      1.764504   589A      1.770113   590A      1.772468  
     591A      1.775372   592A      1.776654   593A      1.780742  
     594A      1.784725   595A      1.785205   596A      1.791343  
     597A      1.795399   598A      1.800329   599A      1.800810  
     600A      1.803535   601A      1.803845   602A      1.808498  
     603A      1.812987   604A      1.817376   605A      1.819760  
     606A      1.821156   607A      1.822026   608A      1.824732  
[...]
     811A      1.720615   812A      1.737037   813A      1.742589  
     814A      1.746972   815A      1.752367   816A      1.760060  
     817A      1.761143   818A      1.762993   819A      1.765402  
     820A      1.775692   821A      1.778857   822A      1.783631  
     823A      1.792250   824A      1.793361   825A      1.797083  
     826A      1.815943   827A      1.817382   828A      1.819718  
     829A      1.820297   830A      1.821790   831A      1.824707  
     832A      1.826048   833A      1.830022   834A      1.837775  
     835A      1.840709   836A      1.841890   837A      1.843637  
     838A      1.846048   839A      1.857773   840A      1.861412  
     841A      1.862501   842A      1.863860   843A      1.866986  
     844A      1.870473   845A      1.871934   846A      1.878020  
     847A      1.879986   848A      1.885050   849A      1.894299  
     850A      1.895757   851A      1.902049   852A      1.902166  
     853A      1.905866   854A      1.908617   855A      1.911497  
     856A      1.915567   857A      1.918234   858A      1.919070  
     859A      1.919691   860A      1.920673   861A      1.922494  
     862A      1.923068   863A      1.933525   864A      1.935596  
     865A      1.939048   866A      1.944326   867A      1.944944  
     868A      1.945546   869A      1.946802   870A      1.950456  
     871A      1.951781   872A      1.956406   873A      1.958289  
     874A      1.958533   875A      1.962231   876A      1.972473  
     877A      1.973750   878A      1.976403   879A      1.978558  
     880A      1.988895   881A      1.990423   882A      1.996398  
     883A      1.997885   884A      1.998415   885A      2.000978  
     886A      2.003523   887A      2.007681   888A      2.009079  
     889A      2.011113   890A      2.018002   891A      2.023666  
     892A      2.027715   893A      2.031651   894A      2.032844  
     895A      2.033260   896A      2.036331   897A      2.039200  
     898A      2.043542   899A      2.048719   900A      2.049644  
     901A      2.053284   902A      2.055458   903A      2.058977  
     904A      2.064055   905A      2.065925   906A      2.067287  
     907A      2.069633   908A      2.071887   909A      2.075113  
     910A      2.077005   911A      2.078427   912A      2.081885  
     913A      2.086014   914A      2.088669   915A      2.089232  
     916A      2.090945   917A      2.092236   918A      2.097719  
     919A      2.098651   920A      2.099850   921A      2.100103  
     922A      2.102933   923A      2.105670   924A      2.109029  
     925A      2.110465   926A      2.112221   927A      2.113252  
     928A      2.113837   929A      2.116440   930A      2.119722  
     931A      2.120900   932A      2.121141   933A      2.121408  
     934A      2.125281   935A      2.126848   936A      2.130330  
     937A      2.131617   938A      2.134115   939A      2.135834  
     940A      2.137627   941A      2.140314   942A      2.142493  
     943A      2.143726   944A      2.146469   945A      2.149824  
     946A      2.157091   947A      2.158547   948A      2.160397  
     949A      2.160860   950A      2.165708   951A      2.172781  
     952A      2.174489   953A      2.179646   954A      2.182472  
     955A      2.185903   956A      2.189026   957A      2.190959  
     958A      2.192195   959A      2.193768   960A      2.198708  
     961A      2.200807   962A      2.205885   963A      2.217104  
     964A      2.218201   965A      2.219840   966A      2.225502  
     967A      2.229042   968A      2.235050   969A      2.236941  
     970A      2.238782   971A      2.241673   972A      2.245589  
     973A      2.246172   974A      2.247873   975A      2.249043  
     976A      2.249708   977A      2.251716   978A      2.258739  
     979A      2.262937   980A      2.266125   981A      2.268103  
     982A      2.270288   983A      2.273679   984A      2.274051  
     985A      2.278258   986A      2.281929   987A      2.283170  
     988A      2.287357   989A      2.301005   990A      2.307442  
     991A      2.308507   992A      2.314187   993A      2.314715  
     994A      2.316898   995A      2.327307   996A      2.333170  
     997A      2.334388   998A      2.336532   999A      2.339646  
    1000A      2.345779  1001A      2.348702  1002A      2.349176  
    1003A      2.354874  1004A      2.358236  1005A      2.359963  
    1006A      2.364607  1007A      2.369291  1008A      2.374501  
    1009A      2.383812  1010A      2.384771  1011A      2.400412  
    1012A      2.414316  1013A      2.419557  1014A      2.424451  
    1015A      2.424690  1016A      2.425367  1017A      2.429618  
    1018A      2.432925  1019A      2.436885  1020A      2.446834  
    1021A      2.448478  1022A      2.469563  1023A      2.475038  
    1024A      2.477430  1025A      2.481198  1026A      2.487119  
    1027A      2.490145  1028A      2.492351  1029A      2.505324  
    1030A      2.509668  1031A      2.517922  1032A      2.524462  
    1033A      2.530028  1034A      2.537458  1035A      2.540925  
    1036A      2.550197  1037A      2.551486  1038A      2.553642  
    1039A      2.553826  1040A      2.557369  1041A      2.560123  
    1042A      2.560718  1043A      2.561796  1044A      2.568702  
    1045A      2.570833  1046A      2.572869  1047A      2.574897  
    1048A      2.578400  1049A      2.580463  1050A      2.587245  
    1051A      2.589494  1052A      2.594606  1053A      2.597442  
    1054A      2.602190  1055A      2.611921  1056A      2.612655  
    1057A      2.622541  1058A      2.628258  1059A      2.630552  
    1060A      2.637855  1061A      2.638611  1062A      2.642523  
    1063A      2.645587  1064A      2.651515  1065A      2.654127  
    1066A      2.657804  1067A      2.662465  1068A      2.667958  
    1069A      2.682470  1070A      2.687563  1071A      2.689324  
    1072A      2.695001  1073A      2.698445  1074A      2.710204  
    1075A      2.713946  1076A      2.714805  1077A      2.717953  
    1078A      2.719344  1079A      2.720427  1080A      2.724937  
    1081A      2.725438  1082A      2.732404  1083A      2.741353  
    1084A      2.749406  1085A      2.756208  1086A      2.759966  
    1087A      2.760980  1088A      2.774328  1089A      2.782559  
    1090A      2.792053  1091A      2.798419  1092A      2.802085  
    1093A      2.814016  1094A      2.819339  1095A      2.831059  
    1096A      2.833039  1097A      2.836615  1098A      2.855721  
    1099A      2.856683  1100A      2.858819  1101A      2.862344  
    1102A      2.867089  1103A      2.869072  1104A      2.891145  
    1105A      2.918853  1106A      2.920180  1107A      2.929659  
    1108A      2.933780  1109A      2.940038  1110A      2.943037  
    1111A      2.948664  1112A      2.952546  1113A      2.960489  
    1114A      2.964640  1115A      2.967673  1116A      2.984291  
    1117A      2.996305  1118A      3.007182  1119A      3.014666  
    1120A      3.020198  1121A      3.031364  1122A      3.043303  
    1123A      3.058412  1124A      3.065869  1125A      3.066410  
    1126A      3.070967  1127A      3.081360  1128A      3.082617  
    1129A      3.095602  1130A      3.114880  1131A      3.120141  
    1132A      3.129668  1133A      3.136912  1134A      3.139728  
    1135A      3.141379  1136A      3.143013  1137A      3.147978  
    1138A      3.149726  1139A      3.150487  1140A      3.155628  
    1141A      3.157437  1142A      3.166239  1143A      3.169314  
    1144A      3.172544  1145A      3.183352  1146A      3.192621  
    1147A      3.195441  1148A      3.205224  1149A      3.215757  
    1150A      3.236215  1151A      3.249839  1152A      3.283546  
    1153A      3.287966  1154A      3.303543  1155A      3.304880  
    1156A      3.307388  1157A      3.330711  1158A      3.365431  
    1159A      3.408477  1160A      3.422883  1161A      3.424860  
    1162A      3.476308  1163A      3.495192  1164A      3.510121  
    1165A      3.532111  1166A      3.559697  1167A      3.564120  
    1168A      3.603218  1169A      3.611871  1170A      3.634895  
    1171A      3.640690  1172A      3.657638  1173A      3.663659  
    1174A      3.667892  1175A      3.680985  1176A      3.721780  
    1177A      3.765689  1178A      3.784137  1179A      3.796856  
    1180A      3.850547  1181A      3.871757  1182A      3.872289  
    1183A      3.885180  1184A      3.892721  1185A      3.915558  
    1186A      3.917583  1187A      3.979467  1188A      4.010890  
    1189A      4.019072  1190A      4.106309  1191A      4.129588  
    1192A      4.152314  1193A      4.241071  1194A      4.302896  
    1195A      4.423677  1196A      4.444280  1197A      4.523934  
    1198A      4.812095  1199A      4.856972  1200A      4.905768  
    1201A      4.946673  1202A      4.977033  1203A      5.087494  
    1204A      5.096733  1205A      5.114695  1206A      5.156018  
    1207A      5.228741  1208A      5.431043  1209A      5.445213  
    1210A      5.773638  1211A      5.810185  1212A      6.084013  
    1213A     18.207213  1214A     18.491112  1215A     18.514722  
    1216A     18.603558  1217A     18.859590  1218A     25.359283  
    1219A     25.394494  

    Final Occupation by Irrep:
              A 
    DOCC [   171 ]
    NA   [   171 ]
    NB   [   171 ]

  @DF-RHF Final Energy: -2055.89542883358808

   => Energetics <=

    Nuclear Repulsion Energy =           6452.5568002797781446
    One-Electron Energy =              -15636.5283477696957561
    Two-Electron Energy =                7128.0761186563286174
    Total Energy =                      -2055.8954288335880847

Computation Completed


Properties will be evaluated at   0.000000,   0.000000,   0.000000 [a0]

Properties computed using the SCF density matrix


 Multipole Moments:

 ------------------------------------------------------------------------------------
     Multipole            Electronic (a.u.)      Nuclear  (a.u.)        Total (a.u.)
 ------------------------------------------------------------------------------------

 L = 1.  Multiply by 2.5417464519 to convert [e a0] to [Debye]
 Dipole X            :          0.0004819           -0.0000085            0.0004734
 Dipole Y            :        117.1723616         -117.1648546            0.0075070
 Dipole Z            :       -337.0301456          337.0320811            0.0019355
 Magnitude           :                                                    0.0077670

 ------------------------------------------------------------------------------------

*** tstop() called on n2cn0837 at Sat Feb 10 13:10:36 2024
Module time:
	user time   =    3896.95 seconds =      64.95 minutes
	system time =     158.36 seconds =       2.64 minutes
	total time  =        285 seconds =       4.75 minutes
Total time:
	user time   =   12073.75 seconds =     201.23 minutes
	system time =     422.48 seconds =       7.04 minutes
	total time  =        942 seconds =      15.70 minutes
  Constructing Basis Sets for SAPT...

   => Loading Basis Set <=

    Name: (JUN-CC-PVDZ AUX)
    Role: RIFIT
    Keyword: DF_BASIS_SAPT
    atoms 1-2, 4-5, 10, 17-70 entry C          line   100 file /opt/software/pc2/EB-SW/software/PSI4/1.9-foss-2022a/share/psi4/basis/jun-cc-pvdz-ri.gbs 
    atoms 3, 6                entry N          line   144 file /opt/software/pc2/EB-SW/software/PSI4/1.9-foss-2022a/share/psi4/basis/jun-cc-pvdz-ri.gbs 
    atoms 7-9, 11-16, 71-88   entry H          line    30 file /opt/software/pc2/EB-SW/software/PSI4/1.9-foss-2022a/share/psi4/basis/jun-cc-pvdz-ri.gbs 

   => Loading Basis Set <=

    Name: (JUN-CC-PVDZ AUX)
    Role: JKFIT
    Keyword: DF_BASIS_ELST
    atoms 1-2, 4-5, 10, 17-70 entry C          line   146 file /opt/software/pc2/EB-SW/software/PSI4/1.9-foss-2022a/share/psi4/basis/jun-cc-pvdz-jkfit.gbs 
    atoms 3, 6                entry N          line   202 file /opt/software/pc2/EB-SW/software/PSI4/1.9-foss-2022a/share/psi4/basis/jun-cc-pvdz-jkfit.gbs 
    atoms 7-9, 11-16, 71-88   entry H          line    70 file /opt/software/pc2/EB-SW/software/PSI4/1.9-foss-2022a/share/psi4/basis/jun-cc-pvdz-jkfit.gbs 


  //>>>>>>>>>>>>>>>>>>>>>>>>>>>>>>>>>>>//
  //               SSAPT0              //
  //<<<<<<<<<<<<<<<<<<<<<<<<<<<<<<<<<<<//


*** tstart() called on n2cn0837
*** at Sat Feb 10 13:10:37 2024

        SAPT0  
    Ed Hohenstein
     6 June 2009

      Orbital Information
  --------------------------
    NSO        =      1233
    NMO        =      1219
    NRI        =      4343
    NRI (Elst) =      5440
    NOCC A     =        26
    NOCC B     =       171
    FOCC A     =         7
    FOCC B     =        54
    NVIR A     =      1193
    NVIR B     =      1048

    Elst10,r            =    -0.021542986590 [Eh]
    Exch10              =     0.031911328099 [Eh]
    Exch10 (S^2)        =     0.031620622186 [Eh]

    Iter     Energy [mEh]          dE [mEh]         Residual      Time [s]
       1      -2.38199259       2.381992587       7.479942158            19
       2      -2.85182073       0.469828139       2.637544165            37
       3      -2.92818184       0.076361119       0.377104095            53
       4      -2.92379436      -0.004387483       0.114115287            67
       5      -2.92263885      -0.001155515       0.022596874            81
       6      -2.92291332       0.000274472       0.004712561           100
       7      -2.92291548       0.000002165       0.002022097           119
       8      -2.92290460      -0.000010882       0.000769546           136
       9      -2.92290320      -0.000001404       0.000302804           159
      10      -2.92290438       0.000001178       0.000124432           178
      11      -2.92290477       0.000000392       0.000042289           197
      12      -2.92290459      -0.000000175       0.000012715           217
      13      -2.92290455      -0.000000041       0.000003126           236
      14      -2.92290456       0.000000013       0.000000917           255

    CHF Iterations converged


    Iter     Energy [mEh]          dE [mEh]         Residual      Time [s]
       1     -26.51812991      26.518129905      77.580222231            21
       2     -20.16574256      -6.352387346      12.492112767            43
       3     -20.88526239       0.719519830       5.928758357            62
       4     -21.62277006       0.737507670       1.250117237            81
       5     -21.63491944       0.012149378       0.580994149           100
       6     -21.60124154      -0.033677896       0.296865426           119
       7     -21.59791356      -0.003327979       0.204651009           138
       8     -21.60664764       0.008734073       0.124124380           158
       9     -21.60842972       0.001782086       0.071552611           177
      10     -21.60629670      -0.002133027       0.041108595           196
      11     -21.60582238      -0.000474316       0.017472556           216
      12     -21.60620559       0.000383208       0.006899237           235
      13     -21.60628481       0.000079221       0.002981319           255
      14     -21.60626344      -0.000021363       0.001367552           274
      15     -21.60623774      -0.000025705       0.000655317           294
      16     -21.60623927       0.000001527       0.000294759           313
      17     -21.60624527       0.000006002       0.000157154           333
      18     -21.60624562       0.000000351       0.000099143           353
      19     -21.60624402      -0.000001602       0.000049879           373
      20     -21.60624370      -0.000000317       0.000018088           392
      21     -21.60624400       0.000000296       0.000008374           411
      22     -21.60624408       0.000000081       0.000003600           431
      23     -21.60624402      -0.000000053       0.000001911           451
      24     -21.60624401      -0.000000018       0.000000932           471

    CHF Iterations converged

    Ind20,r (A<-B)      =    -0.002922904564 [Eh]
    Ind20,r (B<-A)      =    -0.021606244006 [Eh]
    Ind20,r             =    -0.024529148571 [Eh]
    Exch-Ind20,r (A<-B) =     0.002747991956 [Eh]
    Exch-Ind20,r (B<-A) =     0.006138536711 [Eh]
    Exch-Ind20,r        =     0.008886528667 [Eh]
    Disp20              =    -0.029824140616 [Eh]
    Disp20 (SS)         =    -0.014912070308 [Eh]
    Disp20 (OS)         =    -0.014912070308 [Eh]
    Exch-Disp20         =     0.002319580808 [Eh]
    Exch-Disp20 (SS)    =     0.001415507478 [Eh]
    Exch-Disp20 (OS)    =     0.000904073330 [Eh]

    SAPT Results 
  --------------------------------------------------------------------------------------------------------
    Electrostatics                -21.54298659 [mEh]     -13.51842818 [kcal/mol]     -56.56110350 [kJ/mol]
      Elst10,r                    -21.54298659 [mEh]     -13.51842818 [kcal/mol]     -56.56110350 [kJ/mol]

    Exchange                       31.91132810 [mEh]      20.02466070 [kcal/mol]      83.78318038 [kJ/mol]
      Exch10                       31.91132810 [mEh]      20.02466070 [kcal/mol]      83.78318038 [kJ/mol]
      Exch10(S^2)                  31.62062219 [mEh]      19.84223999 [kcal/mol]      83.01993211 [kJ/mol]

    Induction                     -21.49214847 [mEh]     -13.48652678 [kcal/mol]     -56.42762803 [kJ/mol]
      Ind20,r                     -24.52914857 [mEh]     -15.39227311 [kcal/mol]     -64.40127070 [kJ/mol]
      Exch-Ind20,r                  8.88652867 [mEh]       5.57638093 [kcal/mol]      23.33157780 [kJ/mol]
      delta HF,r (2)               -5.84952856 [mEh]      -3.67063459 [kcal/mol]     -15.35793513 [kJ/mol]

    Dispersion                    -27.50455981 [mEh]     -17.25937185 [kcal/mol]     -72.21321183 [kJ/mol]
      Disp20                      -29.82414062 [mEh]     -18.71493078 [kcal/mol]     -78.30327040 [kJ/mol]
      Exch-Disp20                   2.31958081 [mEh]       1.45555893 [kcal/mol]       6.09005857 [kJ/mol]
      Disp20 (SS)                 -14.91207031 [mEh]      -9.35746539 [kcal/mol]     -39.15163520 [kJ/mol]
      Disp20 (OS)                 -14.91207031 [mEh]      -9.35746539 [kcal/mol]     -39.15163520 [kJ/mol]
      Exch-Disp20 (SS)              1.41550748 [mEh]       0.88824435 [kcal/mol]       3.71641437 [kJ/mol]
      Exch-Disp20 (OS)              0.90407333 [mEh]       0.56731458 [kcal/mol]       2.37364420 [kJ/mol]

  Total HF                        -11.12380696 [mEh]      -6.98029425 [kcal/mol]     -29.20555115 [kJ/mol]
  Total SAPT0                     -38.62836677 [mEh]     -24.23966610 [kcal/mol]    -101.41876297 [kJ/mol]

  Special recipe for scaled SAPT0 (see Manual):
    Electrostatics sSAPT0         -21.54298659 [mEh]     -13.51842818 [kcal/mol]     -56.56110350 [kJ/mol]
    Exchange sSAPT0                31.91132810 [mEh]      20.02466070 [kcal/mol]      83.78318038 [kJ/mol]
    Induction sSAPT0              -21.24479190 [mEh]     -13.33130819 [kcal/mol]     -55.77819345 [kJ/mol]
    Dispersion sSAPT0             -27.43999426 [mEh]     -17.21885636 [kcal/mol]     -72.04369502 [kJ/mol]
  Total sSAPT0                    -38.31644465 [mEh]     -24.04393202 [kcal/mol]    -100.59981158 [kJ/mol]
  --------------------------------------------------------------------------------------------------------

*** tstop() called on n2cn0837 at Sat Feb 10 13:42:55 2024
Module time:
	user time   =   13102.91 seconds =     218.38 minutes
	system time =     797.50 seconds =      13.29 minutes
	total time  =       1938 seconds =      32.30 minutes
Total time:
	user time   =   25177.53 seconds =     419.63 minutes
	system time =    1219.98 seconds =      20.33 minutes
	total time  =       2881 seconds =      48.02 minutes

    Psi4 stopped on: Saturday, 10 February 2024 01:42PM
    Psi4 wall time for execution: 0:48:01.50

*** Psi4 exiting successfully. Buy a developer a beer!
