
    -----------------------------------------------------------------------
          Psi4: An Open-Source Ab Initio Electronic Structure Package
                               Psi4 1.9 release

                         Git: Rev {} zzzzzzz 


    D. G. A. Smith, L. A. Burns, A. C. Simmonett, R. M. Parrish,
    M. C. Schieber, R. Galvelis, P. Kraus, H. Kruse, R. Di Remigio,
    A. Alenaizan, A. M. James, S. Lehtola, J. P. Misiewicz, M. Scheurer,
    R. A. Shaw, J. B. Schriber, Y. Xie, Z. L. Glick, D. A. Sirianni,
    J. S. O'Brien, J. M. Waldrop, A. Kumar, E. G. Hohenstein,
    B. P. Pritchard, B. R. Brooks, H. F. Schaefer III, A. Yu. Sokolov,
    K. Patkowski, A. E. DePrince III, U. Bozkaya, R. A. King,
    F. A. Evangelista, J. M. Turney, T. D. Crawford, C. D. Sherrill,
    J. Chem. Phys. 152(18) 184108 (2020). https://doi.org/10.1063/5.0006002

                            Additional Code Authors
    E. T. Seidl, C. L. Janssen, E. F. Valeev, M. L. Leininger,
    J. F. Gonthier, R. M. Richard, H. R. McAlexander, M. Saitow, X. Wang,
    P. Verma, M. H. Lechner, A. Jiang, S. Behnle, A. G. Heide,
    M. F. Herbst, and D. L. Poole

             Previous Authors, Complete List of Code Contributors,
                       and Citations for Specific Modules
    https://github.com/psi4/psi4/blob/master/codemeta.json
    https://github.com/psi4/psi4/graphs/contributors
    http://psicode.org/psi4manual/master/introduction.html#citing-psifour

    -----------------------------------------------------------------------


    Psi4 started on: Monday, 22 January 2024 10:16PM

    Process ID: 2419623
    Host:       d-16-12-3
    PSIDATADIR: /home/gridsan/tfroembgen/.conda/envs/psi4test/share/psi4
    Memory:     500.0 MiB
    Threads:    12
    
  ==> Input File <==

--------------------------------------------------------------------------
memory 32 GB # how much memory is available ! Depends on the nodes/cores !

molecule dimer {
# monomer A
+1 1    # Charge and multiplicity
C  0.680067 1.417258 -8.215929
C -0.680504 1.419286 -8.215545
N -1.085635 1.420284 -6.897221
C  0.000108 1.423560 -6.115820
C -2.477365 1.469690 -6.429242
N  1.085222 1.420284 -6.897221
H  1.385146 1.409430 -9.033368
H -1.385302 1.419096 -9.033214
H -0.000009 1.425307 -5.034731
C  2.478117 1.403392 -6.432123
H  2.490592 1.430737 -5.341870
H  2.967028 0.489946 -6.779299
H  3.001428 2.278875 -6.823595
H -2.857359 2.491761 -6.509201
H -3.082679 0.799606 -7.042306
H -2.518128 1.142706 -5.389294
--
# monomer B
0 1     # Charge and multiplicity
C   1.22531237526482      0.70753866091955      0.00613762728373
C   1.22532433589282     -0.70753852257020     -0.00619318228664
C   -0.00000567409046      1.41496628609039     -0.00672680580738
C   2.45644923379077      1.41832825917820      0.00902448468363
C   0.00001130712078     -1.41497612663474      0.00347275151708
C   -1.22530046906674      0.70754574598412      0.00838914760619
C   2.45643823516184     -1.41832293188077     -0.00843833914343
C   -0.00000085313587      2.83680140328112     -0.00913035594137
C   3.68182717731192      0.70931832800114     -0.00808954934571
C   2.45512052870677      2.83422403348893     -0.00819210630633
C   3.68182158506039     -0.70933346742900      0.00798293467272
C   -1.22531311884624     -0.70752714354401     -0.00512042085974
C   1.22670006104402      3.54346985599427      0.00816696660346
C   0.00000526469929     -2.83678176723568      0.00832091913869
C   -2.45643555300670      1.41831729028492      0.00842454345199
C   2.45512389762097     -2.83422965658853      0.00783102630520
C   -1.22671388474763      3.54346943575023      0.00827029982280
C   4.91451777504333      1.42717324448953     -0.00160886631602
C   3.69315067131765      3.54279566454522     -0.00155906667985
C   -2.45643712022637     -1.41831290883911     -0.00846337726810
C   1.22670532178455     -3.54347386990643     -0.00780316414624
C   -2.45512491866593      2.83421703463423     -0.00818572995999
C   4.91452486062398     -1.42718653794377      0.00136387641845
C   1.22142509354026      4.97013443726031      0.00150231067809
C   4.89300870916237      2.82518837202648     -0.00039219795739
C   -1.22669652864725     -3.54347062507680     -0.00753595973677
C   -3.68181849668397      0.70932533873199     -0.00807686886569
C   3.69314758099218     -3.54280096939050      0.00148176697923
C   -1.22143177215231      4.97012866986289      0.00168580605083
C   6.13477145276790      0.68054831910577     -0.00083909176631
C   3.65678936045204      4.97295361556775     -0.00065042889723
C   -2.45512642789169     -2.83421472106065      0.00758666850712
C   -3.68181869921921     -0.70932533146830      0.00810055625144
C   4.89301309775526     -2.82519973363176      0.00021895393805
C   -0.00000059327114      5.65044773803267      0.00045449734393
C   6.13477559217374     -0.68055448207492      0.00042622874941
C   2.47813196269732      5.65357712333155      0.00063835075260
C   1.22142288457925     -4.97012668293268     -0.00129718634452
C   -3.69316190412301      3.54279732619245     -0.00139355922051
C   -1.22142804110313     -4.97011793159564     -0.00140994817719
C   -4.91452132810043      1.42717581899491     -0.00153192130862
C   3.65678749952045     -4.97295485423912      0.00080007163680
C   -2.47813805026426      5.65357479452875      0.00092287576113
C   -3.69314125872231     -3.54278984697859      0.00136564082345
C   -4.91451200321153     -1.42718062802730      0.00139857359209
C   -0.00000552908399     -5.65043791501335      0.00005899322272
C   -4.89302000425900      2.82518897091939     -0.00040227981744
C   2.47812647313991     -5.65357317188818     -0.00029052915548
C   -3.65679823041642      4.97295655404175     -0.00047374852278
C   -4.89299899901461     -2.82519139505969      0.00006491824035
C   -2.47812801824129     -5.65356579800621     -0.00056571680280
C   -6.13477002348955      0.68054913825639     -0.00086464346868
C   -3.65678835334731     -4.97294365097028      0.00058578382008
C   -6.13476456307132     -0.68055354348201      0.00040575295444
H   5.83528897565761      3.36927626695423      0.00396712770529
H   7.07385965258860      1.22821762089947     -0.00037744837300
H   4.60066374401555      5.51238117445323     -0.00014522814529
H   5.83528386714679     -3.36930568472863     -0.00423551337640
H   -0.00001167146422      6.73853104613662     -0.00389474766392
H   7.07386165167227     -1.22822657074368     -0.00008250934481
H   2.47331421164041      6.74068466339473      0.00017162982210
H   4.60066897122302     -5.51237575717576      0.00039007446835
H   -2.47331820069565      6.74068209160650      0.00047297644710
H   -0.00000978838621     -6.73852780445195      0.00458867820736
H   -5.83530143450167      3.36927132229595      0.00410314985360
H   2.47330840367253     -6.74068500242887      0.00027980126949
H   -4.60067436136587      5.51237839860371      0.00002010017831
H   -5.83527902699321     -3.36928859177951     -0.00451481925734
H   -2.47329986759855     -6.74067870613986     -0.00016951527498
H   -7.07385728692578      1.22822084484047     -0.00046143985387
H   -4.60067330624313     -5.51236229778631      0.00021776644566
H   -7.07385645456741     -1.22822025997701     -0.00017736581114

    units angstrom      # Angstroms are the default
    no_reorient         # Geometry fixed, default
    symmetry c1         # C1 symmetry, default
}

set {
    scf_type DF         # Density fitting, faster than exact integrals
    freeze_core True    # Freeze core electrons
    basis jun-cc-pVDZ   # Jun-cc-pVDZ basis set, recommended for sSAPT0 in https://doi.org/10.1063/1.4867135
}

energy('ssapt0')        # Compute sSAPT0 energy, includes also SAPT0
--------------------------------------------------------------------------

  Memory set to  29.802 GiB by Python driver.

Scratch directory: /state/partition1/slurm_tmp/24798308.4294967291.0/
   => Loading Basis Set <=

    Name: JUN-CC-PVDZ
    Role: ORBITAL
    Keyword: BASIS
    atoms 1-2, 4-5, 10, 17-70 entry C          line   164 file /home/gridsan/tfroembgen/.conda/envs/psi4test/share/psi4/basis/jun-cc-pvdz.gbs 
    atoms 3, 6                entry N          line   198 file /home/gridsan/tfroembgen/.conda/envs/psi4test/share/psi4/basis/jun-cc-pvdz.gbs 
    atoms 7-9, 11-16, 71-88   entry H          line    36 file /home/gridsan/tfroembgen/.conda/envs/psi4test/share/psi4/basis/jun-cc-pvdz.gbs 

   => Loading Basis Set <=

    Name: JUN-CC-PVDZ
    Role: ORBITAL
    Keyword: BASIS
    atoms 1-2, 4-5, 10, 17-70 entry C          line   164 file /home/gridsan/tfroembgen/.conda/envs/psi4test/share/psi4/basis/jun-cc-pvdz.gbs 
    atoms 3, 6                entry N          line   198 file /home/gridsan/tfroembgen/.conda/envs/psi4test/share/psi4/basis/jun-cc-pvdz.gbs 
    atoms 7-9, 11-16, 71-88   entry H          line    36 file /home/gridsan/tfroembgen/.conda/envs/psi4test/share/psi4/basis/jun-cc-pvdz.gbs 


  //>>>>>>>>>>>>>>>>>>>>>>>>>>>>>>>>>>>//
  //              Dimer HF             //
  //<<<<<<<<<<<<<<<<<<<<<<<<<<<<<<<<<<<//

   => Libint2 <=

    Primary   basis highest AM E, G, H:  7, 7, 4
    Auxiliary basis highest AM E, G, H:  7, 7, 5
    Onebody   basis highest AM E, G, H:  7, 7, 5
    Solid Harmonics ordering:            gaussian

*** tstart() called on d-16-12-3
*** at Mon Jan 22 22:16:35 2024

   => Loading Basis Set <=

    Name: JUN-CC-PVDZ
    Role: ORBITAL
    Keyword: BASIS
    atoms 1-2, 4-5, 10, 17-70 entry C          line   164 file /home/gridsan/tfroembgen/.conda/envs/psi4test/share/psi4/basis/jun-cc-pvdz.gbs 
    atoms 3, 6                entry N          line   198 file /home/gridsan/tfroembgen/.conda/envs/psi4test/share/psi4/basis/jun-cc-pvdz.gbs 
    atoms 7-9, 11-16, 71-88   entry H          line    36 file /home/gridsan/tfroembgen/.conda/envs/psi4test/share/psi4/basis/jun-cc-pvdz.gbs 


         ---------------------------------------------------------
                                   SCF
               by Justin Turney, Rob Parrish, Andy Simmonett
                          and Daniel G. A. Smith
                              RHF Reference
                       12 Threads,  30517 MiB Core
         ---------------------------------------------------------

  ==> Geometry <==

    Molecular point group: c1
    Full point group: C1

    Geometry (in Angstrom), charge = 1, multiplicity = 1:

       Center              X                  Y                   Z               Mass       
    ------------   -----------------  -----------------  -----------------  -----------------
         C            0.680066520158     1.235968212970    -7.325574220489    12.000000000000
         C           -0.680504479842     1.237996212970    -7.325190220489    12.000000000000
         N           -1.085635479842     1.238994212970    -6.006866220489    14.003074004430
         C            0.000107520158     1.242270212970    -5.225465220489    12.000000000000
         C           -2.477365479842     1.288400212970    -5.538887220489    12.000000000000
         N            1.085221520158     1.238994212970    -6.006866220489    14.003074004430
         H            1.385145520158     1.228140212970    -8.143013220489     1.007825032230
         H           -1.385302479842     1.237806212970    -8.142859220489     1.007825032230
         H           -0.000009479842     1.244017212970    -4.144376220489     1.007825032230
         C            2.478116520158     1.222102212970    -5.541768220489    12.000000000000
         H            2.490591520158     1.249447212970    -4.451515220489     1.007825032230
         H            2.967027520158     0.308656212970    -5.888944220489     1.007825032230
         H            3.001427520158     2.097585212970    -5.933240220489     1.007825032230
         H           -2.857359479842     2.310471212970    -5.618846220489     1.007825032230
         H           -3.082679479842     0.618316212970    -6.151951220489     1.007825032230
         H           -2.518128479842     0.961416212970    -4.498939220489     1.007825032230
         C            1.225311895423     0.526248873889     0.896492406795    12.000000000000
         C            1.225323856051    -0.888828309601     0.884161597225    12.000000000000
         C           -0.000006153932     1.233676499060     0.883627973704    12.000000000000
         C            2.456448753949     1.237038472148     0.899379264195    12.000000000000
         C            0.000010827279    -1.596265913665     0.893827531028    12.000000000000
         C           -1.225300948908     0.526255958954     0.898743927117    12.000000000000
         C            2.456437755320    -1.599612718911     0.881916440368    12.000000000000
         C           -0.000001332978     2.655511616251     0.881224423570    12.000000000000
         C            3.681826697470     0.528028540971     0.882265230166    12.000000000000
         C            2.455120048865     2.652934246459     0.882162673205    12.000000000000
         C            3.681821105219    -0.890623254459     0.898337714184    12.000000000000
         C           -1.225313598688    -0.888816930574     0.885234358652    12.000000000000
         C            1.226699581202     3.362180068964     0.898521746115    12.000000000000
         C            0.000004784858    -3.018071554266     0.898675698650    12.000000000000
         C           -2.456436032848     1.237027503255     0.898779322963    12.000000000000
         C            2.455123417779    -3.015519443619     0.898185805816    12.000000000000
         C           -1.226714364589     3.362179648720     0.898625079334    12.000000000000
         C            4.914517295202     1.245883457459     0.888745913195    12.000000000000
         C            3.693150191476     3.361505877515     0.888795712831    12.000000000000
         C           -2.456437600068    -1.599602695869     0.881891402243    12.000000000000
         C            1.226704841943    -3.724763656937     0.882551615365    12.000000000000
         C           -2.455125398508     2.652927247604     0.882169049551    12.000000000000
         C            4.914524380782    -1.608476324974     0.891718655930    12.000000000000
         C            1.221424613699     4.788844650230     0.891857090189    12.000000000000
         C            4.893008229321     2.643898584996     0.889962581554    12.000000000000
         C           -1.226697008489    -3.724760412107     0.882818819775    12.000000000000
         C           -3.681818976526     0.528035551702     0.882277910646    12.000000000000
         C            3.693147101150    -3.724090756421     0.891836546491    12.000000000000
         C           -1.221432251994     4.788838882833     0.892040585562    12.000000000000
         C            6.134770972926     0.499258532075     0.889515687745    12.000000000000
         C            3.656788880610     4.791663828537     0.889704350614    12.000000000000
         C           -2.455126907733    -3.015504508091     0.897941448018    12.000000000000
         C           -3.681819179061    -0.890615118499     0.898455335763    12.000000000000
         C            4.893012617914    -3.006489520662     0.890573733449    12.000000000000
         C           -0.000001073113     5.469157951002     0.890809276855    12.000000000000
         C            6.134775112332    -0.861844269105     0.890781008261    12.000000000000
         C            2.478131482856     5.472287336301     0.890993130264    12.000000000000
         C            1.221422404738    -5.151416469963     0.889057593167    12.000000000000
         C           -3.693162383965     3.361507539162     0.888961220291    12.000000000000
         C           -1.221428520945    -5.151407718626     0.888944831334    12.000000000000
         C           -4.914521807942     1.245886031965     0.888822858203    12.000000000000
         C            3.656787019679    -5.154244641269     0.891154851148    12.000000000000
         C           -2.478138530106     5.472285007498     0.891277655272    12.000000000000
         C           -3.693141738564    -3.724079634009     0.891720420335    12.000000000000
         C           -4.914512483053    -1.608470415058     0.891753353103    12.000000000000
         C           -0.000006008926    -5.831727702044     0.890413772734    12.000000000000
         C           -4.893020484101     2.643899183889     0.889952499694    12.000000000000
         C            2.478125993298    -5.834862958919     0.890064250356    12.000000000000
         C           -3.656798710258     4.791666767011     0.889881030989    12.000000000000
         C           -4.892999478856    -3.006481182090     0.890419697752    12.000000000000
         C           -2.478128498083    -5.834855585037     0.889789062708    12.000000000000
         C           -6.134770503331     0.499259351226     0.889490136043    12.000000000000
         C           -3.656788833189    -5.154233438001     0.890940563331    12.000000000000
         C           -6.134765042913    -0.861843330512     0.890760532466    12.000000000000
         H            5.835288495816     3.187986479924     0.894321907217     1.007825032230
         H            7.073859172747     1.046927833869     0.889977331138     1.007825032230
         H            4.600663264174     5.331091387423     0.890209551366     1.007825032230
         H            5.835283387305    -3.550595471759     0.886119266135     1.007825032230
         H           -0.000012151306     6.557241259106     0.886460031847     1.007825032230
         H            7.073861171831    -1.409516357774     0.890272270166     1.007825032230
         H            2.473313731799     6.559394876364     0.890526409333     1.007825032230
         H            4.600668491381    -5.693665544206     0.890744853980     1.007825032230
         H           -2.473318680537     6.559392304576     0.890827755958     1.007825032230
         H           -0.000010268228    -6.919817591482     0.894943457719     1.007825032230
         H           -5.835301914343     3.187981535266     0.894457929365     1.007825032230
         H            2.473307923831    -6.921974789459     0.890634580781     1.007825032230
         H           -4.600674841208     5.331088611573     0.890374879690     1.007825032230
         H           -5.835279506835    -3.550578378810     0.885839960254     1.007825032230
         H           -2.473300347440    -6.921968493170     0.890185264236     1.007825032230
         H           -7.073857766768     1.046931057810     0.889893339657     1.007825032230
         H           -4.600673786085    -5.693652084817     0.890572545957     1.007825032230
         H           -7.073856934409    -1.409510047007     0.890177413700     1.007825032230

  Running in c1 symmetry.

  Rotational constants: A =      0.00142  B =      0.00140  C =      0.00107 [cm^-1]
  Rotational constants: A =     42.55288  B =     42.11469  C =     31.96047 [MHz]
  Nuclear repulsion = 7885.680138990158412

  Charge       = 1
  Multiplicity = 1
  Electrons    = 394
  Nalpha       = 197
  Nbeta        = 197

  ==> Algorithm <==

  SCF Algorithm Type is DF.
  DIIS enabled.
  MOM disabled.
  Fractional occupation disabled.
  Guess Type is SAD.
  Energy threshold   = 1.00e-08
  Density threshold  = 1.00e-08
  Integral threshold = 1.00e-12

  ==> Primary Basis <==

  Basis Set: JUN-CC-PVDZ
    Blend: JUN-CC-PVDZ
    Number of shells: 569
    Number of basis functions: 1233
    Number of Cartesian functions: 1294
    Spherical Harmonics?: true
    Max angular momentum: 2

   => Loading Basis Set <=

    Name: (JUN-CC-PVDZ AUX)
    Role: JKFIT
    Keyword: DF_BASIS_SCF
    atoms 1-2, 4-5, 10, 17-70 entry C          line   146 file /home/gridsan/tfroembgen/.conda/envs/psi4test/share/psi4/basis/jun-cc-pvdz-jkfit.gbs 
    atoms 3, 6                entry N          line   202 file /home/gridsan/tfroembgen/.conda/envs/psi4test/share/psi4/basis/jun-cc-pvdz-jkfit.gbs 
    atoms 7-9, 11-16, 71-88   entry H          line    70 file /home/gridsan/tfroembgen/.conda/envs/psi4test/share/psi4/basis/jun-cc-pvdz-jkfit.gbs 

  ==> Integral Setup <==

  ==> DiskDFJK: Density-Fitted J/K Matrices <==

    J tasked:                  Yes
    K tasked:                  Yes
    wK tasked:                  No
    OpenMP threads:             12
    Integrals threads:          12
    Memory [MiB]:            22888
    Algorithm:                Core
    Integral Cache:           SAVE
    Schwarz Cutoff:          1E-12
    Fitting Condition:       1E-10

   => Auxiliary Basis Set <=

  Basis Set: (JUN-CC-PVDZ AUX)
    Blend: JUN-CC-PVDZ-JKFIT
    Number of shells: 1890
    Number of basis functions: 5440
    Number of Cartesian functions: 6226
    Spherical Harmonics?: true
    Max angular momentum: 3

  Minimum eigenvalue in the overlap matrix is 8.3852787923E-10.
  Reciprocal condition number of the overlap matrix is 3.7464542619E-11.
    Using canonical orthogonalization.
  Overall, 14 of 1233 possible MOs eliminated.


  ==> Pre-Iterations <==

  SCF Guess: Superposition of Atomic Densities via on-the-fly atomic UHF (no occupation information).

   -------------------------
    Irrep   Nso     Nmo    
   -------------------------
     A       1233    1219 
   -------------------------
    Total    1233    1219
   -------------------------

  ==> Iterations <==

                           Total Energy        Delta E     RMS |[F,P]|

   @DF-RHF iter SAD: -2365.39535740509928   -2.36540e+03   0.00000e+00 
   @DF-RHF iter   1: -2358.19420059048844    7.20116e+00   9.46949e-04 DIIS/ADIIS
   @DF-RHF iter   2: -2359.09314803205325   -8.98947e-01   3.22296e-04 DIIS/ADIIS
   @DF-RHF iter   3: -2359.18456067836951   -9.14126e-02   1.18030e-04 DIIS/ADIIS
   @DF-RHF iter   4: -2359.19767217171284   -1.31115e-02   4.41301e-05 DIIS
   @DF-RHF iter   5: -2359.19956897744350   -1.89681e-03   9.80577e-06 DIIS
   @DF-RHF iter   6: -2359.19974276009361   -1.73783e-04   5.01102e-06 DIIS
   @DF-RHF iter   7: -2359.19980954718312   -6.67871e-05   2.22988e-06 DIIS
   @DF-RHF iter   8: -2359.19982959584740   -2.00487e-05   1.13988e-06 DIIS
   @DF-RHF iter   9: -2359.19983445066191   -4.85481e-06   2.62398e-07 DIIS
   @DF-RHF iter  10: -2359.19983469262843   -2.41967e-07   9.02688e-08 DIIS
   @DF-RHF iter  11: -2359.19983471091791   -1.82895e-08   3.53918e-08 DIIS
   @DF-RHF iter  12: -2359.19983471495425   -4.03634e-09   1.83242e-08 DIIS
   @DF-RHF iter  13: -2359.19983471563501   -6.80757e-10   8.18207e-09 DIIS
  Energy and wave function converged.


  ==> Post-Iterations <==

    Orbital Energies [Eh]
    ---------------------

    Doubly Occupied:                                                      

       1A    -15.822185     2A    -15.821669     3A    -11.516771  
       4A    -11.448716     5A    -11.447161     6A    -11.436969  
       7A    -11.436886     8A    -11.323977     9A    -11.323250  
      10A    -11.322965    11A    -11.322477    12A    -11.322106  
      13A    -11.322018    14A    -11.321515    15A    -11.321498  
      16A    -11.321103    17A    -11.320604    18A    -11.320460  
      19A    -11.319968    20A    -11.319944    21A    -11.319647  
      22A    -11.319635    23A    -11.319473    24A    -11.319444  
      25A    -11.319376    26A    -11.319367    27A    -11.318759  
      28A    -11.318731    29A    -11.318657    30A    -11.318482  
      31A    -11.318476    32A    -11.317772    33A    -11.317769  
      34A    -11.317308    35A    -11.317266    36A    -11.316865  
      37A    -11.316861    38A    -11.316585    39A    -11.316491  
      40A    -11.316074    41A    -11.316056    42A    -11.315353  
      43A    -11.315309    44A    -11.312676    45A    -11.312227  
      46A    -11.312220    47A    -11.311894    48A    -11.311885  
      49A    -11.310786    50A    -11.310780    51A    -11.310437  
      52A    -11.310430    53A    -11.309888    54A    -11.309884  
      55A    -11.308938    56A    -11.308931    57A    -11.308719  
      58A    -11.308007    59A    -11.307999    60A    -11.306564  
      61A    -11.306556    62A     -1.566009    63A     -1.421500  
      64A     -1.306278    65A     -1.281031    66A     -1.280857  
      67A     -1.250018    68A     -1.250012    69A     -1.242263  
      70A     -1.226723    71A     -1.217336    72A     -1.209299  
      73A     -1.196529    74A     -1.196407    75A     -1.176854  
      76A     -1.172874    77A     -1.172852    78A     -1.143095  
      79A     -1.143076    80A     -1.139290    81A     -1.125467  
      82A     -1.125440    83A     -1.106405    84A     -1.099322  
      85A     -1.085429    86A     -1.082968    87A     -1.082875  
      88A     -1.077274    89A     -1.072054    90A     -1.047428  
      91A     -1.047396    92A     -1.021522    93A     -1.021521  
      94A     -1.010626    95A     -0.984499    96A     -0.954172  
      97A     -0.954103    98A     -0.949068    99A     -0.947187  
     100A     -0.947083   101A     -0.941796   102A     -0.941786  
     103A     -0.921492   104A     -0.904670   105A     -0.896146  
     106A     -0.878105   107A     -0.877295   108A     -0.872422  
     109A     -0.872397   110A     -0.853916   111A     -0.853897  
     112A     -0.838256   113A     -0.807345   114A     -0.805337  
     115A     -0.804458   116A     -0.800249   117A     -0.793907  
     118A     -0.793817   119A     -0.791457   120A     -0.791365  
     121A     -0.778153   122A     -0.776465   123A     -0.773897  
     124A     -0.770294   125A     -0.758662   126A     -0.758549  
     127A     -0.753563   128A     -0.753456   129A     -0.720426  
     130A     -0.716850   131A     -0.713169   132A     -0.713038  
     133A     -0.711638   134A     -0.709316   135A     -0.709311  
     136A     -0.704845   137A     -0.698830   138A     -0.698808  
     139A     -0.689769   140A     -0.687564   141A     -0.687545  
     142A     -0.669270   143A     -0.663600   144A     -0.661970  
     145A     -0.659177   146A     -0.659068   147A     -0.653908  
     148A     -0.651802   149A     -0.651748   150A     -0.643743  
     151A     -0.637934   152A     -0.637667   153A     -0.626407  
     154A     -0.626328   155A     -0.626042   156A     -0.625945  
     157A     -0.618891   158A     -0.613862   159A     -0.613772  
     160A     -0.598806   161A     -0.598802   162A     -0.597739  
     163A     -0.597626   164A     -0.589813   165A     -0.589248  
     166A     -0.584264   167A     -0.582489   168A     -0.582410  
     169A     -0.559474   170A     -0.555322   171A     -0.552447  
     172A     -0.548165   173A     -0.545203   174A     -0.541499  
     175A     -0.541408   176A     -0.531667   177A     -0.531506  
     178A     -0.512372   179A     -0.511724   180A     -0.511568  
     181A     -0.498604   182A     -0.498574   183A     -0.465659  
     184A     -0.465653   185A     -0.464371   186A     -0.434660  
     187A     -0.434652   188A     -0.409219   189A     -0.399649  
     190A     -0.398601   191A     -0.398532   192A     -0.370861  
     193A     -0.356812   194A     -0.345402   195A     -0.345359  
     196A     -0.284930   197A     -0.284874  

    Virtual:                                                              

     198A     -0.056457   199A     -0.051164   200A     -0.046083  
     201A     -0.045958   202A     -0.044295   203A     -0.036344  
     204A     -0.022030   205A     -0.020489   206A     -0.019087  
     207A     -0.012681   208A     -0.004759   209A     -0.001025  
     210A      0.001788   211A      0.001974   212A      0.003595  
     213A      0.003872   214A      0.003969   215A      0.005218  
     216A      0.007630   217A      0.009577   218A      0.010386  
     219A      0.011274   220A      0.014449   221A      0.016975  
     222A      0.025225   223A      0.025763   224A      0.025808  
     225A      0.027429   226A      0.027555   227A      0.028674  
     228A      0.029436   229A      0.031157   230A      0.033142  
     231A      0.038292   232A      0.040169   233A      0.041127  
     234A      0.041731   235A      0.041890   236A      0.044057  
     237A      0.050460   238A      0.051378   239A      0.052889  
     240A      0.054528   241A      0.059301   242A      0.059386  
     243A      0.061306   244A      0.061424   245A      0.062886  
     246A      0.066575   247A      0.069207   248A      0.069933  
     249A      0.071579   250A      0.073359   251A      0.076132  
     252A      0.080245   253A      0.080338   254A      0.084279  
     255A      0.084429   256A      0.085084   257A      0.085167  
     258A      0.086604   259A      0.088338   260A      0.092029  
     261A      0.093508   262A      0.098698   263A      0.099262  
     264A      0.100712   265A      0.101689   266A      0.105515  
     267A      0.106181   268A      0.107626   269A      0.109535  
     270A      0.109761   271A      0.112258   272A      0.118252  
     273A      0.120602   274A      0.121048   275A      0.123457  
     276A      0.126514   277A      0.127467   278A      0.127912  
     279A      0.128800   280A      0.129724   281A      0.131856  
     282A      0.133022   283A      0.134739   284A      0.135515  
     285A      0.135931   286A      0.137997   287A      0.140655  
     288A      0.141604   289A      0.144288   290A      0.145860  
     291A      0.148423   292A      0.151997   293A      0.152436  
     294A      0.154808   295A      0.158035   296A      0.159032  
     297A      0.159471   298A      0.160138   299A      0.160544  
     300A      0.160877   301A      0.161194   302A      0.162604  
     303A      0.163011   304A      0.164010   305A      0.165431  
     306A      0.167451   307A      0.169917   308A      0.171647  
     309A      0.173347   310A      0.174783   311A      0.175367  
     312A      0.176315   313A      0.176466   314A      0.178190  
     315A      0.178794   316A      0.179825   317A      0.181079  
     318A      0.181755   319A      0.185031   320A      0.186729  
     321A      0.189808   322A      0.191125   323A      0.193755  
     324A      0.195195   325A      0.197447   326A      0.199127  
     327A      0.199690   328A      0.200658   329A      0.201924  
     330A      0.203129   331A      0.203806   332A      0.206518  
     333A      0.210323   334A      0.211137   335A      0.211467  
     336A      0.211577   337A      0.214482   338A      0.215445  
     339A      0.215544   340A      0.218143   341A      0.218364  
     342A      0.222235   343A      0.224067   344A      0.224660  
     345A      0.227219   346A      0.228310   347A      0.230401  
     348A      0.233473   349A      0.235514   350A      0.237280  
     351A      0.238724   352A      0.242096   353A      0.243223  
     354A      0.245977   355A      0.246518   356A      0.247216  
     357A      0.248818   358A      0.251471   359A      0.251778  
     360A      0.252916   361A      0.253946   362A      0.254733  
     363A      0.255656   364A      0.256588   365A      0.256937  
     366A      0.258306   367A      0.259071   368A      0.259602  
     369A      0.261593   370A      0.264148   371A      0.265638  
     372A      0.265987   373A      0.266564   374A      0.267789  
     375A      0.269051   376A      0.272079   377A      0.274536  
     378A      0.278423   379A      0.279127   380A      0.280056  
     381A      0.281194   382A      0.283456   383A      0.284186  
     384A      0.286578   385A      0.288581   386A      0.289748  
     387A      0.290162   388A      0.293973   389A      0.295539  
     390A      0.295969   391A      0.296796   392A      0.298010  
     393A      0.298630   394A      0.301965   395A      0.302909  
     396A      0.305202   397A      0.308297   398A      0.309979  
     399A      0.312071   400A      0.313452   401A      0.315425  
     402A      0.317140   403A      0.317711   404A      0.318752  
     405A      0.322590   406A      0.326307   407A      0.328084  
     408A      0.328950   409A      0.329630   410A      0.330004  
     411A      0.332388   412A      0.332919   413A      0.333762  
     414A      0.335853   415A      0.336998   416A      0.337983  
     417A      0.339902   418A      0.340472   419A      0.342564  
     420A      0.344112   421A      0.345333   422A      0.347405  
     423A      0.348956   424A      0.349339   425A      0.349720  
     426A      0.350689   427A      0.350954   428A      0.352568  
     429A      0.355473   430A      0.356364   431A      0.357787  
     432A      0.360547   433A      0.361680   434A      0.362654  
     435A      0.365021   436A      0.365797   437A      0.367748  
     438A      0.369299   439A      0.371039   440A      0.378646  
     441A      0.379295   442A      0.381607   443A      0.382731  
     444A      0.385848   445A      0.386039   446A      0.387519  
     447A      0.387631   448A      0.392878   449A      0.393747  
     450A      0.395894   451A      0.396893   452A      0.398258  
     453A      0.399397   454A      0.401056   455A      0.401444  
     456A      0.402189   457A      0.403729   458A      0.404886  
     459A      0.408807   460A      0.410895   461A      0.414366  
     462A      0.414716   463A      0.416718   464A      0.418357  
     465A      0.421274   466A      0.423029   467A      0.423825  
     468A      0.425992   469A      0.430674   470A      0.435579  
     471A      0.435734   472A      0.437658   473A      0.437917  
     474A      0.439414   475A      0.439546   476A      0.442754  
     477A      0.443200   478A      0.448147   479A      0.448518  
     480A      0.454020   481A      0.454326   482A      0.454896  
     483A      0.456278   484A      0.458356   485A      0.460926  
     486A      0.462151   487A      0.467304   488A      0.468333  
     489A      0.469393   490A      0.477958   491A      0.479579  
     492A      0.480276   493A      0.482797   494A      0.483885  
     495A      0.486313   496A      0.489961   497A      0.490149  
     498A      0.490733   499A      0.492685   500A      0.492940  
     501A      0.495327   502A      0.497679   503A      0.497870  
     504A      0.501137   505A      0.503064   506A      0.503540  
     507A      0.510417   508A      0.511393   509A      0.512567  
     510A      0.524304   511A      0.527349   512A      0.529762  
     513A      0.537669   514A      0.538037   515A      0.538956  
     516A      0.544570   517A      0.554971   518A      0.555007  
     519A      0.560357   520A      0.562184   521A      0.567923  
     522A      0.568120   523A      0.584267   524A      0.585562  
     525A      0.591145   526A      0.592632   527A      0.594851  
     528A      0.607665   529A      0.607823   530A      0.610653  
     531A      0.618036   532A      0.618451   533A      0.621209  
     534A      0.635225   535A      0.646347   536A      0.657082  
     537A      0.657155   538A      0.667577   539A      0.671575  
     540A      0.673752   541A      0.679124   542A      0.681742  
     543A      0.684447   544A      0.684905   545A      0.685280  
     546A      0.687015   547A      0.697871   548A      0.698388  
     549A      0.699840   550A      0.700961   551A      0.707180  
     552A      0.711950   553A      0.714712   554A      0.718723  
     555A      0.728147   556A      0.732068   557A      0.732660  
     558A      0.737287   559A      0.740262   560A      0.747181  
     561A      0.748817   562A      0.749784   563A      0.756082  
     564A      0.756503   565A      0.761277   566A      0.764429  
     567A      0.764822   568A      0.768315   569A      0.768988  
     570A      0.771158   571A      0.776165   572A      0.778989  
     573A      0.781041   574A      0.781788   575A      0.788059  
     576A      0.790217   577A      0.794073   578A      0.799726  
     579A      0.800672   580A      0.804410   581A      0.806230  
     582A      0.807605   583A      0.810518   584A      0.811463  
     585A      0.816171   586A      0.817538   587A      0.819239  
     588A      0.819487   589A      0.820061   590A      0.829994  
     591A      0.830934   592A      0.834086   593A      0.836264  
     594A      0.840035   595A      0.840641   596A      0.842595  
     597A      0.843191   598A      0.845497   599A      0.848093  
     600A      0.849598   601A      0.851534   602A      0.851997  
     603A      0.855555   604A      0.857005   605A      0.857997  
     606A      0.860275   607A      0.862105   608A      0.864897  
     609A      0.865052   610A      0.869072   611A      0.869982  
     612A      0.872751   613A      0.876494   614A      0.877522  
     615A      0.879379   616A      0.882820   617A      0.884853  
     618A      0.885480   619A      0.886865   620A      0.888172  
     621A      0.892343   622A      0.897504   623A      0.899876  
     624A      0.900470   625A      0.911592   626A      0.912369  
     627A      0.912965   628A      0.913362   629A      0.914661  
     630A      0.914920   631A      0.917130   632A      0.918693  
     633A      0.919778   634A      0.921687   635A      0.922756  
     636A      0.929036   637A      0.929587   638A      0.935563  
     639A      0.940478   640A      0.941361   641A      0.946580  
     642A      0.957186   643A      0.957340   644A      0.958575  
     645A      0.960694   646A      0.960886   647A      0.965100  
     648A      0.970279   649A      0.973009   650A      0.974292  
     651A      0.976910   652A      0.978661   653A      0.980438  
     654A      0.980740   655A      0.982097   656A      0.982446  
     657A      0.983597   658A      0.986082   659A      0.986445  
     660A      0.987034   661A      0.987728   662A      0.989995  
     663A      0.990672   664A      0.991265   665A      0.994742  
     666A      0.997334   667A      0.998981   668A      1.002561  
     669A      1.003305   670A      1.004288   671A      1.008404  
     672A      1.011543   673A      1.012680   674A      1.014700  
     675A      1.016632   676A      1.017659   677A      1.023608  
     678A      1.024786   679A      1.025758   680A      1.027414  
     681A      1.028887   682A      1.029764   683A      1.034558  
     684A      1.036031   685A      1.044741   686A      1.045340  
     687A      1.047344   688A      1.049747   689A      1.052488  
     690A      1.055188   691A      1.057041   692A      1.057282  
     693A      1.058906   694A      1.060024   695A      1.061072  
     696A      1.062053   697A      1.066970   698A      1.067383  
     699A      1.072091   700A      1.075532   701A      1.076678  
     702A      1.078225   703A      1.080606   704A      1.080709  
     705A      1.081746   706A      1.084033   707A      1.085408  
     708A      1.095082   709A      1.097354   710A      1.108478  
     711A      1.114277   712A      1.114516   713A      1.116878  
     714A      1.118149   715A      1.118480   716A      1.123020  
     717A      1.123486   718A      1.125378   719A      1.132753  
     720A      1.138114   721A      1.138932   722A      1.139400  
     723A      1.141566   724A      1.142892   725A      1.152670  
     726A      1.154223   727A      1.159130   728A      1.159310  
     729A      1.161567   730A      1.162640   731A      1.164148  
     732A      1.164326   733A      1.179766   734A      1.181718  
     735A      1.182694   736A      1.184424   737A      1.200125  
     738A      1.201833   739A      1.203466   740A      1.203702  
     741A      1.204099   742A      1.205720   743A      1.208330  
     744A      1.209032   745A      1.209210   746A      1.219241  
     747A      1.226259   748A      1.235886   749A      1.236606  
     750A      1.237946   751A      1.239351   752A      1.243413  
     753A      1.243737   754A      1.250786   755A      1.251064  
     756A      1.252051   757A      1.252173   758A      1.260180  
     759A      1.261671   760A      1.263025   761A      1.263494  
     762A      1.270391   763A      1.270528   764A      1.274659  
     765A      1.282401   766A      1.284007   767A      1.285478  
     768A      1.287232   769A      1.288416   770A      1.294269  
     771A      1.294317   772A      1.294532   773A      1.296358  
     774A      1.300424   775A      1.303634   776A      1.304742  
     777A      1.309802   778A      1.312264   779A      1.314192  
     780A      1.322235   781A      1.331945   782A      1.340847  
     783A      1.344612   784A      1.346089   785A      1.347325  
     786A      1.348346   787A      1.349345   788A      1.353779  
     789A      1.354094   790A      1.359714   791A      1.363396  
     792A      1.365570   793A      1.367543   794A      1.368950  
     795A      1.371570   796A      1.373992   797A      1.378547  
     798A      1.378881   799A      1.380165   800A      1.381405  
     801A      1.381749   802A      1.384383   803A      1.391201  
     804A      1.391685   805A      1.392808   806A      1.403925  
     807A      1.404320   808A      1.414436   809A      1.415195  
     810A      1.440631   811A      1.457108   812A      1.457932  
     813A      1.461091   814A      1.461139   815A      1.474258  
     816A      1.481205   817A      1.491856   818A      1.492326  
     819A      1.516129   820A      1.517099   821A      1.532986  
     822A      1.538885   823A      1.539342   824A      1.539787  
     825A      1.547477   826A      1.547708   827A      1.548864  
     828A      1.550780   829A      1.551089   830A      1.555629  
     831A      1.561673   832A      1.561990   833A      1.569096  
     834A      1.569401   835A      1.577761   836A      1.580189  
     837A      1.581769   838A      1.582806   839A      1.583221  
     840A      1.583536   841A      1.583843   842A      1.590573  
     843A      1.601368   844A      1.601427   845A      1.607696  
     846A      1.614762   847A      1.614980   848A      1.616384  
     849A      1.617470   850A      1.617783   851A      1.620864  
     852A      1.624311   853A      1.626476   854A      1.626610  
     855A      1.634117   856A      1.636405   857A      1.637781  
     858A      1.639959   859A      1.640073   860A      1.641170  
     861A      1.643517   862A      1.643583   863A      1.656779  
     864A      1.656876   865A      1.678291   866A      1.681661  
     867A      1.684089   868A      1.690760   869A      1.696977  
     870A      1.700782   871A      1.701990   872A      1.702293  
     873A      1.704358   874A      1.715177   875A      1.717161  
     876A      1.718026   877A      1.731962   878A      1.732028  
     879A      1.748495   880A      1.756367   881A      1.757270  
     882A      1.757795   883A      1.760392   884A      1.762164  
     885A      1.763779   886A      1.764035   887A      1.765039  
     888A      1.771253   889A      1.771695   890A      1.771960  
     891A      1.778924   892A      1.781815   893A      1.782239  
     894A      1.800666   895A      1.802121   896A      1.802488  
     897A      1.803753   898A      1.804446   899A      1.805496  
     900A      1.809430   901A      1.812969   902A      1.819614  
     903A      1.819724   904A      1.824691   905A      1.827571  
     906A      1.833895   907A      1.836529   908A      1.836584  
     909A      1.841152   910A      1.844759   911A      1.845327  
     912A      1.848609   913A      1.848828   914A      1.855459  
     915A      1.856055   916A      1.857638   917A      1.857994  
     918A      1.859063   919A      1.860482   920A      1.862066  
     921A      1.863166   922A      1.874625   923A      1.881232  
     924A      1.883043   925A      1.883581   926A      1.884216  
     927A      1.886545   928A      1.889778   929A      1.890225  
     930A      1.894561   931A      1.894644   932A      1.895309  
     933A      1.895571   934A      1.898095   935A      1.910649  
     936A      1.913237   937A      1.914723   938A      1.923056  
     939A      1.923443   940A      1.931771   941A      1.937589  
     942A      1.939683   943A      1.940244   944A      1.946559  
     945A      1.950109   946A      1.953575   947A      1.954114  
     948A      1.967197   949A      1.967510   950A      1.969538  
     951A      1.970810   952A      1.971499   953A      1.971887  
     954A      1.971974   955A      1.973352   956A      1.983929  
     957A      1.989233   958A      1.993383   959A      1.993617  
     960A      1.998046   961A      1.998699   962A      2.001352  
     963A      2.002541   964A      2.008327   965A      2.010916  
     966A      2.011650   967A      2.012011   968A      2.016460  
     969A      2.017256   970A      2.021072   971A      2.022382  
     972A      2.026836   973A      2.027591   974A      2.034079  
     975A      2.035707   976A      2.037689   977A      2.039011  
     978A      2.041250   979A      2.042013   980A      2.048857  
     981A      2.049176   982A      2.049588   983A      2.050235  
     984A      2.050633   985A      2.051498   986A      2.055853  
     987A      2.057312   988A      2.059976   989A      2.060280  
     990A      2.061372   991A      2.061613   992A      2.067592  
     993A      2.067865   994A      2.073935   995A      2.075005  
     996A      2.076888   997A      2.077364   998A      2.081495  
     999A      2.084067  1000A      2.084104  1001A      2.096790  
    1002A      2.099161  1003A      2.099524  1004A      2.102983  
    1005A      2.103118  1006A      2.110522  1007A      2.116023  
    1008A      2.119233  1009A      2.119391  1010A      2.132039  
    1011A      2.132236  1012A      2.132787  1013A      2.134290  
    1014A      2.134334  1015A      2.136322  1016A      2.138477  
    1017A      2.150181  1018A      2.159503  1019A      2.159667  
    1020A      2.160005  1021A      2.161901  1022A      2.167155  
    1023A      2.168105  1024A      2.169408  1025A      2.170970  
    1026A      2.173611  1027A      2.185046  1028A      2.185360  
    1029A      2.186412  1030A      2.186543  1031A      2.189477  
    1032A      2.202038  1033A      2.202117  1034A      2.210682  
    1035A      2.210934  1036A      2.211367  1037A      2.213446  
    1038A      2.213602  1039A      2.223530  1040A      2.236757  
    1041A      2.241447  1042A      2.247589  1043A      2.250644  
    1044A      2.252369  1045A      2.260862  1046A      2.261242  
    1047A      2.264404  1048A      2.269690  1049A      2.269727  
    1050A      2.270872  1051A      2.273278  1052A      2.290493  
    1053A      2.291111  1054A      2.292874  1055A      2.293036  
    1056A      2.306068  1057A      2.306242  1058A      2.307885  
    1059A      2.313546  1060A      2.320707  1061A      2.341354  
    1062A      2.350059  1063A      2.357250  1064A      2.363979  
    1065A      2.364830  1066A      2.364836  1067A      2.377455  
    1068A      2.380906  1069A      2.381086  1070A      2.410237  
    1071A      2.413719  1072A      2.414368  1073A      2.426339  
    1074A      2.426373  1075A      2.442623  1076A      2.457290  
    1077A      2.460700  1078A      2.470000  1079A      2.470784  
    1080A      2.475429  1081A      2.485145  1082A      2.486525  
    1083A      2.487536  1084A      2.493797  1085A      2.496674  
    1086A      2.496694  1087A      2.500326  1088A      2.500342  
    1089A      2.508810  1090A      2.513095  1091A      2.513129  
    1092A      2.516695  1093A      2.517120  1094A      2.526704  
    1095A      2.527319  1096A      2.527752  1097A      2.530392  
    1098A      2.533529  1099A      2.547484  1100A      2.564950  
    1101A      2.565039  1102A      2.565597  1103A      2.571383  
    1104A      2.571951  1105A      2.582438  1106A      2.582535  
    1107A      2.585644  1108A      2.592483  1109A      2.593031  
    1110A      2.598023  1111A      2.616042  1112A      2.622043  
    1113A      2.623242  1114A      2.624781  1115A      2.629169  
    1116A      2.640769  1117A      2.641200  1118A      2.650170  
    1119A      2.652528  1120A      2.652683  1121A      2.658459  
    1122A      2.658574  1123A      2.662925  1124A      2.663139  
    1125A      2.673989  1126A      2.677375  1127A      2.692745  
    1128A      2.693758  1129A      2.695323  1130A      2.697300  
    1131A      2.703684  1132A      2.716716  1133A      2.717962  
    1134A      2.734559  1135A      2.735459  1136A      2.747161  
    1137A      2.756832  1138A      2.758306  1139A      2.766703  
    1140A      2.768954  1141A      2.792783  1142A      2.792826  
    1143A      2.794598  1144A      2.796945  1145A      2.799513  
    1146A      2.800166  1147A      2.807570  1148A      2.811948  
    1149A      2.859017  1150A      2.859305  1151A      2.865041  
    1152A      2.875166  1153A      2.875198  1154A      2.890412  
    1155A      2.890562  1156A      2.904177  1157A      2.926871  
    1158A      2.947668  1159A      2.948447  1160A      2.953811  
    1161A      2.971044  1162A      2.985849  1163A      3.003378  
    1164A      3.003857  1165A      3.010925  1166A      3.011018  
    1167A      3.050582  1168A      3.051196  1169A      3.058162  
    1170A      3.070214  1171A      3.070580  1172A      3.071047  
    1173A      3.074427  1174A      3.078413  1175A      3.086711  
    1176A      3.087514  1177A      3.088787  1178A      3.090434  
    1179A      3.090676  1180A      3.099424  1181A      3.099856  
    1182A      3.107164  1183A      3.107698  1184A      3.133352  
    1185A      3.152845  1186A      3.158700  1187A      3.178512  
    1188A      3.213211  1189A      3.216809  1190A      3.217061  
    1191A      3.222672  1192A      3.223142  1193A      3.355868  
    1194A      3.356464  1195A      3.379187  1196A      3.420748  
    1197A      3.423085  1198A      3.449184  1199A      3.488254  
    1200A      3.515834  1201A      3.517707  1202A      3.532553  
    1203A      3.538371  1204A      3.566520  1205A      3.568602  
    1206A      3.603191  1207A      3.609799  1208A      3.708845  
    1209A      3.721820  1210A      3.722995  1211A      3.811617  
    1212A      3.811655  1213A      3.853635  1214A      3.853806  
    1215A      3.916181  1216A      3.950004  1217A      3.970760  
    1218A      3.984530  1219A      4.018701  

    Final Occupation by Irrep:
              A 
    DOCC [   197 ]
    NA   [   197 ]
    NB   [   197 ]

  @DF-RHF Final Energy: -2359.19983471563501

   => Energetics <=

    Nuclear Repulsion Energy =           7885.6801389901584116
    One-Electron Energy =              -18876.1193162666932039
    Two-Electron Energy =                8631.2393425608988764
    Total Energy =                      -2359.1998347156350064

Computation Completed


Properties will be evaluated at   0.000000,   0.000000,   0.000000 [a0]

Properties computed using the SCF density matrix


 Multipole Moments:

 ------------------------------------------------------------------------------------
     Multipole            Electronic (a.u.)      Nuclear  (a.u.)        Total (a.u.)
 ------------------------------------------------------------------------------------

 L = 1.  Multiply by 2.5417464519 to convert [e a0] to [Debye]
 Dipole X            :         -0.0016365            0.0006313           -0.0010052
 Dipole Y            :         -5.6206389            7.4856329            1.8649940
 Dipole Z            :         24.4095214          -34.6019279          -10.1924064
 Magnitude           :                                                   10.3616289

 ------------------------------------------------------------------------------------

*** tstop() called on d-16-12-3 at Mon Jan 22 22:24:53 2024
Module time:
	user time   =    4520.73 seconds =      75.35 minutes
	system time =     108.51 seconds =       1.81 minutes
	total time  =        498 seconds =       8.30 minutes
Total time:
	user time   =    4520.73 seconds =      75.35 minutes
	system time =     108.51 seconds =       1.81 minutes
	total time  =        498 seconds =       8.30 minutes

  //>>>>>>>>>>>>>>>>>>>>>>>>>>>>>>>>>>>//
  //            Monomer A HF           //
  //<<<<<<<<<<<<<<<<<<<<<<<<<<<<<<<<<<<//

   => Libint2 <=

    Primary   basis highest AM E, G, H:  7, 7, 4
    Auxiliary basis highest AM E, G, H:  7, 7, 5
    Onebody   basis highest AM E, G, H:  7, 7, 5
    Solid Harmonics ordering:            gaussian

*** tstart() called on d-16-12-3
*** at Mon Jan 22 22:24:53 2024

   => Loading Basis Set <=

    Name: JUN-CC-PVDZ
    Role: ORBITAL
    Keyword: BASIS
    atoms 1-2, 4-5, 10, 17-70 entry C          line   164 file /home/gridsan/tfroembgen/.conda/envs/psi4test/share/psi4/basis/jun-cc-pvdz.gbs 
    atoms 3, 6                entry N          line   198 file /home/gridsan/tfroembgen/.conda/envs/psi4test/share/psi4/basis/jun-cc-pvdz.gbs 
    atoms 7-9, 11-16, 71-88   entry H          line    36 file /home/gridsan/tfroembgen/.conda/envs/psi4test/share/psi4/basis/jun-cc-pvdz.gbs 


         ---------------------------------------------------------
                                   SCF
               by Justin Turney, Rob Parrish, Andy Simmonett
                          and Daniel G. A. Smith
                              RHF Reference
                       12 Threads,  30517 MiB Core
         ---------------------------------------------------------

  ==> Geometry <==

    Molecular point group: c1
    Full point group: C1

    Geometry (in Angstrom), charge = 1, multiplicity = 1:

       Center              X                  Y                   Z               Mass       
    ------------   -----------------  -----------------  -----------------  -----------------
         C            0.680066520158     1.235968212970    -7.325574220489    12.000000000000
         C           -0.680504479842     1.237996212970    -7.325190220489    12.000000000000
         N           -1.085635479842     1.238994212970    -6.006866220489    14.003074004430
         C            0.000107520158     1.242270212970    -5.225465220489    12.000000000000
         C           -2.477365479842     1.288400212970    -5.538887220489    12.000000000000
         N            1.085221520158     1.238994212970    -6.006866220489    14.003074004430
         H            1.385145520158     1.228140212970    -8.143013220489     1.007825032230
         H           -1.385302479842     1.237806212970    -8.142859220489     1.007825032230
         H           -0.000009479842     1.244017212970    -4.144376220489     1.007825032230
         C            2.478116520158     1.222102212970    -5.541768220489    12.000000000000
         H            2.490591520158     1.249447212970    -4.451515220489     1.007825032230
         H            2.967027520158     0.308656212970    -5.888944220489     1.007825032230
         H            3.001427520158     2.097585212970    -5.933240220489     1.007825032230
         H           -2.857359479842     2.310471212970    -5.618846220489     1.007825032230
         H           -3.082679479842     0.618316212970    -6.151951220489     1.007825032230
         H           -2.518128479842     0.961416212970    -4.498939220489     1.007825032230
      Gh(C)           1.225311895423     0.526248873889     0.896492406795    12.000000000000
      Gh(C)           1.225323856051    -0.888828309601     0.884161597225    12.000000000000
      Gh(C)          -0.000006153932     1.233676499060     0.883627973704    12.000000000000
      Gh(C)           2.456448753949     1.237038472148     0.899379264195    12.000000000000
      Gh(C)           0.000010827279    -1.596265913665     0.893827531028    12.000000000000
      Gh(C)          -1.225300948908     0.526255958954     0.898743927117    12.000000000000
      Gh(C)           2.456437755320    -1.599612718911     0.881916440368    12.000000000000
      Gh(C)          -0.000001332978     2.655511616251     0.881224423570    12.000000000000
      Gh(C)           3.681826697470     0.528028540971     0.882265230166    12.000000000000
      Gh(C)           2.455120048865     2.652934246459     0.882162673205    12.000000000000
      Gh(C)           3.681821105219    -0.890623254459     0.898337714184    12.000000000000
      Gh(C)          -1.225313598688    -0.888816930574     0.885234358652    12.000000000000
      Gh(C)           1.226699581202     3.362180068964     0.898521746115    12.000000000000
      Gh(C)           0.000004784858    -3.018071554266     0.898675698650    12.000000000000
      Gh(C)          -2.456436032848     1.237027503255     0.898779322963    12.000000000000
      Gh(C)           2.455123417779    -3.015519443619     0.898185805816    12.000000000000
      Gh(C)          -1.226714364589     3.362179648720     0.898625079334    12.000000000000
      Gh(C)           4.914517295202     1.245883457459     0.888745913195    12.000000000000
      Gh(C)           3.693150191476     3.361505877515     0.888795712831    12.000000000000
      Gh(C)          -2.456437600068    -1.599602695869     0.881891402243    12.000000000000
      Gh(C)           1.226704841943    -3.724763656937     0.882551615365    12.000000000000
      Gh(C)          -2.455125398508     2.652927247604     0.882169049551    12.000000000000
      Gh(C)           4.914524380782    -1.608476324974     0.891718655930    12.000000000000
      Gh(C)           1.221424613699     4.788844650230     0.891857090189    12.000000000000
      Gh(C)           4.893008229321     2.643898584996     0.889962581554    12.000000000000
      Gh(C)          -1.226697008489    -3.724760412107     0.882818819775    12.000000000000
      Gh(C)          -3.681818976526     0.528035551702     0.882277910646    12.000000000000
      Gh(C)           3.693147101150    -3.724090756421     0.891836546491    12.000000000000
      Gh(C)          -1.221432251994     4.788838882833     0.892040585562    12.000000000000
      Gh(C)           6.134770972926     0.499258532075     0.889515687745    12.000000000000
      Gh(C)           3.656788880610     4.791663828537     0.889704350614    12.000000000000
      Gh(C)          -2.455126907733    -3.015504508091     0.897941448018    12.000000000000
      Gh(C)          -3.681819179061    -0.890615118499     0.898455335763    12.000000000000
      Gh(C)           4.893012617914    -3.006489520662     0.890573733449    12.000000000000
      Gh(C)          -0.000001073113     5.469157951002     0.890809276855    12.000000000000
      Gh(C)           6.134775112332    -0.861844269105     0.890781008261    12.000000000000
      Gh(C)           2.478131482856     5.472287336301     0.890993130264    12.000000000000
      Gh(C)           1.221422404738    -5.151416469963     0.889057593167    12.000000000000
      Gh(C)          -3.693162383965     3.361507539162     0.888961220291    12.000000000000
      Gh(C)          -1.221428520945    -5.151407718626     0.888944831334    12.000000000000
      Gh(C)          -4.914521807942     1.245886031965     0.888822858203    12.000000000000
      Gh(C)           3.656787019679    -5.154244641269     0.891154851148    12.000000000000
      Gh(C)          -2.478138530106     5.472285007498     0.891277655272    12.000000000000
      Gh(C)          -3.693141738564    -3.724079634009     0.891720420335    12.000000000000
      Gh(C)          -4.914512483053    -1.608470415058     0.891753353103    12.000000000000
      Gh(C)          -0.000006008926    -5.831727702044     0.890413772734    12.000000000000
      Gh(C)          -4.893020484101     2.643899183889     0.889952499694    12.000000000000
      Gh(C)           2.478125993298    -5.834862958919     0.890064250356    12.000000000000
      Gh(C)          -3.656798710258     4.791666767011     0.889881030989    12.000000000000
      Gh(C)          -4.892999478856    -3.006481182090     0.890419697752    12.000000000000
      Gh(C)          -2.478128498083    -5.834855585037     0.889789062708    12.000000000000
      Gh(C)          -6.134770503331     0.499259351226     0.889490136043    12.000000000000
      Gh(C)          -3.656788833189    -5.154233438001     0.890940563331    12.000000000000
      Gh(C)          -6.134765042913    -0.861843330512     0.890760532466    12.000000000000
      Gh(H)           5.835288495816     3.187986479924     0.894321907217     1.007825032230
      Gh(H)           7.073859172747     1.046927833869     0.889977331138     1.007825032230
      Gh(H)           4.600663264174     5.331091387423     0.890209551366     1.007825032230
      Gh(H)           5.835283387305    -3.550595471759     0.886119266135     1.007825032230
      Gh(H)          -0.000012151306     6.557241259106     0.886460031847     1.007825032230
      Gh(H)           7.073861171831    -1.409516357774     0.890272270166     1.007825032230
      Gh(H)           2.473313731799     6.559394876364     0.890526409333     1.007825032230
      Gh(H)           4.600668491381    -5.693665544206     0.890744853980     1.007825032230
      Gh(H)          -2.473318680537     6.559392304576     0.890827755958     1.007825032230
      Gh(H)          -0.000010268228    -6.919817591482     0.894943457719     1.007825032230
      Gh(H)          -5.835301914343     3.187981535266     0.894457929365     1.007825032230
      Gh(H)           2.473307923831    -6.921974789459     0.890634580781     1.007825032230
      Gh(H)          -4.600674841208     5.331088611573     0.890374879690     1.007825032230
      Gh(H)          -5.835279506835    -3.550578378810     0.885839960254     1.007825032230
      Gh(H)          -2.473300347440    -6.921968493170     0.890185264236     1.007825032230
      Gh(H)          -7.073857766768     1.046931057810     0.889893339657     1.007825032230
      Gh(H)          -4.600673786085    -5.693652084817     0.890572545957     1.007825032230
      Gh(H)          -7.073856934409    -1.409510047007     0.890177413700     1.007825032230

  Running in c1 symmetry.

  Rotational constants: A =      0.00142  B =      0.00140  C =      0.00107 [cm^-1]
  Rotational constants: A =     42.55288  B =     42.11469  C =     31.96047 [MHz]
  Nuclear repulsion =  306.774908447733139

  Charge       = 1
  Multiplicity = 1
  Electrons    = 52
  Nalpha       = 26
  Nbeta        = 26

  ==> Algorithm <==

  SCF Algorithm Type is DF.
  DIIS enabled.
  MOM disabled.
  Fractional occupation disabled.
  Guess Type is SAD.
  Energy threshold   = 1.00e-08
  Density threshold  = 1.00e-08
  Integral threshold = 1.00e-12

  ==> Primary Basis <==

  Basis Set: JUN-CC-PVDZ
    Blend: JUN-CC-PVDZ
    Number of shells: 569
    Number of basis functions: 1233
    Number of Cartesian functions: 1294
    Spherical Harmonics?: true
    Max angular momentum: 2

   => Loading Basis Set <=

    Name: (JUN-CC-PVDZ AUX)
    Role: JKFIT
    Keyword: DF_BASIS_SCF
    atoms 1-2, 4-5, 10, 17-70 entry C          line   146 file /home/gridsan/tfroembgen/.conda/envs/psi4test/share/psi4/basis/jun-cc-pvdz-jkfit.gbs 
    atoms 3, 6                entry N          line   202 file /home/gridsan/tfroembgen/.conda/envs/psi4test/share/psi4/basis/jun-cc-pvdz-jkfit.gbs 
    atoms 7-9, 11-16, 71-88   entry H          line    70 file /home/gridsan/tfroembgen/.conda/envs/psi4test/share/psi4/basis/jun-cc-pvdz-jkfit.gbs 

  ==> Integral Setup <==

  ==> DiskDFJK: Density-Fitted J/K Matrices <==

    J tasked:                  Yes
    K tasked:                  Yes
    wK tasked:                  No
    OpenMP threads:             12
    Integrals threads:          12
    Memory [MiB]:            22888
    Algorithm:                Core
    Integral Cache:           LOAD
    Schwarz Cutoff:          1E-12
    Fitting Condition:       1E-10

   => Auxiliary Basis Set <=

  Basis Set: (JUN-CC-PVDZ AUX)
    Blend: JUN-CC-PVDZ-JKFIT
    Number of shells: 1890
    Number of basis functions: 5440
    Number of Cartesian functions: 6226
    Spherical Harmonics?: true
    Max angular momentum: 3

  Minimum eigenvalue in the overlap matrix is 8.3852787923E-10.
  Reciprocal condition number of the overlap matrix is 3.7464542619E-11.
    Using canonical orthogonalization.
  Overall, 14 of 1233 possible MOs eliminated.


  ==> Pre-Iterations <==

  SCF Guess: Superposition of Atomic Densities via on-the-fly atomic UHF (no occupation information).

   -------------------------
    Irrep   Nso     Nmo    
   -------------------------
     A       1233    1219 
   -------------------------
    Total    1233    1219
   -------------------------

  ==> Iterations <==

                           Total Energy        Delta E     RMS |[F,P]|

   @DF-RHF iter SAD:  -303.36534167043635   -3.03365e+02   0.00000e+00 
   @DF-RHF iter   1:  -303.16945900709993    1.95883e-01   3.44108e-04 DIIS/ADIIS
   @DF-RHF iter   2:  -303.28379712942154   -1.14338e-01   1.15876e-04 DIIS/ADIIS
   @DF-RHF iter   3:  -303.29524706552309   -1.14499e-02   4.53305e-05 DIIS
   @DF-RHF iter   4:  -303.29714975131253   -1.90269e-03   9.89451e-06 DIIS
   @DF-RHF iter   5:  -303.29725533972061   -1.05588e-04   2.41242e-06 DIIS
   @DF-RHF iter   6:  -303.29726460099846   -9.26128e-06   6.54303e-07 DIIS
   @DF-RHF iter   7:  -303.29726567365816   -1.07266e-06   3.32277e-07 DIIS
   @DF-RHF iter   8:  -303.29726592635882   -2.52701e-07   1.33719e-07 DIIS
   @DF-RHF iter   9:  -303.29726597487036   -4.85115e-08   3.37151e-08 DIIS
   @DF-RHF iter  10:  -303.29726597769854   -2.82819e-09   1.26581e-08 DIIS
   @DF-RHF iter  11:  -303.29726597794422   -2.45677e-10   2.98034e-09 DIIS
  Energy and wave function converged.


  ==> Post-Iterations <==

    Orbital Energies [Eh]
    ---------------------

    Doubly Occupied:                                                      

       1A    -15.834657     2A    -15.834125     3A    -11.529533  
       4A    -11.459853     5A    -11.458297     6A    -11.449660  
       7A    -11.449547     8A     -1.578203     9A     -1.433797  
      10A     -1.238639    11A     -1.189289    12A     -1.118849  
      13A     -1.022509    14A     -0.996935    15A     -0.917023  
      16A     -0.850507    17A     -0.816234    18A     -0.813174  
      19A     -0.790103    20A     -0.786213    21A     -0.781745  
      22A     -0.729688    23A     -0.725768    24A     -0.717086  
      25A     -0.596281    26A     -0.523835  

    Virtual:                                                              

      27A     -0.074809    28A     -0.071164    29A     -0.058815  
      30A     -0.051040    31A     -0.038120    32A     -0.035621  
      33A     -0.035185    34A     -0.033225    35A     -0.032236  
      36A     -0.024160    37A     -0.022763    38A     -0.017189  
      39A     -0.015544    40A     -0.012834    41A     -0.010704  
      42A     -0.006549    43A     -0.005935    44A     -0.003303  
      45A     -0.002178    46A      0.002213    47A      0.003897  
      48A      0.008087    49A      0.010442    50A      0.014866  
      51A      0.016297    52A      0.016931    53A      0.017741  
      54A      0.022565    55A      0.025341    56A      0.026751  
      57A      0.028330    58A      0.031596    59A      0.034493  
      60A      0.035037    61A      0.038009    62A      0.038094  
      63A      0.041345    64A      0.042180    65A      0.047189  
      66A      0.048175    67A      0.050563    68A      0.052159  
      69A      0.054522    70A      0.055307    71A      0.060364  
      72A      0.061197    73A      0.062631    74A      0.062966  
      75A      0.068656    76A      0.069490    77A      0.070156  
      78A      0.071409    79A      0.071927    80A      0.073662  
      81A      0.076810    82A      0.078781    83A      0.079299  
      84A      0.081026    85A      0.082049    86A      0.083970  
      87A      0.085093    88A      0.087789    89A      0.089270  
      90A      0.089579    91A      0.090720    92A      0.091041  
      93A      0.093783    94A      0.097637    95A      0.098043  
      96A      0.098747    97A      0.099459    98A      0.102801  
      99A      0.103369   100A      0.105547   101A      0.106918  
     102A      0.110252   103A      0.114098   104A      0.114414  
     105A      0.114908   106A      0.115996   107A      0.118959  
     108A      0.119402   109A      0.120374   110A      0.122389  
     111A      0.123018   112A      0.124224   113A      0.124895  
     114A      0.126766   115A      0.128728   116A      0.130211  
     117A      0.132894   118A      0.134027   119A      0.137650  
     120A      0.139159   121A      0.139598   122A      0.139898  
     123A      0.141708   124A      0.144482   125A      0.146066  
     126A      0.146709   127A      0.147164   128A      0.148914  
     129A      0.150890   130A      0.151795   131A      0.152513  
     132A      0.154158   133A      0.154875   134A      0.155245  
     135A      0.156035   136A      0.158906   137A      0.162323  
     138A      0.162994   139A      0.166559   140A      0.167475  
     141A      0.168477   142A      0.168771   143A      0.169102  
     144A      0.172529   145A      0.174039   146A      0.176306  
     147A      0.180025   148A      0.180232   149A      0.181620  
     150A      0.182688   151A      0.182854   152A      0.184359  
     153A      0.186573   154A      0.186665   155A      0.187028  
     156A      0.188921   157A      0.192242   158A      0.193846  
     159A      0.195190   160A      0.195458   161A      0.196238  
     162A      0.199481   163A      0.202468   164A      0.205553  
     165A      0.212408   166A      0.213073   167A      0.214219  
     168A      0.215759   169A      0.218025   170A      0.219104  
     171A      0.220365   172A      0.221024   173A      0.221398  
     174A      0.221587   175A      0.221972   176A      0.225273  
     177A      0.226238   178A      0.226930   179A      0.229060  
     180A      0.230182   181A      0.231137   182A      0.231497  
     183A      0.231705   184A      0.232929   185A      0.237832  
     186A      0.239085   187A      0.240199   188A      0.241568  
     189A      0.246516   190A      0.246840   191A      0.247799  
     192A      0.250989   193A      0.252754   194A      0.253071  
     195A      0.256380   196A      0.257460   197A      0.264234  
     198A      0.265918   199A      0.268541   200A      0.269446  
     201A      0.273014   202A      0.273783   203A      0.275110  
     204A      0.276350   205A      0.280277   206A      0.283488  
     207A      0.284894   208A      0.285196   209A      0.287142  
     210A      0.288166   211A      0.289546   212A      0.291268  
     213A      0.293732   214A      0.296226   215A      0.296359  
     216A      0.297089   217A      0.299247   218A      0.301846  
     219A      0.304739   220A      0.305349   221A      0.306303  
     222A      0.307525   223A      0.309084   224A      0.310383  
     225A      0.312898   226A      0.315322   227A      0.315810  
     228A      0.318656   229A      0.321917   230A      0.323140  
     231A      0.325924   232A      0.331602   233A      0.332685  
     234A      0.336621   235A      0.337411   236A      0.339414  
     237A      0.340597   238A      0.346119   239A      0.349620  
     240A      0.350023   241A      0.354481   242A      0.356980  
     243A      0.357521   244A      0.359383   245A      0.363152  
     246A      0.365589   247A      0.367201   248A      0.369446  
     249A      0.370916   250A      0.371124   251A      0.371220  
     252A      0.374208   253A      0.375478   254A      0.377234  
     255A      0.377702   256A      0.383371   257A      0.386149  
     258A      0.386477   259A      0.386639   260A      0.389399  
     261A      0.389958   262A      0.391153   263A      0.395443  
     264A      0.395668   265A      0.398131   266A      0.399170  
     267A      0.399339   268A      0.400939   269A      0.401431  
     270A      0.403192   271A      0.408893   272A      0.409438  
     273A      0.410209   274A      0.411939   275A      0.414245  
     276A      0.414810   277A      0.417120   278A      0.417673  
     279A      0.419115   280A      0.423477   281A      0.423628  
     282A      0.426265   283A      0.426601   284A      0.431001  
     285A      0.431548   286A      0.434283   287A      0.435520  
     288A      0.436328   289A      0.437332   290A      0.437926  
     291A      0.441209   292A      0.445044   293A      0.449451  
     294A      0.450269   295A      0.451255   296A      0.459119  
     297A      0.459843   298A      0.461375   299A      0.465603  
     300A      0.466676   301A      0.469137   302A      0.469255  
     303A      0.471164   304A      0.471839   305A      0.472887  
     306A      0.474541   307A      0.480242   308A      0.481985  
     309A      0.484240   310A      0.486287   311A      0.487091  
     312A      0.489329   313A      0.490393   314A      0.492568  
     315A      0.496874   316A      0.504139   317A      0.506036  
     318A      0.506666   319A      0.510406   320A      0.512933  
     321A      0.514348   322A      0.514647   323A      0.516228  
     324A      0.517067   325A      0.519030   326A      0.522012  
     327A      0.524864   328A      0.526027   329A      0.528895  
     330A      0.537867   331A      0.538187   332A      0.539206  
     333A      0.541263   334A      0.541450   335A      0.543072  
     336A      0.549849   337A      0.550842   338A      0.554150  
     339A      0.556109   340A      0.557419   341A      0.558288  
     342A      0.561112   343A      0.563803   344A      0.568540  
     345A      0.571878   346A      0.573336   347A      0.577989  
     348A      0.578986   349A      0.584001   350A      0.585506  
     351A      0.585952   352A      0.586803   353A      0.592135  
     354A      0.595536   355A      0.601339   356A      0.604678  
     357A      0.608776   358A      0.615130   359A      0.616042  
     360A      0.616467   361A      0.620185   362A      0.620491  
     363A      0.621546   364A      0.624393   365A      0.626503  
     366A      0.629574   367A      0.629813   368A      0.635312  
     369A      0.636250   370A      0.637373   371A      0.639679  
     372A      0.641499   373A      0.643346   374A      0.643916  
     375A      0.645494   376A      0.647053   377A      0.648664  
     378A      0.651831   379A      0.660568   380A      0.662087  
     381A      0.662767   382A      0.663019   383A      0.668992  
     384A      0.670913   385A      0.677657   386A      0.681220  
     387A      0.687377   388A      0.690081   389A      0.693232  
     390A      0.699708   391A      0.700077   392A      0.700627  
     393A      0.702707   394A      0.703616   395A      0.704895  
     396A      0.706033   397A      0.706568   398A      0.707511  
     399A      0.708453   400A      0.712245   401A      0.712625  
     402A      0.712872   403A      0.713561   404A      0.714832  
     405A      0.716369   406A      0.722025   407A      0.725071  
     408A      0.725564   409A      0.728498   410A      0.729929  
     411A      0.731070   412A      0.734587   413A      0.735173  
     414A      0.737502   415A      0.741861   416A      0.742109  
     417A      0.745167   418A      0.746306   419A      0.747406  
     420A      0.751980   421A      0.757372   422A      0.764066  
     423A      0.768387   424A      0.784916   425A      0.785199  
     426A      0.789131   427A      0.789201   428A      0.795811  
     429A      0.797377   430A      0.803765   431A      0.807680  
     432A      0.808320   433A      0.819582   434A      0.819609  
     435A      0.823537   436A      0.824119   437A      0.828888  
     438A      0.829676   439A      0.830291   440A      0.835801  
     441A      0.837850   442A      0.838508   443A      0.844967  
     444A      0.857390   445A      0.862136   446A      0.862462  
     447A      0.866683   448A      0.886829   449A      0.898213  
     450A      0.898701   451A      0.898935   452A      0.905587  
     453A      0.907649   454A      0.908074   455A      0.916595  
     456A      0.930606   457A      0.939505   458A      0.939961  
     459A      0.943051   460A      0.947733   461A      0.963670  
     462A      0.965013   463A      0.966976   464A      0.970075  
     465A      0.976873   466A      0.980103   467A      0.980302  
     468A      0.989864   469A      0.997895   470A      1.004197  
     471A      1.004337   472A      1.007000   473A      1.007071  
     474A      1.035897   475A      1.036122   476A      1.041872  
     477A      1.042339   478A      1.044133   479A      1.065222  
     480A      1.071780   481A      1.092568   482A      1.092661  
     483A      1.099627   484A      1.099737   485A      1.101815  
     486A      1.111358   487A      1.114004   488A      1.116855  
     489A      1.121961   490A      1.122016   491A      1.127057  
     492A      1.135044   493A      1.135176   494A      1.138398  
     495A      1.141478   496A      1.150907   497A      1.158547  
     498A      1.158553   499A      1.167111   500A      1.167125  
     501A      1.169259   502A      1.225551   503A      1.233807  
     504A      1.233900   505A      1.242091   506A      1.244202  
     507A      1.244424   508A      1.260593   509A      1.260738  
     510A      1.265202   511A      1.267158   512A      1.281421  
     513A      1.287013   514A      1.303042   515A      1.308432  
     516A      1.308566   517A      1.330185   518A      1.352419  
     519A      1.359218   520A      1.380666   521A      1.380961  
     522A      1.398012   523A      1.399617   524A      1.402209  
     525A      1.404004   526A      1.404651   527A      1.406890  
     528A      1.420906   529A      1.421072   530A      1.425562  
     531A      1.466022   532A      1.478558   533A      1.481502  
     534A      1.492452   535A      1.493178   536A      1.495352  
     537A      1.496587   538A      1.503743   539A      1.506752  
     540A      1.519572   541A      1.562271   542A      1.565811  
     543A      1.572765   544A      1.576046   545A      1.585055  
     546A      1.588360   547A      1.597470   548A      1.599770  
     549A      1.600893   550A      1.608076   551A      1.620416  
     552A      1.620663   553A      1.622328   554A      1.629300  
     555A      1.629738   556A      1.641128   557A      1.662959  
     558A      1.670468   559A      1.682665   560A      1.682952  
     561A      1.684132   562A      1.685993   563A      1.687853  
     564A      1.689494   565A      1.690033   566A      1.697010  
     567A      1.697362   568A      1.701020   569A      1.704063  
     570A      1.714062   571A      1.723057   572A      1.728855  
     573A      1.730698   574A      1.731043   575A      1.731458  
     576A      1.736915   577A      1.743477   578A      1.746290  
     579A      1.747528   580A      1.748392   581A      1.750618  
     582A      1.756705   583A      1.758462   584A      1.763576  
     585A      1.764064   586A      1.766864   587A      1.768918  
     588A      1.770339   589A      1.772199   590A      1.772922  
     591A      1.781722   592A      1.783473   593A      1.784610  
     594A      1.786861   595A      1.790348   596A      1.792650  
     597A      1.797798   598A      1.799483   599A      1.799548  
     600A      1.812054   601A      1.813321   602A      1.817521  
     603A      1.819766   604A      1.821096   605A      1.821534  
     606A      1.823606   607A      1.823839   608A      1.826260  
     609A      1.827675   610A      1.835708   611A      1.837423  
     612A      1.843455   613A      1.844898   614A      1.845174  
[...]
     802A      1.677065   803A      1.677184   804A      1.683180  
     805A      1.686791   806A      1.686833   807A      1.696122  
     808A      1.697428   809A      1.699103   810A      1.699413  
     811A      1.700924   812A      1.704807   813A      1.704902  
     814A      1.715470   815A      1.716195   816A      1.718326  
     817A      1.741751   818A      1.751464   819A      1.758771  
     820A      1.760573   821A      1.760654   822A      1.761129  
     823A      1.761790   824A      1.776827   825A      1.776912  
     826A      1.791638   827A      1.791656   828A      1.798579  
     829A      1.812043   830A      1.815139   831A      1.816316  
     832A      1.816864   833A      1.818560   834A      1.823969  
     835A      1.824696   836A      1.824885   837A      1.830558  
     838A      1.832526   839A      1.835916   840A      1.842247  
     841A      1.842461   842A      1.843399   843A      1.847365  
     844A      1.860408   845A      1.861499   846A      1.862128  
     847A      1.862782   848A      1.864297   849A      1.868975  
     850A      1.870975   851A      1.874302   852A      1.880307  
     853A      1.880401   854A      1.895908   855A      1.896606  
     856A      1.899984   857A      1.900559   858A      1.902546  
     859A      1.903198   860A      1.903278   861A      1.909006  
     862A      1.909390   863A      1.915514   864A      1.916426  
     865A      1.917537   866A      1.917894   867A      1.917974  
     868A      1.920010   869A      1.922262   870A      1.922406  
     871A      1.941207   872A      1.941886   873A      1.942603  
     874A      1.943622   875A      1.944937   876A      1.947352  
     877A      1.947470   878A      1.954922   879A      1.955381  
     880A      1.955975   881A      1.956600   882A      1.958073  
     883A      1.970632   884A      1.983649   885A      1.984065  
     886A      1.991269   887A      1.997254   888A      1.998413  
     889A      1.998946   890A      2.002591   891A      2.008079  
     892A      2.008484   893A      2.012464   894A      2.013234  
     895A      2.020860   896A      2.027939   897A      2.029162  
     898A      2.029487   899A      2.030725   900A      2.030865  
     901A      2.031497   902A      2.032183   903A      2.040380  
     904A      2.043927   905A      2.048546   906A      2.052415  
     907A      2.052872   908A      2.053338   909A      2.058480  
     910A      2.058735   911A      2.060858   912A      2.061753  
     913A      2.064847   914A      2.070673   915A      2.071153  
     916A      2.072055   917A      2.072367   918A      2.076879  
     919A      2.077934   920A      2.081940   921A      2.084915  
     922A      2.087239   923A      2.089925   924A      2.093145  
     925A      2.095118   926A      2.096148   927A      2.097103  
     928A      2.097724   929A      2.100844   930A      2.101683  
     931A      2.108611   932A      2.109005   933A      2.109281  
     934A      2.111011   935A      2.111521   936A      2.113463  
     937A      2.115377   938A      2.118735   939A      2.119353  
     940A      2.119753   941A      2.121047   942A      2.122516  
     943A      2.125860   944A      2.127297   945A      2.129426  
     946A      2.133740   947A      2.134933   948A      2.135897  
     949A      2.136010   950A      2.142925   951A      2.143283  
     952A      2.144325   953A      2.155883   954A      2.157744  
     955A      2.160392   956A      2.160972   957A      2.163044  
     958A      2.165195   959A      2.171535   960A      2.178574  
     961A      2.178801   962A      2.187540   963A      2.190920  
     964A      2.191073   965A      2.192536   966A      2.193697  
     967A      2.194557   968A      2.195919   969A      2.196154  
     970A      2.201644   971A      2.206308   972A      2.218510  
     973A      2.219719   974A      2.220412   975A      2.220837  
     976A      2.228335   977A      2.228797   978A      2.228922  
     979A      2.229976   980A      2.243349   981A      2.243680  
     982A      2.244304   983A      2.244622   984A      2.247266  
     985A      2.252887   986A      2.260288   987A      2.260435  
     988A      2.270191   989A      2.270272   990A      2.272230  
     991A      2.272294   992A      2.272940   993A      2.281158  
     994A      2.283249   995A      2.300408   996A      2.304290  
     997A      2.306714   998A      2.311064   999A      2.312600  
    1000A      2.321835  1001A      2.322938  1002A      2.327026  
    1003A      2.331065  1004A      2.331188  1005A      2.331547  
    1006A      2.334153  1007A      2.350140  1008A      2.350468  
    1009A      2.351532  1010A      2.352392  1011A      2.352797  
    1012A      2.356588  1013A      2.366732  1014A      2.366998  
    1015A      2.375493  1016A      2.380503  1017A      2.395046  
    1018A      2.416001  1019A      2.424059  1020A      2.424458  
    1021A      2.424498  1022A      2.436488  1023A      2.441177  
    1024A      2.441294  1025A      2.451394  1026A      2.454654  
    1027A      2.462342  1028A      2.470465  1029A      2.472521  
    1030A      2.473854  1031A      2.474855  1032A      2.480640  
    1033A      2.485818  1034A      2.485947  1035A      2.502359  
    1036A      2.519060  1037A      2.519681  1038A      2.529939  
    1039A      2.530526  1040A      2.543686  1041A      2.545603  
    1042A      2.546166  1043A      2.554839  1044A      2.554851  
    1045A      2.555099  1046A      2.559920  1047A      2.559955  
    1048A      2.573040  1049A      2.573076  1050A      2.574944  
    1051A      2.575454  1052A      2.582500  1053A      2.586390  
    1054A      2.586930  1055A      2.587495  1056A      2.589923  
    1057A      2.591477  1058A      2.606432  1059A      2.623737  
    1060A      2.623787  1061A      2.625191  1062A      2.631851  
    1063A      2.632366  1064A      2.638128  1065A      2.641335  
    1066A      2.641512  1067A      2.649609  1068A      2.651102  
    1069A      2.652380  1070A      2.655046  1071A      2.657520  
    1072A      2.663947  1073A      2.678686  1074A      2.682778  
    1075A      2.683584  1076A      2.684115  1077A      2.687420  
    1078A      2.702167  1079A      2.702586  1080A      2.713075  
    1081A      2.713085  1082A      2.718792  1083A      2.718814  
    1084A      2.722971  1085A      2.723244  1086A      2.737655  
    1087A      2.742392  1088A      2.750157  1089A      2.753088  
    1090A      2.754176  1091A      2.769620  1092A      2.777547  
    1093A      2.794980  1094A      2.795368  1095A      2.814255  
    1096A      2.816951  1097A      2.827202  1098A      2.828230  
    1099A      2.841888  1100A      2.852773  1101A      2.853060  
    1102A      2.856089  1103A      2.858383  1104A      2.859744  
    1105A      2.860740  1106A      2.867944  1107A      2.883157  
    1108A      2.894948  1109A      2.913696  1110A      2.917692  
    1111A      2.919414  1112A      2.923975  1113A      2.926348  
    1114A      2.933777  1115A      2.934156  1116A      2.949830  
    1117A      2.949898  1118A      2.955350  1119A      2.963094  
    1120A      2.977123  1121A      3.005566  1122A      3.008100  
    1123A      3.008741  1124A      3.011917  1125A      3.019635  
    1126A      3.029671  1127A      3.046500  1128A      3.064313  
    1129A      3.064502  1130A      3.071070  1131A      3.071148  
    1132A      3.109786  1133A      3.110365  1134A      3.128936  
    1135A      3.129792  1136A      3.130389  1137A      3.137501  
    1138A      3.143941  1139A      3.146735  1140A      3.146919  
    1141A      3.147182  1142A      3.149514  1143A      3.149771  
    1144A      3.158577  1145A      3.159069  1146A      3.166248  
    1147A      3.166691  1148A      3.191814  1149A      3.211257  
    1150A      3.219126  1151A      3.237989  1152A      3.274124  
    1153A      3.277069  1154A      3.277430  1155A      3.282269  
    1156A      3.282545  1157A      3.287255  1158A      3.312535  
    1159A      3.325297  1160A      3.413570  1161A      3.416672  
    1162A      3.417328  1163A      3.443306  1164A      3.481920  
    1165A      3.484273  1166A      3.525014  1167A      3.549807  
    1168A      3.573080  1169A      3.577486  1170A      3.579563  
    1171A      3.594019  1172A      3.626599  1173A      3.628702  
    1174A      3.645100  1175A      3.663113  1176A      3.669739  
    1177A      3.757643  1178A      3.769287  1179A      3.782824  
    1180A      3.784153  1181A      3.816158  1182A      3.868344  
    1183A      3.870840  1184A      3.870951  1185A      3.913345  
    1186A      3.913486  1187A      3.964264  1188A      3.976965  
    1189A      4.010943  1190A      4.033427  1191A      4.047611  
    1192A      4.081464  1193A      4.207276  1194A      4.211140  
    1195A      4.352412  1196A      4.362772  1197A      4.489196  
    1198A      4.741816  1199A      4.779525  1200A      4.831909  
    1201A      4.847367  1202A      4.936934  1203A      5.052946  
    1204A      5.058046  1205A      5.067311  1206A      5.111692  
    1207A      5.140502  1208A      5.393362  1209A      5.422955  
    1210A      5.733431  1211A      5.759447  1212A      6.067672  
    1213A     18.198426  1214A     18.456191  1215A     18.472992  
    1216A     18.561158  1217A     18.831517  1218A     25.339442  
    1219A     25.375358  

    Final Occupation by Irrep:
              A 
    DOCC [   171 ]
    NA   [   171 ]
    NB   [   171 ]

  @DF-RHF Final Energy: -2055.89211882394511

   => Energetics <=

    Nuclear Repulsion Energy =           6452.5568002797781446
    One-Electron Energy =              -15636.4417576042123983
    Two-Electron Energy =                7127.9928385004877782
    Total Energy =                      -2055.8921188239455660

Computation Completed


Properties will be evaluated at   0.000000,   0.000000,   0.000000 [a0]

Properties computed using the SCF density matrix


 Multipole Moments:

 ------------------------------------------------------------------------------------
     Multipole            Electronic (a.u.)      Nuclear  (a.u.)        Total (a.u.)
 ------------------------------------------------------------------------------------

 L = 1.  Multiply by 2.5417464519 to convert [e a0] to [Debye]
 Dipole X            :          0.0001297           -0.0000085            0.0001212
 Dipole Y            :        117.1663291         -117.1648546            0.0014745
 Dipole Z            :       -575.4168544          575.4226842            0.0058298
 Magnitude           :                                                    0.0060146

 ------------------------------------------------------------------------------------

*** tstop() called on d-16-12-3 at Mon Jan 22 22:33:36 2024
Module time:
	user time   =    2828.02 seconds =      47.13 minutes
	system time =      54.30 seconds =       0.91 minutes
	total time  =        315 seconds =       5.25 minutes
Total time:
	user time   =    8999.61 seconds =     149.99 minutes
	system time =     192.84 seconds =       3.21 minutes
	total time  =       1021 seconds =      17.02 minutes
  Constructing Basis Sets for SAPT...

   => Loading Basis Set <=

    Name: (JUN-CC-PVDZ AUX)
    Role: RIFIT
    Keyword: DF_BASIS_SAPT
    atoms 1-2, 4-5, 10, 17-70 entry C          line   100 file /home/gridsan/tfroembgen/.conda/envs/psi4test/share/psi4/basis/jun-cc-pvdz-ri.gbs 
    atoms 3, 6                entry N          line   144 file /home/gridsan/tfroembgen/.conda/envs/psi4test/share/psi4/basis/jun-cc-pvdz-ri.gbs 
    atoms 7-9, 11-16, 71-88   entry H          line    30 file /home/gridsan/tfroembgen/.conda/envs/psi4test/share/psi4/basis/jun-cc-pvdz-ri.gbs 

   => Loading Basis Set <=

    Name: (JUN-CC-PVDZ AUX)
    Role: JKFIT
    Keyword: DF_BASIS_ELST
    atoms 1-2, 4-5, 10, 17-70 entry C          line   146 file /home/gridsan/tfroembgen/.conda/envs/psi4test/share/psi4/basis/jun-cc-pvdz-jkfit.gbs 
    atoms 3, 6                entry N          line   202 file /home/gridsan/tfroembgen/.conda/envs/psi4test/share/psi4/basis/jun-cc-pvdz-jkfit.gbs 
    atoms 7-9, 11-16, 71-88   entry H          line    70 file /home/gridsan/tfroembgen/.conda/envs/psi4test/share/psi4/basis/jun-cc-pvdz-jkfit.gbs 


  //>>>>>>>>>>>>>>>>>>>>>>>>>>>>>>>>>>>//
  //               SSAPT0              //
  //<<<<<<<<<<<<<<<<<<<<<<<<<<<<<<<<<<<//


*** tstart() called on d-16-12-3
*** at Mon Jan 22 22:33:37 2024

        SAPT0  
    Ed Hohenstein
     6 June 2009

      Orbital Information
  --------------------------
    NSO        =      1233
    NMO        =      1219
    NRI        =      4343
    NRI (Elst) =      5440
    NOCC A     =        26
    NOCC B     =       171
    FOCC A     =         7
    FOCC B     =        54
    NVIR A     =      1193
    NVIR B     =      1048

    Elst10,r            =    -0.007689082409 [Eh]
    Exch10              =     0.000000577991 [Eh]
    Exch10 (S^2)        =     0.000000577990 [Eh]

    Iter     Energy [mEh]          dE [mEh]         Residual      Time [s]
       1      -0.02329419       0.023294190       1.434392735           291
       2      -0.02213344      -0.001160748       0.379599034           566
       3      -0.02436585       0.002232403       0.106431535           716
       4      -0.02450795       0.000142106       0.048476987           823
       5      -0.02440469      -0.000103266       0.015407786           924
       6      -0.02440242      -0.000002262       0.004766603           958
       7      -0.02440929       0.000006868       0.001593199           976
       8      -0.02441083       0.000001541       0.000401589           992
       9      -0.02441057      -0.000000266       0.000142453          1012
      10      -0.02441041      -0.000000161       0.000037197          1124
      11      -0.02441042       0.000000011       0.000010307          1154
      12      -0.02441043       0.000000009       0.000003458          1179
      13      -0.02441043       0.000000001       0.000001158          1199
      14      -0.02441043      -0.000000001       0.000000245          1218

    CHF Iterations converged


    Iter     Energy [mEh]          dE [mEh]         Residual      Time [s]
       1      -3.80828659       3.808286591      31.885599508           213
       2      -2.60641179      -1.201874800       4.084427622           464
       3      -2.60922428       0.002812487       1.492931992           553
       4      -2.67258589       0.063361617       0.377537941           583
       5      -2.67608263       0.003496741       0.134921713           738
       6      -2.67408875      -0.001993885       0.079904296           807
       7      -2.67349181      -0.000596943       0.040030604           840
       8      -2.67393304       0.000441229       0.026142481           956
       9      -2.67412072       0.000187688       0.016157874           981
      10      -2.67402286      -0.000097869       0.010658230          1008
      11      -2.67395760      -0.000065251       0.004209050          1120
      12      -2.67397241       0.000014801       0.001785641          1213
      13      -2.67398137       0.000008969       0.000742723          1271
      14      -2.67398122      -0.000000156       0.000345565          1319
      15      -2.67397917      -0.000002045       0.000185706          1381
      16      -2.67397868      -0.000000497       0.000082388          1413
      17      -2.67397931       0.000000635       0.000035221          1439
      18      -2.67397936       0.000000045       0.000017160          1486
      19      -2.67397926      -0.000000092       0.000008725          1534
      20      -2.67397925      -0.000000017       0.000003131          1561
      21      -2.67397926       0.000000011       0.000001318          1585
      22      -2.67397926       0.000000005       0.000000500          1609

    CHF Iterations converged

    Ind20,r (A<-B)      =    -0.000024410426 [Eh]
    Ind20,r (B<-A)      =    -0.002673979264 [Eh]
    Ind20,r             =    -0.002698389690 [Eh]
    Exch-Ind20,r (A<-B) =     0.000000062069 [Eh]
    Exch-Ind20,r (B<-A) =     0.000000812507 [Eh]
    Exch-Ind20,r        =     0.000000874576 [Eh]
    Disp20              =    -0.001530989738 [Eh]
    Disp20 (SS)         =    -0.000765494869 [Eh]
    Disp20 (OS)         =    -0.000765494869 [Eh]
    Exch-Disp20         =     0.000000336104 [Eh]
    Exch-Disp20 (SS)    =     0.000000248917 [Eh]
    Exch-Disp20 (OS)    =     0.000000087187 [Eh]

    SAPT Results 
  --------------------------------------------------------------------------------------------------------
    Electrostatics                 -7.68908241 [mEh]      -4.82497206 [kcal/mol]     -20.18768308 [kJ/mol]
      Elst10,r                     -7.68908241 [mEh]      -4.82497206 [kcal/mol]     -20.18768308 [kJ/mol]

    Exchange                        0.00057799 [mEh]       0.00036269 [kcal/mol]       0.00151751 [kJ/mol]
      Exch10                        0.00057799 [mEh]       0.00036269 [kcal/mol]       0.00151751 [kJ/mol]
      Exch10(S^2)                   0.00057799 [mEh]       0.00036269 [kcal/mol]       0.00151751 [kJ/mol]

    Induction                      -2.76140933 [mEh]      -1.73281051 [kcal/mol]      -7.25007919 [kJ/mol]
      Ind20,r                      -2.69838969 [mEh]      -1.69326509 [kcal/mol]      -7.08462115 [kJ/mol]
      Exch-Ind20,r                  0.00087458 [mEh]       0.00054880 [kcal/mol]       0.00229620 [kJ/mol]
      delta HF,r (2)               -0.06389421 [mEh]      -0.04009422 [kcal/mol]      -0.16775424 [kJ/mol]

    Dispersion                     -1.53065363 [mEh]      -0.96049966 [kcal/mol]      -4.01873056 [kJ/mol]
      Disp20                       -1.53098974 [mEh]      -0.96071056 [kcal/mol]      -4.01961300 [kJ/mol]
      Exch-Disp20                   0.00033610 [mEh]       0.00021091 [kcal/mol]       0.00088244 [kJ/mol]
      Disp20 (SS)                  -0.76549487 [mEh]      -0.48035528 [kcal/mol]      -2.00980650 [kJ/mol]
      Disp20 (OS)                  -0.76549487 [mEh]      -0.48035528 [kcal/mol]      -2.00980650 [kJ/mol]
      Exch-Disp20 (SS)              0.00024892 [mEh]       0.00015620 [kcal/mol]       0.00065353 [kJ/mol]
      Exch-Disp20 (OS)              0.00008719 [mEh]       0.00005471 [kcal/mol]       0.00022891 [kJ/mol]

  Total HF                        -10.44991375 [mEh]      -6.55741988 [kcal/mol]     -27.43624476 [kJ/mol]
  Total SAPT0                     -11.98056738 [mEh]      -7.51791953 [kcal/mol]     -31.45497532 [kJ/mol]

  Special recipe for scaled SAPT0 (see Manual):
    Electrostatics sSAPT0          -7.68908241 [mEh]      -4.82497206 [kcal/mol]     -20.18768308 [kJ/mol]
    Exchange sSAPT0                 0.00057799 [mEh]       0.00036269 [kcal/mol]       0.00151751 [kJ/mol]
    Induction sSAPT0               -2.76140933 [mEh]      -1.73281051 [kcal/mol]      -7.25007919 [kJ/mol]
    Dispersion sSAPT0              -1.53065363 [mEh]      -0.96049966 [kcal/mol]      -4.01873056 [kJ/mol]
  Total sSAPT0                    -11.98056738 [mEh]      -7.51791953 [kcal/mol]     -31.45497532 [kJ/mol]
  --------------------------------------------------------------------------------------------------------

*** tstop() called on d-16-12-3 at Tue Jan 23 00:14:09 2024
Module time:
	user time   =    9111.66 seconds =     151.86 minutes
	system time =     963.83 seconds =      16.06 minutes
	total time  =       6032 seconds =     100.53 minutes
Total time:
	user time   =   18112.80 seconds =     301.88 minutes
	system time =    1156.69 seconds =      19.28 minutes
	total time  =       7054 seconds =     117.57 minutes

    Psi4 stopped on: Tuesday, 23 January 2024 12:14AM
    Psi4 wall time for execution: 1:57:35.67

*** Psi4 exiting successfully. Buy a developer a beer!
