
    -----------------------------------------------------------------------
          Psi4: An Open-Source Ab Initio Electronic Structure Package
                               Psi4 1.9 release

                         Git: Rev {} zzzzzzz 


    D. G. A. Smith, L. A. Burns, A. C. Simmonett, R. M. Parrish,
    M. C. Schieber, R. Galvelis, P. Kraus, H. Kruse, R. Di Remigio,
    A. Alenaizan, A. M. James, S. Lehtola, J. P. Misiewicz, M. Scheurer,
    R. A. Shaw, J. B. Schriber, Y. Xie, Z. L. Glick, D. A. Sirianni,
    J. S. O'Brien, J. M. Waldrop, A. Kumar, E. G. Hohenstein,
    B. P. Pritchard, B. R. Brooks, H. F. Schaefer III, A. Yu. Sokolov,
    K. Patkowski, A. E. DePrince III, U. Bozkaya, R. A. King,
    F. A. Evangelista, J. M. Turney, T. D. Crawford, C. D. Sherrill,
    J. Chem. Phys. 152(18) 184108 (2020). https://doi.org/10.1063/5.0006002

                            Additional Code Authors
    E. T. Seidl, C. L. Janssen, E. F. Valeev, M. L. Leininger,
    J. F. Gonthier, R. M. Richard, H. R. McAlexander, M. Saitow, X. Wang,
    P. Verma, M. H. Lechner, A. Jiang, S. Behnle, A. G. Heide,
    M. F. Herbst, and D. L. Poole

             Previous Authors, Complete List of Code Contributors,
                       and Citations for Specific Modules
    https://github.com/psi4/psi4/blob/master/codemeta.json
    https://github.com/psi4/psi4/graphs/contributors
    http://psicode.org/psi4manual/master/introduction.html#citing-psifour

    -----------------------------------------------------------------------


    Psi4 started on: Saturday, 10 February 2024 01:47PM

    Process ID: 1356162
    Host:       n2cn0350
    PSIDATADIR: /opt/software/pc2/EB-SW/software/PSI4/1.9-foss-2022a/share/psi4
    Memory:     500.0 MiB
    Threads:    16
    
  ==> Input File <==

--------------------------------------------------------------------------
memory 80 GB # how much memory is available ! Depends on the nodes/cores !

molecule dimer {
# monomer A
+1 1    # Charge and multiplicity
C  0.680067 1.417258 -6.115929
C -0.680504 1.419286 -6.115545
N -1.085635 1.420284 -4.797221
C  0.000108 1.423560 -4.015820
C -2.477365 1.469690 -4.329242
N  1.085222 1.420284 -4.797221
H  1.385146 1.409430 -6.933368
H -1.385302 1.419096 -6.933214
H -0.000009 1.425307 -2.934731
C  2.478117 1.403392 -4.332123
H  2.490592 1.430737 -3.241870
H  2.967028 0.489946 -4.679299
H  3.001428 2.278875 -4.723595
H -2.857359 2.491761 -4.409201
H -3.082679 0.799606 -4.942306
H -2.518128 1.142706 -3.289294
--
# monomer B
0 1     # Charge and multiplicity
C   -3.66844126402057      7.80375217008252      0.00190004133558
C   -4.84759871934653      7.13124183134024     -0.00046653359696
C   -4.89495929917518      5.69633040353158     -0.00103944469517
C   -3.65374067877320      4.98073034095895      0.00662099703436
C   -2.40942512149445      7.11398103667468      0.00209438359570
C   -2.42547734410473      5.68112195090346     -0.00491050527438
C   -1.19474401643570      7.78614419430947      0.00356656413763
C   0.03795902893699      7.09942164575698      0.00139585983271
C   0.03033258741920      5.66948955970466     -0.00408752508301
C   -1.20098450790502      4.96927034791531      0.00488220885047
C   1.27795782581485      7.77285944319479      0.00277170839332
C   2.48535808472416      7.08769688523756      0.00049722048857
C   2.48612868491717      5.65477081024076     -0.00644052849921
C   1.25408291964399      4.95607811366431      0.00518741308898
C   3.75171459140595      7.76391215098033      0.00062407186893
C   4.92356605618520      7.07878077698995     -0.00143240883900
C   4.95560727132542      5.64344746336949     -0.00159282164606
C   3.70680153420475      4.94121020833308      0.00349873852374
H   -3.65852113775815      8.89082741913536      0.00358502958574
H   -1.18921332975660      8.87412108735996      0.00753844057883
H   1.28429423888630      8.86083343548850      0.00693053253426
H   3.75354208679975      8.85103527897216      0.00214659618464
H   5.86995870320703      7.61379483465560     -0.00235777588134
H   -5.78823170750226      7.67630221293400     -0.00202638095293
C   -6.09197395869619      4.99326001364347     -0.00291168518608
C   -6.12866148031747      3.58258016879823     -0.00171050815740
C   -3.66457974004527      3.56418217974434     -0.00463560277484
C   -4.89429820469869      2.86108077590057      0.00453338221034
C   -2.43733499489796      2.84761165708481      0.00719617576166
C   -1.20922785759670      3.54788693497833     -0.00648285103018
C   1.24714157216223      3.53468075142962     -0.00729145743546
C   0.01517603956900      2.83311183930540      0.00439272578912
C   2.46764517244071      2.82128997725533      0.00449278391269
C   3.70254947457969      3.52466015442405     -0.00899517692985
C   6.14498038638375      4.92757236613191     -0.00282626685777
C   6.16658835886151      3.51658447594213     -0.00065971342101
C   4.92460995845939      2.80840792535402      0.00587903281610
H   7.08990550964105      5.46688776622306     -0.00658814770723
H   -7.03104175110130      5.54268795285765     -0.00714490013730
C   -7.33969804112295      2.85841153457957     -0.00333767559888
C   -7.36488195805880      1.47032337158330     -0.00157213747140
C   -4.90350460894690      1.44442681216000     -0.00628840166334
C   -6.13225715261081      0.73993935705394      0.00600164231964
C   -3.67687480051673      0.72669714267312      0.00433931473643
C   -2.44565658606518      1.42964113326212     -0.00597039546461
C   -1.22360068130162      0.71532450163492      0.00545886906656
C   0.00763786931376      1.41738314923765      0.00392452278437
C   1.23121980774686      0.70211669058719     -0.01490206287210
C   2.46082110053113      1.40329203612573      0.00460244601878
C   3.68443025419614      0.68719842821222      0.00377365974158
C   4.91870890153864      1.39173456118907     -0.00862816189375
C   7.36980207796101      2.77948220318441     -0.00242013321349
C   7.38016266612146      1.39121750785509     -0.00087345036788
C   6.13979953912259      0.67411862320065      0.00545489144369
H   -8.27919079934664      3.40711804112415     -0.00763522772059
H   8.31511347147953      3.31811809662368     -0.00663070901292
C   -8.59175593758115      0.72483255304480     -0.00123170985383
C   -8.59902460370342     -0.63263980622873      0.00089141472904
C   -6.13981313911873     -0.67413663715361     -0.00609792660607
C   -7.38018411213749     -1.39126618958160      0.00131813493501
C   -4.91868448025621     -1.39175501803000      0.00624257154343
C   -3.68443829568458     -0.68723731573599     -0.00478966852105
C   -2.46081704024768     -1.40334517882457      0.00575341766833
C   -1.23116201232071     -0.70217386488055     -0.00636696112346
C   -0.00756962538737     -1.41741884941102      0.00108956317991
C   1.22364771588843     -0.71527537726392      0.01109518512883
C   2.44567064933149     -1.42964328900682     -0.00065482763106
C   3.67686670284649     -0.72670743155550     -0.00479541202602
C   6.13224884641929     -0.73997883984993     -0.00632338623858
C   4.90351914550401     -1.44445752054090      0.00751768830159
C   8.59901484869081      0.63260386666793     -0.00101133422380
C   8.59174548810050     -0.72485086719319      0.00072504603735
C   7.36486276438985     -1.47033266560598      0.00049486934466
H   -9.52830597181814      1.27684744919284     -0.00270163681798
H   9.54141097460619      1.17457248844457     -0.00206336648518
C   -7.36983790976868     -2.77954514593389      0.00312634335708
C   -4.92459910905015     -2.80843725734101     -0.00460528907921
C   -6.16662249566744     -3.51665219282533      0.00169655107992
C   -3.70251035970491     -3.52468154912026      0.00571878010666
C   -2.46764698511392     -2.82132596280400     -0.00632585824990
C   -0.01513347410770     -2.83314164539971     -0.00604426974092
C   -1.24712184122656     -3.53473217556300      0.00551968366725
C   1.20924506964357     -3.54791467864352      0.00805871345849
C   2.43733602215464     -2.84764173817541     -0.00608104485234
C   4.89430234377080     -2.86112296828604     -0.00526030478103
C   3.66461525504104     -3.56421984553201      0.00761911515957
C   6.12863901474565     -3.58258405771778      0.00096495711699
C   7.33967266469532     -2.85841330737039      0.00248018319869
H   -9.54144911125902     -1.17456346666430      0.00226083090216
H   9.52826186807155     -1.27691907390448      0.00197485379837
H   -8.31516504384864     -3.31814985321231      0.00729857188773
H   8.27915514249207     -3.40714078989363      0.00681973918158
C   -6.14499418870218     -4.92764727278338      0.00302254913999
C   -3.70678334799751     -4.94126171411716     -0.00679841894792
C   -4.95559005800169     -5.64349397349412      0.00116871569699
C   -2.48612132622665     -5.65478557440947      0.00614125209662
C   -1.25405833548005     -4.95612205000132     -0.00503435388927
C   1.20101257386816     -4.96928038819302     -0.00385322963129
C   -0.03033667441341     -5.66952030313900      0.00398997003238
C   3.65375010132847     -4.98074377541453     -0.00309522988330
C   2.42549269587528     -5.68117463552727      0.00628170066869
C   6.09196561781097     -4.99325796338655      0.00325918379042
C   4.89497644461045     -5.69634842095790      0.00202298796027
H   -7.08989238804069     -5.46699984223871      0.00742531082125
H   7.03105520920009     -5.54265853633254      0.00683896355417
C   -4.92354532219813     -7.07882109967734      0.00061394679214
C   -2.48534208823777     -7.08772807792913     -0.00189594564379
C   -3.75168589177895     -7.76394715763627     -0.00170126671874
C   -0.03794895698805     -7.09946487446944     -0.00168022049625
C   -1.27795610040136     -7.77290438466689     -0.00366491325785
C   2.40944432072629     -7.11402201200282     -0.00081701968533
C   1.19474993715296     -7.78618536556242     -0.00296931056689
C   4.84762105249800     -7.13126211057943      0.00168979497423
C   3.66847160587561     -7.80378799294376     -0.00065863938960
H   -5.86994035041618     -7.61383059804164      0.00215798365757
H   5.78824962538815     -7.67633218931421      0.00281691445618
H   -3.75352693944918     -8.85107156923607     -0.00353718114765
H   -1.28430440589466     -8.86087539249706     -0.00809229711623
H   1.18922157469537     -8.87416062058945     -0.00706194725726
H   3.65854661482387     -8.89086063405326     -0.00231318081200

    units angstrom      # Angstroms are the default
    no_reorient         # Geometry fixed, default
    symmetry c1         # C1 symmetry, default
}

set {
    scf_type DF         # Density fitting, faster than exact integrals
    freeze_core True    # Freeze core electrons
    basis jun-cc-pVDZ   # Jun-cc-pVDZ basis set, recommended for sSAPT0 in https://doi.org/10.1063/1.4867135
}

energy('ssapt0')        # Compute sSAPT0 energy, includes also SAPT0
--------------------------------------------------------------------------

  Memory set to  74.506 GiB by Python driver.

Scratch directory: /tmp/
   => Loading Basis Set <=

    Name: JUN-CC-PVDZ
    Role: ORBITAL
    Keyword: BASIS
    atoms 1-2, 4-5, 10, 17-34, 41-53, 56-70, 73-89, 92-104, 109-119, 122-130 entry C          line   164 file /opt/software/pc2/EB-SW/software/PSI4/1.9-foss-2022a/share/psi4/basis/jun-cc-pvdz.gbs 
    atoms 3, 6                                                               entry N          line   198 file /opt/software/pc2/EB-SW/software/PSI4/1.9-foss-2022a/share/psi4/basis/jun-cc-pvdz.gbs 
    atoms 7-9, 11-16, 35-40, 54-55, 71-72, 90-91, 105-108, 120-121, 131-136  entry H          line    36 file /opt/software/pc2/EB-SW/software/PSI4/1.9-foss-2022a/share/psi4/basis/jun-cc-pvdz.gbs 

   => Loading Basis Set <=

    Name: JUN-CC-PVDZ
    Role: ORBITAL
    Keyword: BASIS
    atoms 1-2, 4-5, 10, 17-34, 41-53, 56-70, 73-89, 92-104, 109-119, 122-130 entry C          line   164 file /opt/software/pc2/EB-SW/software/PSI4/1.9-foss-2022a/share/psi4/basis/jun-cc-pvdz.gbs 
    atoms 3, 6                                                               entry N          line   198 file /opt/software/pc2/EB-SW/software/PSI4/1.9-foss-2022a/share/psi4/basis/jun-cc-pvdz.gbs 
    atoms 7-9, 11-16, 35-40, 54-55, 71-72, 90-91, 105-108, 120-121, 131-136  entry H          line    36 file /opt/software/pc2/EB-SW/software/PSI4/1.9-foss-2022a/share/psi4/basis/jun-cc-pvdz.gbs 


  //>>>>>>>>>>>>>>>>>>>>>>>>>>>>>>>>>>>//
  //              Dimer HF             //
  //<<<<<<<<<<<<<<<<<<<<<<<<<<<<<<<<<<<//

   => Libint2 <=

    Primary   basis highest AM E, G, H:  5, 4, 3
    Auxiliary basis highest AM E, G, H:  6, 5, 4
    Onebody   basis highest AM E, G, H:  6, 5, 4
    Solid Harmonics ordering:            gaussian

*** tstart() called on n2cn0350
*** at Sat Feb 10 13:47:57 2024

   => Loading Basis Set <=

    Name: JUN-CC-PVDZ
    Role: ORBITAL
    Keyword: BASIS
    atoms 1-2, 4-5, 10, 17-34, 41-53, 56-70, 73-89, 92-104, 109-119, 122-130 entry C          line   164 file /opt/software/pc2/EB-SW/software/PSI4/1.9-foss-2022a/share/psi4/basis/jun-cc-pvdz.gbs 
    atoms 3, 6                                                               entry N          line   198 file /opt/software/pc2/EB-SW/software/PSI4/1.9-foss-2022a/share/psi4/basis/jun-cc-pvdz.gbs 
    atoms 7-9, 11-16, 35-40, 54-55, 71-72, 90-91, 105-108, 120-121, 131-136  entry H          line    36 file /opt/software/pc2/EB-SW/software/PSI4/1.9-foss-2022a/share/psi4/basis/jun-cc-pvdz.gbs 


         ---------------------------------------------------------
                                   SCF
               by Justin Turney, Rob Parrish, Andy Simmonett
                          and Daniel G. A. Smith
                              RHF Reference
                       16 Threads,  76293 MiB Core
         ---------------------------------------------------------

  ==> Geometry <==

    Molecular point group: c1
    Full point group: C1

    Geometry (in Angstrom), charge = 1, multiplicity = 1:

       Center              X                  Y                   Z               Mass       
    ------------   -----------------  -----------------  -----------------  -----------------
         C            0.680062820275     1.308604348936    -5.742347627422    12.000000000000
         C           -0.680508179725     1.310632348936    -5.741963627422    12.000000000000
         N           -1.085639179725     1.311630348936    -4.423639627422    14.003074004430
         C            0.000103820275     1.314906348936    -3.642238627422    12.000000000000
         C           -2.477369179725     1.361036348936    -3.955660627422    12.000000000000
         N            1.085217820275     1.311630348936    -4.423639627422    14.003074004430
         H            1.385141820275     1.300776348936    -6.559786627422     1.007825032230
         H           -1.385306179725     1.310442348936    -6.559632627422     1.007825032230
         H           -0.000013179725     1.316653348936    -2.561149627422     1.007825032230
         C            2.478112820275     1.294738348936    -3.958541627422    12.000000000000
         H            2.490587820275     1.322083348936    -2.868288627422     1.007825032230
         H            2.967023820275     0.381292348936    -4.305717627422     1.007825032230
         H            3.001423820275     2.170221348936    -4.350013627422     1.007825032230
         H           -2.857363179725     2.383107348936    -4.035619627422     1.007825032230
         H           -3.082683179725     0.690952348936    -4.568724627422     1.007825032230
         H           -2.518132179725     1.034052348936    -2.915712627422     1.007825032230
         C           -3.668445443746     7.695098519018     0.375481413913    12.000000000000
         C           -4.847602899072     7.022588180276     0.373114838981    12.000000000000
         C           -4.894963478901     5.587676752467     0.372541927882    12.000000000000
         C           -3.653744858499     4.872076689895     0.380202369612    12.000000000000
         C           -2.409429301220     7.005327385610     0.375675756173    12.000000000000
         C           -2.425481523830     5.572468299839     0.368670867303    12.000000000000
         C           -1.194748196161     7.677490543245     0.377147936715    12.000000000000
         C            0.037954849212     6.990767994693     0.374977232410    12.000000000000
         C            0.030328407694     5.560835908640     0.369493847495    12.000000000000
         C           -1.200988687630     4.860616696851     0.378463581428    12.000000000000
         C            1.277953646089     7.664205792130     0.376353080971    12.000000000000
         C            2.485353904999     6.979043234173     0.374078593066    12.000000000000
         C            2.486124505192     5.546117159176     0.367140844078    12.000000000000
         C            1.254078739919     4.847424462600     0.378768785667    12.000000000000
         C            3.751710411681     7.655258499916     0.374205444447    12.000000000000
         C            4.923561876460     6.970127125926     0.372148963739    12.000000000000
         C            4.955603091600     5.534793812305     0.371988550932    12.000000000000
         C            3.706797354479     4.832556557269     0.377080111101    12.000000000000
         H           -3.658525317484     8.782173768071     0.377166402163     1.007825032230
         H           -1.189217509482     8.765467436296     0.381119813156     1.007825032230
         H            1.284290059161     8.752179784424     0.380511905112     1.007825032230
         H            3.753537907074     8.742381627908     0.375727968762     1.007825032230
         H            5.869954523482     7.505141183591     0.371223596696     1.007825032230
         H           -5.788235887228     7.567648561870     0.371554991625     1.007825032230
         C           -6.091978138422     4.884606362579     0.370669687391    12.000000000000
         C           -6.128665660043     3.473926517734     0.371870864420    12.000000000000
         C           -3.664583919771     3.455528528680     0.368945769803    12.000000000000
         C           -4.894302384424     2.752427124836     0.378114754788    12.000000000000
         C           -2.437339174623     2.738958006020     0.380777548339    12.000000000000
         C           -1.209232037322     3.439233283914     0.367098521547    12.000000000000
         C            1.247137392437     3.426027100365     0.366289915142    12.000000000000
         C            0.015171859844     2.724458188241     0.377974098367    12.000000000000
         C            2.467640992715     2.712636326191     0.378074156490    12.000000000000
         C            3.702545294854     3.416006503360     0.364586195648    12.000000000000
         C            6.144976206658     4.818918715067     0.370755105720    12.000000000000
         C            6.166584179136     3.407930824878     0.372921659157    12.000000000000
         C            4.924605778734     2.699754274290     0.379460405394    12.000000000000
         H            7.089901329916     5.358234115159     0.366993224870     1.007825032230
         H           -7.031045930827     5.434034301793     0.366436472440     1.007825032230
         C           -7.339702220848     2.749757883515     0.370243696979    12.000000000000
         C           -7.364886137784     1.361669720519     0.372009235106    12.000000000000
         C           -4.903508788672     1.335773161096     0.367292970914    12.000000000000
         C           -6.132261332336     0.631285705989     0.379583014897    12.000000000000
         C           -3.676878980242     0.618043491609     0.377920687314    12.000000000000
         C           -2.445660765791     1.320987482198     0.367610977113    12.000000000000
         C           -1.223604861027     0.606670850570     0.379040241644    12.000000000000
         C            0.007633689588     1.308729498173     0.377505895362    12.000000000000
         C            1.231215628021     0.593463039523     0.358679309705    12.000000000000
         C            2.460816920806     1.294638385061     0.378183818596    12.000000000000
         C            3.684426074471     0.578544777148     0.377355032319    12.000000000000
         C            4.918704721813     1.283080910125     0.364953210684    12.000000000000
         C            7.369797898236     2.670828552120     0.371161239364    12.000000000000
         C            7.380158486396     1.282563856791     0.372707922210    12.000000000000
         C            6.139795359397     0.565464972136     0.379036264021    12.000000000000
         H           -8.279194979072     3.298464390060     0.365946144857     1.007825032230
         H            8.315109291754     3.209464445559     0.366950663565     1.007825032230
         C           -8.591760117307     0.616178901980     0.372349662724    12.000000000000
         C           -8.599028783429    -0.741293457293     0.374472787307    12.000000000000
         C           -6.139817318844    -0.782790288218     0.367483445972    12.000000000000
         C           -7.380188291863    -1.499919840646     0.374899507513    12.000000000000
         C           -4.918688659982    -1.500408669094     0.379823944121    12.000000000000
         C           -3.684442475410    -0.795890966800     0.368791704057    12.000000000000
         C           -2.460821219973    -1.511998829889     0.379334790246    12.000000000000
         C           -1.231166192046    -0.810827515945     0.367214411454    12.000000000000
         C           -0.007573805113    -1.526072500475     0.374670935757    12.000000000000
         C            1.223643536163    -0.823929028328     0.384676557706    12.000000000000
         C            2.445666469606    -1.538296940071     0.372926544947    12.000000000000
         C            3.676862523121    -0.835361082620     0.368785960552    12.000000000000
         C            6.132244666694    -0.848632490914     0.367257986339    12.000000000000
         C            4.903514965779    -1.553111171605     0.381099060879    12.000000000000
         C            8.599010668965     0.523950215603     0.372570038354    12.000000000000
         C            8.591741308375    -0.833504518258     0.374306418615    12.000000000000
         C            7.364858584664    -1.578986316670     0.374076241922    12.000000000000
         H           -9.528310151544     1.168193798128     0.370879735760     1.007825032230
         H            9.541406794881     1.065918837380     0.371518006092     1.007825032230
         C           -7.369842089494    -2.888198796998     0.376707715935    12.000000000000
         C           -4.924603288776    -2.917090908405     0.368976083498    12.000000000000
         C           -6.166626675393    -3.625305843890     0.375277923657    12.000000000000
         C           -3.702514539430    -3.633335200185     0.379300152684    12.000000000000
         C           -2.467651164839    -2.929979613868     0.367255514328    12.000000000000
         C           -0.015137653833    -2.941795296464     0.367537102837    12.000000000000
         C           -1.247126020952    -3.643385826627     0.379101056245    12.000000000000
         C            1.209240889918    -3.656568329708     0.381640086036    12.000000000000
         C            2.437331842429    -2.956295389240     0.367500327725    12.000000000000
         C            4.894298164045    -2.969776619350     0.368321067797    12.000000000000
         C            3.664611075316    -3.672873496596     0.381200487737    12.000000000000
         C            6.128634835020    -3.691237708782     0.374546329695    12.000000000000
         C            7.339668484970    -2.967066958435     0.376061555776    12.000000000000
         H           -9.541453290984    -1.283217117729     0.375842203480     1.007825032230
         H            9.528257688346    -1.385572724969     0.375556226376     1.007825032230
         H           -8.315169223574    -3.426803504277     0.380879944465     1.007825032230
         H            8.279150962767    -3.515794440958     0.380401111759     1.007825032230
         C           -6.144998368428    -5.036300923848     0.376603921718    12.000000000000
         C           -3.706787527723    -5.049915365182     0.366782953630    12.000000000000
         C           -4.955594237727    -5.752147624559     0.374750088275    12.000000000000
         C           -2.486125505952    -5.763439225474     0.379722624674    12.000000000000
         C           -1.254062515205    -5.064775701066     0.368547018688    12.000000000000
         C            1.201008394143    -5.077934039257     0.369728142946    12.000000000000
         C           -0.030340854139    -5.778173954203     0.377571342610    12.000000000000
         C            3.653745921603    -5.089397426479     0.370486142694    12.000000000000
         C            2.425488516150    -5.789828286592     0.379863073246    12.000000000000
         C            6.091961438086    -5.101911614451     0.376840556368    12.000000000000
         C            4.894972264885    -5.805002072022     0.375604360538    12.000000000000
         H           -7.089896567766    -5.575653493303     0.381006683399     1.007825032230
         H            7.031051029475    -5.651312187397     0.380420336132     1.007825032230
         C           -4.923549501924    -7.187474750742     0.374195319370    12.000000000000
         C           -2.485346267963    -7.196381728994     0.371685426934    12.000000000000
         C           -3.751690071504    -7.872600808701     0.371880105859    12.000000000000
         C           -0.037953136713    -7.208118525534     0.371901152081    12.000000000000
         C           -1.277960280127    -7.881558035731     0.369916459320    12.000000000000
         C            2.409440141001    -7.222675663067     0.372764352892    12.000000000000
         C            1.194745757428    -7.894839016627     0.370612062011    12.000000000000
         C            4.847616872773    -7.239915761644     0.375271167552    12.000000000000
         C            3.668467426150    -7.912441644008     0.372922733188    12.000000000000
         H           -5.869944530142    -7.722484249106     0.375739356235     1.007825032230
         H            5.788245445663    -7.784985840379     0.376398287034     1.007825032230
         H           -3.753531119175    -8.959725220301     0.370044191430     1.007825032230
         H           -1.284308585620    -8.969529043562     0.365489075461     1.007825032230
         H            1.189217394970    -8.982814271654     0.366519425320     1.007825032230
         H            3.658542435098    -8.999514285118     0.371268191766     1.007825032230

  Running in c1 symmetry.

  Rotational constants: A =      0.00064  B =      0.00064  C =      0.00035 [cm^-1]
  Rotational constants: A =     19.20888  B =     19.18218  C =     10.47551 [MHz]
  Nuclear repulsion = 18103.796914056383685

  Charge       = 1
  Multiplicity = 1
  Electrons    = 652
  Nalpha       = 326
  Nbeta        = 326

  ==> Algorithm <==

  SCF Algorithm Type is DF.
  DIIS enabled.
  MOM disabled.
  Fractional occupation disabled.
  Guess Type is SAD.
  Energy threshold   = 1.00e-08
  Density threshold  = 1.00e-08
  Integral threshold = 1.00e-12

  ==> Primary Basis <==

  Basis Set: JUN-CC-PVDZ
    Blend: JUN-CC-PVDZ
    Number of shells: 923
    Number of basis functions: 2019
    Number of Cartesian functions: 2122
    Spherical Harmonics?: true
    Max angular momentum: 2

   => Loading Basis Set <=

    Name: (JUN-CC-PVDZ AUX)
    Role: JKFIT
    Keyword: DF_BASIS_SCF
    atoms 1-2, 4-5, 10, 17-34, 41-53, 56-70, 73-89, 92-104, 109-119, 122-130 entry C          line   146 file /opt/software/pc2/EB-SW/software/PSI4/1.9-foss-2022a/share/psi4/basis/jun-cc-pvdz-jkfit.gbs 
    atoms 3, 6                                                               entry N          line   202 file /opt/software/pc2/EB-SW/software/PSI4/1.9-foss-2022a/share/psi4/basis/jun-cc-pvdz-jkfit.gbs 
    atoms 7-9, 11-16, 35-40, 54-55, 71-72, 90-91, 105-108, 120-121, 131-136  entry H          line    70 file /opt/software/pc2/EB-SW/software/PSI4/1.9-foss-2022a/share/psi4/basis/jun-cc-pvdz-jkfit.gbs 

  ==> Integral Setup <==

  ==> DiskDFJK: Density-Fitted J/K Matrices <==

    J tasked:                  Yes
    K tasked:                  Yes
    wK tasked:                  No
    OpenMP threads:             16
    Integrals threads:          16
    Memory [MiB]:            57220
    Algorithm:                Disk
    Integral Cache:           SAVE
    Schwarz Cutoff:          1E-12
    Fitting Condition:       1E-10

   => Auxiliary Basis Set <=

  Basis Set: (JUN-CC-PVDZ AUX)
    Blend: JUN-CC-PVDZ-JKFIT
    Number of shells: 3078
    Number of basis functions: 8896
    Number of Cartesian functions: 10198
    Spherical Harmonics?: true
    Max angular momentum: 3

  Minimum eigenvalue in the overlap matrix is 8.1131938383E-11.
  Reciprocal condition number of the overlap matrix is 3.4253762174E-12.
    Using canonical orthogonalization.
  Overall, 39 of 2019 possible MOs eliminated.


  ==> Pre-Iterations <==

  SCF Guess: Superposition of Atomic Densities via on-the-fly atomic UHF (no occupation information).

   -------------------------
    Irrep   Nso     Nmo    
   -------------------------
     A       2019    1980 
   -------------------------
    Total    2019    1980
   -------------------------

  ==> Iterations <==

                           Total Energy        Delta E     RMS |[F,P]|

   @DF-RHF iter SAD: -3967.23640072446506   -3.96724e+03   0.00000e+00 
   @DF-RHF iter   1: -3952.11972576681046    1.51167e+01   7.15935e-04 ADIIS/DIIS
   @DF-RHF iter   2: -3953.50485333637971   -1.38513e+00   2.38270e-04 ADIIS/DIIS
   @DF-RHF iter   3: -3953.62714837602971   -1.22295e-01   1.11222e-04 ADIIS/DIIS
   @DF-RHF iter   4: -3953.65330447732140   -2.61561e-02   4.79971e-05 DIIS
   @DF-RHF iter   5: -3953.65924268593244   -5.93821e-03   1.16886e-05 DIIS
   @DF-RHF iter   6: -3953.65976463063498   -5.21945e-04   4.67452e-06 DIIS
   @DF-RHF iter   7: -3953.65995967088884   -1.95040e-04   2.23935e-06 DIIS
   @DF-RHF iter   8: -3953.66002445160302   -6.47807e-05   1.11115e-06 DIIS
   @DF-RHF iter   9: -3953.66004248808076   -1.80365e-05   3.64434e-07 DIIS
   @DF-RHF iter  10: -3953.66004372169118   -1.23361e-06   1.48303e-07 DIIS
   @DF-RHF iter  11: -3953.66004387692283   -1.55232e-07   6.08468e-08 DIIS
   @DF-RHF iter  12: -3953.66004391010074   -3.31779e-08   3.12504e-08 DIIS
   @DF-RHF iter  13: -3953.66004391727711   -7.17637e-09   1.03829e-08 DIIS
   @DF-RHF iter  14: -3953.66004391800652   -7.29415e-10   4.35012e-09 DIIS
  Energy and wave function converged.


  ==> Post-Iterations <==

    Orbital Energies [Eh]
    ---------------------

    Doubly Occupied:                                                      

       1A    -15.802550     2A    -15.802081     3A    -11.495924  
       4A    -11.431250     5A    -11.429693     6A    -11.417247  
       7A    -11.417226     8A    -11.337853     9A    -11.336362  
      10A    -11.336298    11A    -11.335847    12A    -11.334817  
      13A    -11.334670    14A    -11.333847    15A    -11.333688  
      16A    -11.333444    17A    -11.333168    18A    -11.332863  
      19A    -11.332717    20A    -11.331531    21A    -11.331299  
      22A    -11.331217    23A    -11.330797    24A    -11.330698  
      25A    -11.329735    26A    -11.329663    27A    -11.329200  
      28A    -11.329057    29A    -11.329040    30A    -11.328771  
      31A    -11.328728    32A    -11.327481    33A    -11.327470  
      34A    -11.327408    35A    -11.327281    36A    -11.326350  
      37A    -11.326250    38A    -11.326210    39A    -11.326104  
      40A    -11.326067    41A    -11.325457    42A    -11.325424  
      43A    -11.325344    44A    -11.325299    45A    -11.325238  
      46A    -11.325143    47A    -11.325112    48A    -11.324467  
      49A    -11.324428    50A    -11.324026    51A    -11.323971  
      52A    -11.323948    53A    -11.323929    54A    -11.323628  
      55A    -11.323579    56A    -11.323518    57A    -11.323491  
      58A    -11.322824    59A    -11.322788    60A    -11.322572  
      61A    -11.322405    62A    -11.322395    63A    -11.322359  
      64A    -11.321985    65A    -11.321955    66A    -11.320993  
      67A    -11.320967    68A    -11.320803    69A    -11.320763  
      70A    -11.320747    71A    -11.320725    72A    -11.320284  
      73A    -11.319823    74A    -11.319801    75A    -11.319205  
      76A    -11.319168    77A    -11.319137    78A    -11.318376  
      79A    -11.318372    80A    -11.316546    81A    -11.316506  
      82A    -11.316470    83A    -11.316460    84A    -11.314987  
      85A    -11.314918    86A    -11.314228    87A    -11.314178  
      88A    -11.314038    89A    -11.314015    90A    -11.312747  
      91A    -11.312698    92A    -11.312201    93A    -11.312154  
      94A    -11.312077    95A    -11.312066    96A    -11.311649  
      97A    -11.311565    98A    -11.310585    99A    -11.310538  
     100A    -11.309240   101A    -11.309230   102A    -11.307730  
     103A    -11.307723   104A     -1.546659   105A     -1.402062  
     106A     -1.322985   107A     -1.305045   108A     -1.304422  
     109A     -1.284468   110A     -1.284455   111A     -1.281721  
     112A     -1.263615   113A     -1.258908   114A     -1.253975  
     115A     -1.253633   116A     -1.235965   117A     -1.235941  
     118A     -1.220626   119A     -1.220577   120A     -1.218217  
     121A     -1.207939   122A     -1.206478   123A     -1.206443  
     124A     -1.192155   125A     -1.179504   126A     -1.177753  
     127A     -1.177470   128A     -1.174790   129A     -1.172937  
     130A     -1.157350   131A     -1.151837   132A     -1.151771  
     133A     -1.138406   134A     -1.138389   135A     -1.131872  
     136A     -1.131750   137A     -1.129813   138A     -1.109581  
     139A     -1.109527   140A     -1.103407   141A     -1.100126  
     142A     -1.100115   143A     -1.090382   144A     -1.087796  
     145A     -1.087627   146A     -1.087085   147A     -1.070421  
     148A     -1.069232   149A     -1.066206   150A     -1.064514  
     151A     -1.064462   152A     -1.051972   153A     -1.034413  
     154A     -1.034334   155A     -1.017772   156A     -1.017699  
     157A     -0.991822   158A     -0.971647   159A     -0.971497  
     160A     -0.970821   161A     -0.966333   162A     -0.966292  
     163A     -0.964914   164A     -0.957896   165A     -0.957848  
     166A     -0.955305   167A     -0.954686   168A     -0.952751  
     169A     -0.933643   170A     -0.928790   171A     -0.914160  
     172A     -0.912514   173A     -0.912076   174A     -0.909598  
     175A     -0.906470   176A     -0.897055   177A     -0.896964  
     178A     -0.888908   179A     -0.888879   180A     -0.885387  
     181A     -0.849300   182A     -0.849133   183A     -0.847057  
     184A     -0.845508   185A     -0.844931   186A     -0.844268  
     187A     -0.843950   188A     -0.830173   189A     -0.825945  
     190A     -0.819042   191A     -0.814298   192A     -0.794877  
     193A     -0.790099   194A     -0.789798   195A     -0.788231  
     196A     -0.787473   197A     -0.787280   198A     -0.786147  
     199A     -0.782779   200A     -0.779970   201A     -0.777686  
     202A     -0.777627   203A     -0.761413   204A     -0.761405  
     205A     -0.759343   206A     -0.754817   207A     -0.752336  
     208A     -0.750382   209A     -0.747793   210A     -0.747746  
     211A     -0.744459   212A     -0.744453   213A     -0.741737  
     214A     -0.715243   215A     -0.714225   216A     -0.714189  
     217A     -0.712917   218A     -0.712697   219A     -0.710879  
     220A     -0.704909   221A     -0.704755   222A     -0.702124  
     223A     -0.700926   224A     -0.699138   225A     -0.699093  
     226A     -0.698987   227A     -0.693833   228A     -0.691675  
     229A     -0.686480   230A     -0.685825   231A     -0.676354  
     232A     -0.676289   233A     -0.671000   234A     -0.670953  
     235A     -0.665474   236A     -0.664756   237A     -0.663207  
     238A     -0.662870   239A     -0.662352   240A     -0.661407  
     241A     -0.657383   242A     -0.657151   243A     -0.657097  
     244A     -0.656794   245A     -0.653367   246A     -0.653325  
     247A     -0.652159   248A     -0.639721   249A     -0.639669  
     250A     -0.637752   251A     -0.637741   252A     -0.636575  
     253A     -0.635626   254A     -0.632449   255A     -0.632246  
     256A     -0.628560   257A     -0.628321   258A     -0.621602  
     259A     -0.621573   260A     -0.620680   261A     -0.618747  
     262A     -0.616701   263A     -0.612887   264A     -0.607407  
     265A     -0.607008   266A     -0.601482   267A     -0.601002  
     268A     -0.595736   269A     -0.595494   270A     -0.592071  
     271A     -0.589543   272A     -0.589504   273A     -0.579982  
     274A     -0.579851   275A     -0.577177   276A     -0.577136  
     277A     -0.570803   278A     -0.570643   279A     -0.565440  
     280A     -0.560180   281A     -0.559198   282A     -0.559141  
     283A     -0.558827   284A     -0.558753   285A     -0.555713  
     286A     -0.542578   287A     -0.538681   288A     -0.538638  
     289A     -0.535819   290A     -0.533084   291A     -0.529327  
     292A     -0.529129   293A     -0.522375   294A     -0.511614  
     295A     -0.511412   296A     -0.506679   297A     -0.506422  
     298A     -0.505923   299A     -0.495380   300A     -0.495110  
     301A     -0.494209   302A     -0.470880   303A     -0.470797  
     304A     -0.451112   305A     -0.451006   306A     -0.449143  
     307A     -0.446457   308A     -0.446400   309A     -0.417148  
     310A     -0.417082   311A     -0.413763   312A     -0.405715  
     313A     -0.404062   314A     -0.403880   315A     -0.393350  
     316A     -0.393257   317A     -0.371756   318A     -0.367120  
     319A     -0.367025   320A     -0.362969   321A     -0.348148  
     322A     -0.318119   323A     -0.318072   324A     -0.315899  
     325A     -0.266815   326A     -0.266615  

    Virtual:                                                              

     327A     -0.074253   328A     -0.074028   329A     -0.039252  
     330A     -0.036294   331A     -0.031198   332A     -0.029786  
     333A     -0.029737   334A     -0.019509   335A     -0.018427  
     336A     -0.009851   337A     -0.007851   338A     -0.005680  
     339A     -0.003915   340A     -0.000303   341A      0.000603  
     342A      0.002143   343A      0.002647   344A      0.004604  
     345A      0.005321   346A      0.005459   347A      0.005542  
     348A      0.009009   349A      0.009974   350A      0.011290  
     351A      0.013303   352A      0.014855   353A      0.015241  
     354A      0.015716   355A      0.015809   356A      0.018899  
     357A      0.019849   358A      0.020371   359A      0.022323  
     360A      0.025444   361A      0.026641   362A      0.026678  
     363A      0.027320   364A      0.031769   365A      0.032371  
     366A      0.035542   367A      0.036812   368A      0.037607  
     369A      0.038304   370A      0.041291   371A      0.042635  
     372A      0.043778   373A      0.044640   374A      0.046382  
     375A      0.046887   376A      0.048488   377A      0.049810  
     378A      0.053186   379A      0.053786   380A      0.054119  
     381A      0.054356   382A      0.054776   383A      0.055554  
     384A      0.055796   385A      0.056652   386A      0.057233  
     387A      0.057277   388A      0.059189   389A      0.063446  
     390A      0.064223   391A      0.064271   392A      0.068231  
     393A      0.068863   394A      0.069514   395A      0.069880  
     396A      0.075147   397A      0.075863   398A      0.076161  
     399A      0.077869   400A      0.078167   401A      0.081416  
     402A      0.081986   403A      0.083340   404A      0.084326  
     405A      0.087195   406A      0.087389   407A      0.089857  
     408A      0.090345   409A      0.091040   410A      0.092502  
     411A      0.093885   412A      0.094072   413A      0.097438  
     414A      0.097774   415A      0.099494   416A      0.099912  
     417A      0.103148   418A      0.106895   419A      0.107374  
     420A      0.107592   421A      0.108378   422A      0.109315  
     423A      0.110226   424A      0.110671   425A      0.112139  
     426A      0.112935   427A      0.115007   428A      0.115297  
     429A      0.115624   430A      0.116303   431A      0.116621  
     432A      0.118595   433A      0.118781   434A      0.120827  
     435A      0.125682   436A      0.127652   437A      0.128265  
     438A      0.131003   439A      0.131996   440A      0.132640  
     441A      0.133604   442A      0.135157   443A      0.136171  
     444A      0.136789   445A      0.137246   446A      0.137501  
     447A      0.138697   448A      0.143487   449A      0.144205  
     450A      0.145804   451A      0.147619   452A      0.148240  
     453A      0.148978   454A      0.150122   455A      0.150545  
     456A      0.151066   457A      0.151631   458A      0.152919  
     459A      0.153674   460A      0.153910   461A      0.154325  
     462A      0.155286   463A      0.156593   464A      0.156847  
     465A      0.158112   466A      0.158511   467A      0.159952  
     468A      0.160619   469A      0.162128   470A      0.162773  
     471A      0.163691   472A      0.164064   473A      0.166571  
     474A      0.167166   475A      0.167274   476A      0.168394  
     477A      0.168810   478A      0.171148   479A      0.171593  
     480A      0.173359   481A      0.174861   482A      0.175466  
     483A      0.176159   484A      0.176830   485A      0.177842  
     486A      0.179105   487A      0.179858   488A      0.181582  
     489A      0.183341   490A      0.183885   491A      0.185256  
     492A      0.186050   493A      0.187513   494A      0.187978  
     495A      0.189051   496A      0.189632   497A      0.191229  
     498A      0.191699   499A      0.193203   500A      0.193734  
     501A      0.195860   502A      0.196716   503A      0.197794  
     504A      0.199145   505A      0.199256   506A      0.201822  
     507A      0.203833   508A      0.204216   509A      0.205457  
     510A      0.207533   511A      0.208023   512A      0.208157  
     513A      0.209796   514A      0.210602   515A      0.211328  
     516A      0.212066   517A      0.213503   518A      0.213700  
     519A      0.214502   520A      0.215221   521A      0.217461  
     522A      0.218991   523A      0.219790   524A      0.220814  
     525A      0.221295   526A      0.222698   527A      0.222827  
     528A      0.224527   529A      0.225339   530A      0.226488  
     531A      0.227420   532A      0.229307   533A      0.230163  
     534A      0.230590   535A      0.231431   536A      0.233084  
     537A      0.234369   538A      0.235677   539A      0.236432  
     540A      0.237251   541A      0.237422   542A      0.238043  
     543A      0.240506   544A      0.241658   545A      0.243188  
     546A      0.245321   547A      0.246205   548A      0.246839  
     549A      0.247563   550A      0.247927   551A      0.249374  
     552A      0.249917   553A      0.250461   554A      0.251653  
     555A      0.252172   556A      0.253817   557A      0.255440  
     558A      0.256106   559A      0.257499   560A      0.258483  
     561A      0.260022   562A      0.261665   563A      0.261946  
     564A      0.262299   565A      0.263084   566A      0.263666  
     567A      0.264160   568A      0.264594   569A      0.266176  
     570A      0.266998   571A      0.268019   572A      0.270144  
     573A      0.270707   574A      0.271640   575A      0.272314  
     576A      0.272795   577A      0.273888   578A      0.274639  
     579A      0.274835   580A      0.275233   581A      0.275365  
     582A      0.276210   583A      0.277773   584A      0.278573  
     585A      0.278763   586A      0.280479   587A      0.281053  
     588A      0.282460   589A      0.284200   590A      0.285136  
     591A      0.287562   592A      0.288886   593A      0.289269  
     594A      0.289519   595A      0.289865   596A      0.290513  
     597A      0.291102   598A      0.292060   599A      0.293894  
     600A      0.295259   601A      0.296899   602A      0.297898  
     603A      0.299672   604A      0.300678   605A      0.302147  
     606A      0.303322   607A      0.303535   608A      0.304538  
     609A      0.305747   610A      0.306780   611A      0.307406  
     612A      0.308094   613A      0.308358   614A      0.309572  
     615A      0.310164   616A      0.311596   617A      0.311850  
     618A      0.313358   619A      0.313446   620A      0.314795  
     621A      0.317041   622A      0.319789   623A      0.320361  
     624A      0.321623   625A      0.321944   626A      0.323374  
     627A      0.324445   628A      0.324670   629A      0.325464  
     630A      0.325851   631A      0.327093   632A      0.327819  
     633A      0.331061   634A      0.331452   635A      0.332114  
     636A      0.333849   637A      0.334088   638A      0.334945  
     639A      0.335246   640A      0.335507   641A      0.336261  
     642A      0.337481   643A      0.337848   644A      0.338120  
     645A      0.339154   646A      0.340041   647A      0.340794  
     648A      0.342415   649A      0.343874   650A      0.344357  
     651A      0.344736   652A      0.345247   653A      0.345992  
     654A      0.346439   655A      0.347353   656A      0.348048  
     657A      0.348291   658A      0.350419   659A      0.351051  
     660A      0.351299   661A      0.352245   662A      0.353271  
     663A      0.353822   664A      0.354381   665A      0.354818  
     666A      0.357270   667A      0.357725   668A      0.357975  
     669A      0.358213   670A      0.359043   671A      0.361273  
     672A      0.362033   673A      0.362881   674A      0.364785  
     675A      0.365916   676A      0.366933   677A      0.367902  
     678A      0.368177   679A      0.369369   680A      0.370455  
     681A      0.370797   682A      0.371587   683A      0.372505  
     684A      0.373261   685A      0.375054   686A      0.376273  
     687A      0.376807   688A      0.379265   689A      0.379735  
     690A      0.380313   691A      0.380987   692A      0.381924  
     693A      0.382572   694A      0.384047   695A      0.387181  
     696A      0.387346   697A      0.390403   698A      0.391977  
     699A      0.392441   700A      0.393442   701A      0.394499  
     702A      0.395335   703A      0.395917   704A      0.396555  
     705A      0.396859   706A      0.397703   707A      0.397735  
     708A      0.399504   709A      0.401991   710A      0.402499  
     711A      0.403071   712A      0.404236   713A      0.405314  
     714A      0.406170   715A      0.406402   716A      0.406833  
     717A      0.407702   718A      0.408598   719A      0.411092  
     720A      0.411595   721A      0.411875   722A      0.412793  
     723A      0.413514   724A      0.413831   725A      0.415586  
     726A      0.416062   727A      0.417131   728A      0.417618  
     729A      0.418257   730A      0.418928   731A      0.420023  
     732A      0.421934   733A      0.425570   734A      0.427016  
     735A      0.427905   736A      0.428997   737A      0.429923  
     738A      0.431328   739A      0.432590   740A      0.433956  
     741A      0.436101   742A      0.436653   743A      0.437857  
     744A      0.438154   745A      0.440619   746A      0.440705  
     747A      0.441768   748A      0.443559   749A      0.444661  
     750A      0.445375   751A      0.446588   752A      0.447630  
     753A      0.448282   754A      0.449548   755A      0.450634  
     756A      0.452257   757A      0.453962   758A      0.455188  
     759A      0.456040   760A      0.457262   761A      0.457690  
     762A      0.458466   763A      0.459760   764A      0.460030  
     765A      0.460959   766A      0.462520   767A      0.464565  
     768A      0.466715   769A      0.466947   770A      0.467776  
     771A      0.468887   772A      0.471180   773A      0.472298  
     774A      0.472972   775A      0.475146   776A      0.478183  
     777A      0.479053   778A      0.480395   779A      0.481156  
     780A      0.482946   781A      0.485285   782A      0.487525  
     783A      0.490036   784A      0.495203   785A      0.499174  
     786A      0.500214   787A      0.502192   788A      0.502600  
     789A      0.503570   790A      0.504539   791A      0.505226  
     792A      0.505611   793A      0.507208   794A      0.508384  
     795A      0.509630   796A      0.510597   797A      0.511880  
     798A      0.513455   799A      0.514349   800A      0.515535  
     801A      0.516764   802A      0.517860   803A      0.518206  
     804A      0.519362   805A      0.522185   806A      0.522860  
     807A      0.524331   808A      0.525301   809A      0.528281  
     810A      0.529635   811A      0.530670   812A      0.531316  
     813A      0.532627   814A      0.534470   815A      0.536631  
     816A      0.537883   817A      0.539681   818A      0.542805  
     819A      0.543299   820A      0.544613   821A      0.545080  
     822A      0.546198   823A      0.554463   824A      0.557682  
     825A      0.557690   826A      0.559457   827A      0.560033  
     828A      0.561038   829A      0.564788   830A      0.565303  
     831A      0.569081   832A      0.570315   833A      0.570678  
     834A      0.574653   835A      0.578856   836A      0.579880  
     837A      0.585518   838A      0.588071   839A      0.590668  
     840A      0.593680   841A      0.594906   842A      0.595639  
     843A      0.598097   844A      0.598778   845A      0.599885  
     846A      0.604513   847A      0.604878   848A      0.606062  
     849A      0.610831   850A      0.618307   851A      0.621486  
     852A      0.623324   853A      0.624253   854A      0.626910  
     855A      0.627688   856A      0.629386   857A      0.630057  
     858A      0.631764   859A      0.636175   860A      0.636897  
     861A      0.637560   862A      0.638320   863A      0.643221  
     864A      0.644232   865A      0.644917   866A      0.650841  
     867A      0.656636   868A      0.660315   869A      0.666623  
     870A      0.671631   871A      0.674954   872A      0.677608  
     873A      0.679122   874A      0.679441   875A      0.681310  
     876A      0.681536   877A      0.682860   878A      0.686921  
     879A      0.688202   880A      0.690945   881A      0.692981  
     882A      0.703165   883A      0.705410   884A      0.719697  
     885A      0.722230   886A      0.724260   887A      0.725423  
     888A      0.727248   889A      0.730740   890A      0.731484  
     891A      0.732726   892A      0.733717   893A      0.738909  
     894A      0.740484   895A      0.742283   896A      0.742656  
     897A      0.744020   898A      0.748293   899A      0.751093  
     900A      0.752033   901A      0.753135   902A      0.754546  
     903A      0.755519   904A      0.756763   905A      0.759821  
     906A      0.761912   907A      0.762853   908A      0.764637  
     909A      0.765223   910A      0.768084   911A      0.768599  
     912A      0.771018   913A      0.773442   914A      0.774328  
     915A      0.775141   916A      0.775937   917A      0.779418  
     918A      0.782399   919A      0.785069   920A      0.787123  
     921A      0.787635   922A      0.788944   923A      0.792372  
     924A      0.793203   925A      0.794645   926A      0.796063  
     927A      0.797468   928A      0.799917   929A      0.800026  
     930A      0.803323   931A      0.804547   932A      0.806599  
     933A      0.807879   934A      0.810169   935A      0.811395  
     936A      0.813217   937A      0.814925   938A      0.815451  
     939A      0.818254   940A      0.819538   941A      0.823527  
     942A      0.824971   943A      0.826038   944A      0.827368  
     945A      0.827981   946A      0.829057   947A      0.829692  
     948A      0.831349   949A      0.833531   950A      0.835101  
     951A      0.836104   952A      0.837892   953A      0.839581  
     954A      0.842985   955A      0.844024   956A      0.844809  
     957A      0.846982   958A      0.849557   959A      0.850976  
     960A      0.852116   961A      0.853121   962A      0.856684  
     963A      0.857685   964A      0.859474   965A      0.860228  
     966A      0.861744   967A      0.862224   968A      0.863808  
     969A      0.864332   970A      0.864745   971A      0.866402  
     972A      0.871356   973A      0.871516   974A      0.872603  
     975A      0.872973   976A      0.874045   977A      0.875743  
     978A      0.876755   979A      0.879838   980A      0.882630  
     981A      0.883897   982A      0.885183   983A      0.886676  
     984A      0.887305   985A      0.888717   986A      0.889998  
     987A      0.891097   988A      0.892072   989A      0.892853  
     990A      0.894468   991A      0.894770   992A      0.896397  
     993A      0.896937   994A      0.898499   995A      0.899804  
     996A      0.901927   997A      0.904456   998A      0.906307  
     999A      0.907095  1000A      0.907758  1001A      0.910824  
    1002A      0.911487  1003A      0.919122  1004A      0.919468  
    1005A      0.921833  1006A      0.922632  1007A      0.925561  
    1008A      0.928656  1009A      0.929127  1010A      0.931080  
    1011A      0.933456  1012A      0.933576  1013A      0.936068  
    1014A      0.937947  1015A      0.940042  1016A      0.941280  
    1017A      0.942106  1018A      0.944097  1019A      0.944875  
    1020A      0.945375  1021A      0.948137  1022A      0.949824  
    1023A      0.951744  1024A      0.952656  1025A      0.954853  
    1026A      0.956827  1027A      0.957041  1028A      0.960438  
    1029A      0.961437  1030A      0.963682  1031A      0.965370  
    1032A      0.967648  1033A      0.969078  1034A      0.971424  
    1035A      0.972855  1036A      0.974726  1037A      0.975236  
    1038A      0.976395  1039A      0.977031  1040A      0.981136  
    1041A      0.981858  1042A      0.983275  1043A      0.984741  
    1044A      0.985228  1045A      0.986519  1046A      0.988276  
    1047A      0.989371  1048A      0.989739  1049A      0.991789  
    1050A      0.993116  1051A      0.994813  1052A      0.994948  
    1053A      0.996056  1054A      0.999104  1055A      1.000778  
    1056A      1.001444  1057A      1.003348  1058A      1.003618  
    1059A      1.004596  1060A      1.005393  1061A      1.006389  
    1062A      1.007192  1063A      1.007893  1064A      1.008722  
    1065A      1.009438  1066A      1.010314  1067A      1.010810  
    1068A      1.011523  1069A      1.012725  1070A      1.013012  
    1071A      1.013273  1072A      1.014660  1073A      1.015038  
    1074A      1.015480  1075A      1.016115  1076A      1.017702  
    1077A      1.018392  1078A      1.019206  1079A      1.020221  
    1080A      1.020882  1081A      1.021493  1082A      1.022725  
    1083A      1.022966  1084A      1.024214  1085A      1.025498  
    1086A      1.025716  1087A      1.027296  1088A      1.027581  
    1089A      1.028529  1090A      1.029067  1091A      1.029986  
    1092A      1.030984  1093A      1.031507  1094A      1.032962  
    1095A      1.036055  1096A      1.036670  1097A      1.036910  
    1098A      1.038724  1099A      1.039405  1100A      1.041896  
    1101A      1.042010  1102A      1.042295  1103A      1.046368  
    1104A      1.047835  1105A      1.051183  1106A      1.051465  
    1107A      1.053872  1108A      1.055428  1109A      1.056114  
    1110A      1.056932  1111A      1.058894  1112A      1.062892  
    1113A      1.063720  1114A      1.064346  1115A      1.064879  
    1116A      1.068303  1117A      1.070346  1118A      1.070607  
    1119A      1.071119  1120A      1.071791  1121A      1.072631  
    1122A      1.074245  1123A      1.074609  1124A      1.077571  
    1125A      1.081209  1126A      1.082386  1127A      1.084304  
    1128A      1.085961  1129A      1.086548  1130A      1.088744  
    1131A      1.089446  1132A      1.090203  1133A      1.091454  
    1134A      1.093136  1135A      1.095842  1136A      1.096886  
    1137A      1.097583  1138A      1.098841  1139A      1.101708  
    1140A      1.104428  1141A      1.104687  1142A      1.105810  
    1143A      1.106353  1144A      1.108763  1145A      1.111154  
    1146A      1.112040  1147A      1.114398  1148A      1.115675  
    1149A      1.117950  1150A      1.120811  1151A      1.122869  
    1152A      1.125478  1153A      1.129694  1154A      1.133019  
    1155A      1.135280  1156A      1.137881  1157A      1.138760  
    1158A      1.140836  1159A      1.141123  1160A      1.144114  
    1161A      1.146124  1162A      1.148324  1163A      1.150319  
    1164A      1.151389  1165A      1.153854  1166A      1.154916  
    1167A      1.156842  1168A      1.157764  1169A      1.160062  
    1170A      1.163348  1171A      1.165536  1172A      1.167113  
    1173A      1.168604  1174A      1.170269  1175A      1.172170  
    1176A      1.174533  1177A      1.176485  1178A      1.180007  
    1179A      1.182695  1180A      1.184792  1181A      1.188343  
    1182A      1.191385  1183A      1.191874  1184A      1.197108  
    1185A      1.197953  1186A      1.198624  1187A      1.200627  
    1188A      1.201556  1189A      1.202724  1190A      1.203647  
    1191A      1.208531  1192A      1.211540  1193A      1.212538  
    1194A      1.216907  1195A      1.219597  1196A      1.224887  
    1197A      1.226813  1198A      1.227644  1199A      1.229164  
    1200A      1.230363  1201A      1.233723  1202A      1.234660  
    1203A      1.235288  1204A      1.237894  1205A      1.240195  
    1206A      1.243486  1207A      1.245799  1208A      1.247111  
    1209A      1.248512  1210A      1.249807  1211A      1.251867  
    1212A      1.252788  1213A      1.255209  1214A      1.258494  
    1215A      1.258661  1216A      1.259672  1217A      1.262187  
    1218A      1.262258  1219A      1.265694  1220A      1.266144  
    1221A      1.268354  1222A      1.270091  1223A      1.272807  
    1224A      1.275201  1225A      1.276204  1226A      1.277278  
    1227A      1.278337  1228A      1.278415  1229A      1.281042  
    1230A      1.283293  1231A      1.289019  1232A      1.292677  
    1233A      1.292969  1234A      1.297097  1235A      1.298361  
    1236A      1.298609  1237A      1.301651  1238A      1.303712  
    1239A      1.303785  1240A      1.305852  1241A      1.307179  
    1242A      1.311963  1243A      1.312273  1244A      1.314049  
    1245A      1.314338  1246A      1.322910  1247A      1.325040  
    1248A      1.328694  1249A      1.330549  1250A      1.334300  
    1251A      1.334562  1252A      1.335952  1253A      1.337381  
    1254A      1.344498  1255A      1.346480  1256A      1.347271  
    1257A      1.347775  1258A      1.350667  1259A      1.352880  
    1260A      1.353846  1261A      1.354437  1262A      1.356231  
    1263A      1.359231  1264A      1.363225  1265A      1.364621  
    1266A      1.365576  1267A      1.367013  1268A      1.368345  
    1269A      1.369292  1270A      1.371209  1271A      1.372206  
    1272A      1.373903  1273A      1.374929  1274A      1.377267  
    1275A      1.377653  1276A      1.378893  1277A      1.380697  
    1278A      1.383609  1279A      1.384197  1280A      1.387644  
    1281A      1.388452  1282A      1.391095  1283A      1.392765  
    1284A      1.394631  1285A      1.397268  1286A      1.401531  
    1287A      1.405937  1288A      1.406393  1289A      1.409271  
    1290A      1.410102  1291A      1.411121  1292A      1.411893  
    1293A      1.412780  1294A      1.417803  1295A      1.421663  
    1296A      1.423671  1297A      1.424392  1298A      1.426221  
    1299A      1.428892  1300A      1.433444  1301A      1.435085  
    1302A      1.437867  1303A      1.441020  1304A      1.443178  
    1305A      1.444713  1306A      1.450450  1307A      1.455807  
    1308A      1.458591  1309A      1.472604  1310A      1.479068  
    1311A      1.479674  1312A      1.480876  1313A      1.489507  
    1314A      1.489934  1315A      1.495513  1316A      1.496836  
    1317A      1.502598  1318A      1.520008  1319A      1.524492  
    1320A      1.526570  1321A      1.531346  1322A      1.534512  
    1323A      1.537201  1324A      1.537657  1325A      1.538960  
    1326A      1.542432  1327A      1.543138  1328A      1.544043  
    1329A      1.547600  1330A      1.547843  1331A      1.548834  
    1332A      1.550714  1333A      1.550772  1334A      1.551814  
    1335A      1.553395  1336A      1.556355  1337A      1.557867  
    1338A      1.558172  1339A      1.561222  1340A      1.562144  
    1341A      1.564157  1342A      1.564974  1343A      1.566013  
    1344A      1.567012  1345A      1.568493  1346A      1.568951  
    1347A      1.570974  1348A      1.573054  1349A      1.573514  
    1350A      1.575495  1351A      1.575952  1352A      1.576315  
    1353A      1.577456  1354A      1.579705  1355A      1.581021  
    1356A      1.585475  1357A      1.585863  1358A      1.586909  
    1359A      1.588783  1360A      1.591377  1361A      1.592585  
    1362A      1.594428  1363A      1.595413  1364A      1.598061  
    1365A      1.601370  1366A      1.601770  1367A      1.603190  
    1368A      1.604326  1369A      1.605345  1370A      1.605652  
    1371A      1.606771  1372A      1.607389  1373A      1.608353  
    1374A      1.609521  1375A      1.611798  1376A      1.614725  
    1377A      1.616057  1378A      1.618654  1379A      1.621594  
    1380A      1.624307  1381A      1.627935  1382A      1.628755  
    1383A      1.634097  1384A      1.634859  1385A      1.635902  
    1386A      1.636344  1387A      1.639035  1388A      1.640339  
    1389A      1.646625  1390A      1.648726  1391A      1.650054  
    1392A      1.651286  1393A      1.653160  1394A      1.654461  
    1395A      1.655156  1396A      1.658223  1397A      1.658939  
    1398A      1.659851  1399A      1.663524  1400A      1.666660  
    1401A      1.671312  1402A      1.676532  1403A      1.676963  
    1404A      1.683597  1405A      1.684970  1406A      1.685577  
    1407A      1.686816  1408A      1.691384  1409A      1.694141  
    1410A      1.702377  1411A      1.703985  1412A      1.706308  
    1413A      1.712446  1414A      1.719166  1415A      1.726564  
    1416A      1.727488  1417A      1.730448  1418A      1.731472  
    1419A      1.737279  1420A      1.737536  1421A      1.745748  
    1422A      1.749582  1423A      1.758348  1424A      1.759647  
    1425A      1.762519  1426A      1.764888  1427A      1.765828  
    1428A      1.766961  1429A      1.767398  1430A      1.770079  
    1431A      1.772109  1432A      1.773268  1433A      1.774061  
    1434A      1.774897  1435A      1.775379  1436A      1.775931  
    1437A      1.778222  1438A      1.781367  1439A      1.782321  
    1440A      1.795928  1441A      1.796410  1442A      1.798084  
    1443A      1.798474  1444A      1.799858  1445A      1.799939  
    1446A      1.802332  1447A      1.806205  1448A      1.807358  
    1449A      1.810223  1450A      1.810904  1451A      1.814526  
    1452A      1.814832  1453A      1.816288  1454A      1.819968  
    1455A      1.820722  1456A      1.821145  1457A      1.822005  
    1458A      1.822499  1459A      1.824088  1460A      1.825284  
    1461A      1.825599  1462A      1.826205  1463A      1.826422  
    1464A      1.828937  1465A      1.833926  1466A      1.841602  
    1467A      1.843234  1468A      1.846307  1469A      1.846449  
    1470A      1.847248  1471A      1.850639  1472A      1.851492  
    1473A      1.852646  1474A      1.855709  1475A      1.856495  
    1476A      1.858119  1477A      1.858893  1478A      1.859618  
    1479A      1.861968  1480A      1.863700  1481A      1.863993  
    1482A      1.868464  1483A      1.874749  1484A      1.875394  
    1485A      1.876450  1486A      1.877326  1487A      1.878897  
    1488A      1.879265  1489A      1.879906  1490A      1.881470  
    1491A      1.883275  1492A      1.883618  1493A      1.887905  
    1494A      1.888793  1495A      1.891411  1496A      1.893975  
    1497A      1.895155  1498A      1.895657  1499A      1.897790  
    1500A      1.900036  1501A      1.900960  1502A      1.901116  
    1503A      1.903604  1504A      1.905630  1505A      1.906962  
    1506A      1.910653  1507A      1.911056  1508A      1.911520  
    1509A      1.913751  1510A      1.916525  1511A      1.918144  
    1512A      1.919836  1513A      1.921790  1514A      1.928043  
    1515A      1.929575  1516A      1.931506  1517A      1.932544  
    1518A      1.933598  1519A      1.934226  1520A      1.935135  
    1521A      1.944077  1522A      1.947185  1523A      1.948322  
    1524A      1.952070  1525A      1.953140  1526A      1.954815  
    1527A      1.955104  1528A      1.956001  1529A      1.956533  
    1530A      1.957522  1531A      1.959159  1532A      1.959974  
    1533A      1.961178  1534A      1.962968  1535A      1.964572  
    1536A      1.966269  1537A      1.966649  1538A      1.968633  
    1539A      1.974526  1540A      1.976806  1541A      1.978950  
    1542A      1.980010  1543A      1.981089  1544A      1.984696  
    1545A      1.987440  1546A      1.988564  1547A      1.990033  
    1548A      1.993068  1549A      1.995098  1550A      1.995755  
    1551A      1.997671  1552A      1.998990  1553A      1.999254  
    1554A      2.000486  1555A      2.002303  1556A      2.006396  
    1557A      2.006847  1558A      2.007886  1559A      2.009252  
    1560A      2.014650  1561A      2.017674  1562A      2.018828  
    1563A      2.019465  1564A      2.019837  1565A      2.020190  
    1566A      2.020904  1567A      2.021079  1568A      2.023634  
    1569A      2.024450  1570A      2.025962  1571A      2.028115  
    1572A      2.028723  1573A      2.029127  1574A      2.030232  
    1575A      2.030766  1576A      2.031691  1577A      2.033686  
    1578A      2.036052  1579A      2.037494  1580A      2.037908  
    1581A      2.038951  1582A      2.040496  1583A      2.040892  
    1584A      2.042886  1585A      2.045979  1586A      2.048058  
    1587A      2.050341  1588A      2.051485  1589A      2.051653  
    1590A      2.053697  1591A      2.054124  1592A      2.055612  
    1593A      2.056951  1594A      2.057448  1595A      2.057577  
    1596A      2.062480  1597A      2.064440  1598A      2.066277  
    1599A      2.066862  1600A      2.067053  1601A      2.067890  
    1602A      2.068456  1603A      2.069252  1604A      2.072235  
    1605A      2.076098  1606A      2.078215  1607A      2.079236  
    1608A      2.080981  1609A      2.082284  1610A      2.084040  
    1611A      2.084191  1612A      2.084630  1613A      2.087505  
    1614A      2.092135  1615A      2.094166  1616A      2.095414  
    1617A      2.097298  1618A      2.098222  1619A      2.099350  
    1620A      2.099667  1621A      2.101259  1622A      2.103317  
    1623A      2.104995  1624A      2.107475  1625A      2.110068  
    1626A      2.111158  1627A      2.116590  1628A      2.118917  
    1629A      2.120800  1630A      2.121602  1631A      2.122670  
    1632A      2.126930  1633A      2.127219  1634A      2.128417  
    1635A      2.129520  1636A      2.129969  1637A      2.133768  
    1638A      2.134383  1639A      2.135988  1640A      2.138148  
    1641A      2.139486  1642A      2.140113  1643A      2.141126  
    1644A      2.143380  1645A      2.146165  1646A      2.149369  
    1647A      2.150122  1648A      2.151328  1649A      2.155554  
    1650A      2.155952  1651A      2.156906  1652A      2.160512  
    1653A      2.161551  1654A      2.163049  1655A      2.163777  
    1656A      2.166926  1657A      2.170260  1658A      2.170964  
    1659A      2.172068  1660A      2.173135  1661A      2.174984  
    1662A      2.175517  1663A      2.176328  1664A      2.180841  
    1665A      2.187071  1666A      2.187364  1667A      2.188969  
    1668A      2.190093  1669A      2.192234  1670A      2.201497  
    1671A      2.205138  1672A      2.205905  1673A      2.207022  
    1674A      2.208610  1675A      2.209798  1676A      2.213770  
    1677A      2.217964  1678A      2.221361  1679A      2.222266  
    1680A      2.224091  1681A      2.230532  1682A      2.232693  
    1683A      2.233599  1684A      2.236528  1685A      2.241100  
    1686A      2.242767  1687A      2.245264  1688A      2.246133  
    1689A      2.253558  1690A      2.258401  1691A      2.262613  
    1692A      2.263107  1693A      2.265809  1694A      2.266990  
    1695A      2.268527  1696A      2.269081  1697A      2.269941  
    1698A      2.271118  1699A      2.272635  1700A      2.273721  
    1701A      2.275741  1702A      2.278924  1703A      2.280139  
    1704A      2.280665  1705A      2.281139  1706A      2.281481  
    1707A      2.282945  1708A      2.284724  1709A      2.285370  
    1710A      2.286050  1711A      2.305140  1712A      2.308483  
    1713A      2.310289  1714A      2.323213  1715A      2.325659  
    1716A      2.327376  1717A      2.330348  1718A      2.332938  
    1719A      2.333788  1720A      2.344184  1721A      2.354980  
    1722A      2.356727  1723A      2.358386  1724A      2.361580  
    1725A      2.365633  1726A      2.369359  1727A      2.380384  
    1728A      2.381809  1729A      2.389139  1730A      2.389939  
    1731A      2.394871  1732A      2.399962  1733A      2.403677  
    1734A      2.405398  1735A      2.406600  1736A      2.410352  
    1737A      2.410525  1738A      2.411511  1739A      2.430331  
    1740A      2.431452  1741A      2.431697  1742A      2.441537  
    1743A      2.447031  1744A      2.447606  1745A      2.450961  
    1746A      2.456645  1747A      2.476195  1748A      2.476555  
    1749A      2.477985  1750A      2.480571  1751A      2.481651  
    1752A      2.482910  1753A      2.485351  1754A      2.488172  
    1755A      2.488857  1756A      2.490537  1757A      2.491510  
    1758A      2.491888  1759A      2.501756  1760A      2.506624  
    1761A      2.509608  1762A      2.512197  1763A      2.520167  
    1764A      2.523905  1765A      2.524738  1766A      2.525671  
    1767A      2.526755  1768A      2.529995  1769A      2.530827  
    1770A      2.531400  1771A      2.532435  1772A      2.536197  
    1773A      2.540810  1774A      2.541223  1775A      2.544265  
    1776A      2.551698  1777A      2.552678  1778A      2.553074  
    1779A      2.554970  1780A      2.557675  1781A      2.558880  
    1782A      2.571169  1783A      2.579261  1784A      2.580238  
    1785A      2.582789  1786A      2.583954  1787A      2.586127  
    1788A      2.586509  1789A      2.589697  1790A      2.593575  
    1791A      2.596995  1792A      2.597197  1793A      2.600700  
    1794A      2.603276  1795A      2.607714  1796A      2.609361  
    1797A      2.610915  1798A      2.612179  1799A      2.617942  
    1800A      2.620407  1801A      2.624114  1802A      2.625329  
    1803A      2.626018  1804A      2.628893  1805A      2.629704  
    1806A      2.630596  1807A      2.630923  1808A      2.631572  
    1809A      2.633594  1810A      2.635690  1811A      2.642661  
    1812A      2.660639  1813A      2.666207  1814A      2.668697  
    1815A      2.669636  1816A      2.671020  1817A      2.672608  
    1818A      2.673485  1819A      2.692286  1820A      2.695394  
    1821A      2.697323  1822A      2.705981  1823A      2.710199  
    1824A      2.711023  1825A      2.717423  1826A      2.718629  
    1827A      2.722379  1828A      2.734938  1829A      2.735538  
    1830A      2.737771  1831A      2.738157  1832A      2.738504  
    1833A      2.746361  1834A      2.749716  1835A      2.750063  
    1836A      2.750898  1837A      2.751981  1838A      2.754737  
    1839A      2.756685  1840A      2.765825  1841A      2.767226  
    1842A      2.774439  1843A      2.776992  1844A      2.780135  
    1845A      2.780407  1846A      2.782243  1847A      2.785262  
    1848A      2.786758  1849A      2.792583  1850A      2.800580  
    1851A      2.801867  1852A      2.802567  1853A      2.806511  
    1854A      2.809741  1855A      2.811590  1856A      2.813325  
    1857A      2.825625  1858A      2.829017  1859A      2.830017  
    1860A      2.854939  1861A      2.858597  1862A      2.859092  
    1863A      2.869543  1864A      2.870725  1865A      2.875376  
    1866A      2.875884  1867A      2.888343  1868A      2.902578  
    1869A      2.907207  1870A      2.907865  1871A      2.916017  
    1872A      2.933398  1873A      2.933563  1874A      2.957220  
    1875A      2.966306  1876A      2.967397  1877A      2.976831  
    1878A      2.980572  1879A      2.985010  1880A      2.987079  
    1881A      2.989624  1882A      2.994701  1883A      2.995067  
    1884A      3.006584  1885A      3.010932  1886A      3.034837  
    1887A      3.049095  1888A      3.053611  1889A      3.054319  
    1890A      3.061609  1891A      3.067980  1892A      3.068337  
    1893A      3.073410  1894A      3.075292  1895A      3.083412  
    1896A      3.084074  1897A      3.088371  1898A      3.089746  
    1899A      3.091808  1900A      3.093856  1901A      3.094547  
    1902A      3.096022  1903A      3.102794  1904A      3.102825  
    1905A      3.112496  1906A      3.114938  1907A      3.117267  
    1908A      3.118825  1909A      3.133997  1910A      3.135834  
    1911A      3.161106  1912A      3.192492  1913A      3.199213  
    1914A      3.200181  1915A      3.200545  1916A      3.201227  
    1917A      3.203899  1918A      3.209206  1919A      3.210896  
    1920A      3.214750  1921A      3.215390  1922A      3.236641  
    1923A      3.238234  1924A      3.242453  1925A      3.247157  
    1926A      3.298366  1927A      3.299007  1928A      3.307844  
    1929A      3.351734  1930A      3.366542  1931A      3.370488  
    1932A      3.373992  1933A      3.385759  1934A      3.392034  
    1935A      3.402068  1936A      3.403341  1937A      3.403462  
    1938A      3.409741  1939A      3.419553  1940A      3.421681  
    1941A      3.426303  1942A      3.444315  1943A      3.453375  
    1944A      3.481629  1945A      3.499136  1946A      3.514627  
    1947A      3.518099  1948A      3.526777  1949A      3.529316  
    1950A      3.574894  1951A      3.582799  1952A      3.588858  
    1953A      3.607545  1954A      3.620755  1955A      3.643234  
    1956A      3.686848  1957A      3.691675  1958A      3.694057  
    1959A      3.701161  1960A      3.717182  1961A      3.721569  
    1962A      3.781085  1963A      3.783171  1964A      3.813098  
    1965A      3.813556  1966A      3.852667  1967A      3.864370  
    1968A      3.876307  1969A      3.884894  1970A      3.886737  
    1971A      3.891994  1972A      3.905948  1973A      3.907406  
    1974A      3.916373  1975A      3.959382  1976A      3.961484  
    1977A      4.018938  1978A      4.178048  1979A      4.245155  
    1980A      4.347014  

    Final Occupation by Irrep:
              A 
    DOCC [   326 ]
    NA   [   326 ]
    NB   [   326 ]

  @DF-RHF Final Energy: -3953.66004391800652

   => Energetics <=

    Nuclear Repulsion Energy =          18103.7969140563836845
    One-Electron Energy =              -41413.8921104325127089
    Two-Electron Energy =               19356.4351524581215926
    Total Energy =                      -3953.6600439180074318

Computation Completed


Properties will be evaluated at   0.000000,   0.000000,   0.000000 [a0]

Properties computed using the SCF density matrix


 Multipole Moments:

 ------------------------------------------------------------------------------------
     Multipole            Electronic (a.u.)      Nuclear  (a.u.)        Total (a.u.)
 ------------------------------------------------------------------------------------

 L = 1.  Multiply by 2.5417464519 to convert [e a0] to [Debye]
 Dipole X            :         -0.0036926            0.0004804           -0.0032122
 Dipole Y            :         -7.1964105            8.7122315            1.5158210
 Dipole Z            :         21.3678741          -27.8725056           -6.5046316
 Magnitude           :                                                    6.6789187

 ------------------------------------------------------------------------------------

*** tstop() called on n2cn0350 at Sat Feb 10 14:41:38 2024
Module time:
	user time   =   28615.37 seconds =     476.92 minutes
	system time =    1734.71 seconds =      28.91 minutes
	total time  =       3221 seconds =      53.68 minutes
Total time:
	user time   =   28615.37 seconds =     476.92 minutes
	system time =    1734.71 seconds =      28.91 minutes
	total time  =       3221 seconds =      53.68 minutes

  //>>>>>>>>>>>>>>>>>>>>>>>>>>>>>>>>>>>//
  //            Monomer A HF           //
  //<<<<<<<<<<<<<<<<<<<<<<<<<<<<<<<<<<<//

   => Libint2 <=

    Primary   basis highest AM E, G, H:  5, 4, 3
    Auxiliary basis highest AM E, G, H:  6, 5, 4
    Onebody   basis highest AM E, G, H:  6, 5, 4
    Solid Harmonics ordering:            gaussian

*** tstart() called on n2cn0350
*** at Sat Feb 10 14:41:38 2024

   => Loading Basis Set <=

    Name: JUN-CC-PVDZ
    Role: ORBITAL
    Keyword: BASIS
    atoms 1-2, 4-5, 10, 17-34, 41-53, 56-70, 73-89, 92-104, 109-119, 122-130 entry C          line   164 file /opt/software/pc2/EB-SW/software/PSI4/1.9-foss-2022a/share/psi4/basis/jun-cc-pvdz.gbs 
    atoms 3, 6                                                               entry N          line   198 file /opt/software/pc2/EB-SW/software/PSI4/1.9-foss-2022a/share/psi4/basis/jun-cc-pvdz.gbs 
    atoms 7-9, 11-16, 35-40, 54-55, 71-72, 90-91, 105-108, 120-121, 131-136  entry H          line    36 file /opt/software/pc2/EB-SW/software/PSI4/1.9-foss-2022a/share/psi4/basis/jun-cc-pvdz.gbs 


         ---------------------------------------------------------
                                   SCF
               by Justin Turney, Rob Parrish, Andy Simmonett
                          and Daniel G. A. Smith
                              RHF Reference
                       16 Threads,  76293 MiB Core
         ---------------------------------------------------------

  ==> Geometry <==

    Molecular point group: c1
    Full point group: C1

    Geometry (in Angstrom), charge = 1, multiplicity = 1:

       Center              X                  Y                   Z               Mass       
    ------------   -----------------  -----------------  -----------------  -----------------
         C            0.680062820275     1.308604348936    -5.742347627422    12.000000000000
         C           -0.680508179725     1.310632348936    -5.741963627422    12.000000000000
         N           -1.085639179725     1.311630348936    -4.423639627422    14.003074004430
[...]
    1585A      2.192935  1586A      2.195612  1587A      2.196834  
    1588A      2.197244  1589A      2.199132  1590A      2.200315  
    1591A      2.200919  1592A      2.201512  1593A      2.203413  
    1594A      2.203585  1595A      2.205423  1596A      2.206772  
    1597A      2.208070  1598A      2.210682  1599A      2.214244  
    1600A      2.215375  1601A      2.218303  1602A      2.219924  
    1603A      2.220725  1604A      2.223041  1605A      2.223943  
    1606A      2.225433  1607A      2.226613  1608A      2.228720  
    1609A      2.229296  1610A      2.232297  1611A      2.232741  
    1612A      2.233979  1613A      2.234953  1614A      2.238269  
    1615A      2.239539  1616A      2.241262  1617A      2.242975  
    1618A      2.245936  1619A      2.249236  1620A      2.251380  
    1621A      2.252060  1622A      2.256831  1623A      2.261848  
    1624A      2.264944  1625A      2.265813  1626A      2.267391  
    1627A      2.269046  1628A      2.269916  1629A      2.280612  
    1630A      2.283306  1631A      2.284532  1632A      2.288890  
    1633A      2.291681  1634A      2.294003  1635A      2.296545  
    1636A      2.297171  1637A      2.299859  1638A      2.302421  
    1639A      2.305796  1640A      2.307195  1641A      2.309263  
    1642A      2.323196  1643A      2.325380  1644A      2.325714  
    1645A      2.327799  1646A      2.329300  1647A      2.330581  
    1648A      2.330943  1649A      2.333375  1650A      2.335029  
    1651A      2.335045  1652A      2.336009  1653A      2.337759  
    1654A      2.341370  1655A      2.342501  1656A      2.343148  
    1657A      2.344457  1658A      2.345407  1659A      2.346053  
    1660A      2.346531  1661A      2.347333  1662A      2.349440  
    1663A      2.349853  1664A      2.368466  1665A      2.371473  
    1666A      2.375303  1667A      2.378664  1668A      2.380211  
    1669A      2.385697  1670A      2.387055  1671A      2.390455  
    1672A      2.394346  1673A      2.396015  1674A      2.399107  
    1675A      2.407151  1676A      2.415369  1677A      2.419415  
    1678A      2.420316  1679A      2.425489  1680A      2.427970  
    1681A      2.434154  1682A      2.441750  1683A      2.445072  
    1684A      2.449724  1685A      2.453274  1686A      2.454973  
    1687A      2.459067  1688A      2.465660  1689A      2.466592  
    1690A      2.468727  1691A      2.470202  1692A      2.472163  
    1693A      2.472404  1694A      2.491177  1695A      2.492596  
    1696A      2.493272  1697A      2.498451  1698A      2.502593  
    1699A      2.507161  1700A      2.508884  1701A      2.512147  
    1702A      2.513223  1703A      2.516357  1704A      2.523939  
    1705A      2.529440  1706A      2.537698  1707A      2.540074  
    1708A      2.540758  1709A      2.542341  1710A      2.544495  
    1711A      2.547196  1712A      2.548271  1713A      2.549783  
    1714A      2.550327  1715A      2.551798  1716A      2.554376  
    1717A      2.557059  1718A      2.557526  1719A      2.564635  
    1720A      2.571473  1721A      2.571701  1722A      2.572985  
    1723A      2.580748  1724A      2.585543  1725A      2.585840  
    1726A      2.586243  1727A      2.586811  1728A      2.589462  
    1729A      2.590043  1730A      2.593356  1731A      2.594553  
    1732A      2.602299  1733A      2.602408  1734A      2.613446  
    1735A      2.614192  1736A      2.614561  1737A      2.615068  
    1738A      2.618356  1739A      2.620140  1740A      2.632931  
    1741A      2.634929  1742A      2.642361  1743A      2.643453  
    1744A      2.644438  1745A      2.646246  1746A      2.649128  
    1747A      2.650071  1748A      2.651859  1749A      2.653582  
    1750A      2.657327  1751A      2.657802  1752A      2.666249  
    1753A      2.666612  1754A      2.667698  1755A      2.668937  
    1756A      2.671141  1757A      2.671387  1758A      2.674583  
    1759A      2.677694  1760A      2.679989  1761A      2.683317  
    1762A      2.685573  1763A      2.688811  1764A      2.691054  
    1765A      2.692038  1766A      2.692381  1767A      2.693689  
    1768A      2.696037  1769A      2.696928  1770A      2.699574  
    1771A      2.703356  1772A      2.708181  1773A      2.711240  
    1774A      2.720084  1775A      2.722090  1776A      2.731107  
    1777A      2.731827  1778A      2.732338  1779A      2.733305  
    1780A      2.734177  1781A      2.755534  1782A      2.761151  
    1783A      2.762153  1784A      2.772137  1785A      2.776077  
    1786A      2.777539  1787A      2.778797  1788A      2.784117  
    1789A      2.784439  1790A      2.788991  1791A      2.799819  
    1792A      2.800341  1793A      2.802525  1794A      2.802572  
    1795A      2.804591  1796A      2.814524  1797A      2.815955  
    1798A      2.816895  1799A      2.818154  1800A      2.820544  
    1801A      2.821102  1802A      2.830947  1803A      2.834168  
    1804A      2.840876  1805A      2.842751  1806A      2.843784  
    1807A      2.844405  1808A      2.848261  1809A      2.865229  
    1810A      2.866563  1811A      2.866948  1812A      2.871305  
    1813A      2.873120  1814A      2.876394  1815A      2.895808  
    1816A      2.896299  1817A      2.897072  1818A      2.908715  
    1819A      2.916942  1820A      2.919122  1821A      2.919481  
    1822A      2.925986  1823A      2.930882  1824A      2.931026  
    1825A      2.934553  1826A      2.936862  1827A      2.947386  
    1828A      2.954797  1829A      2.965132  1830A      2.967133  
    1831A      2.967904  1832A      2.977097  1833A      2.986878  
    1834A      2.991385  1835A      2.995323  1836A      2.998186  
    1837A      3.026931  1838A      3.030733  1839A      3.032041  
    1840A      3.039378  1841A      3.042113  1842A      3.048014  
    1843A      3.049226  1844A      3.050055  1845A      3.057580  
    1846A      3.058877  1847A      3.064567  1848A      3.072401  
    1849A      3.073428  1850A      3.080822  1851A      3.106914  
    1852A      3.111785  1853A      3.114144  1854A      3.117832  
    1855A      3.124338  1856A      3.130798  1857A      3.131023  
    1858A      3.137022  1859A      3.138800  1860A      3.144207  
    1861A      3.144912  1862A      3.150769  1863A      3.153405  
    1864A      3.153953  1865A      3.155982  1866A      3.157408  
    1867A      3.162464  1868A      3.168269  1869A      3.171797  
    1870A      3.176748  1871A      3.177651  1872A      3.179520  
    1873A      3.194350  1874A      3.195842  1875A      3.220646  
    1876A      3.254057  1877A      3.260714  1878A      3.262233  
    1879A      3.263112  1880A      3.263946  1881A      3.266531  
    1882A      3.270509  1883A      3.272014  1884A      3.275850  
    1885A      3.276549  1886A      3.297607  1887A      3.300081  
    1888A      3.301840  1889A      3.305559  1890A      3.309806  
    1891A      3.339633  1892A      3.363067  1893A      3.363548  
    1894A      3.372555  1895A      3.396031  1896A      3.416908  
    1897A      3.430867  1898A      3.438476  1899A      3.443024  
    1900A      3.450929  1901A      3.458744  1902A      3.464910  
    1903A      3.469037  1904A      3.470958  1905A      3.473274  
    1906A      3.478642  1907A      3.486701  1908A      3.491567  
    1909A      3.492976  1910A      3.509702  1911A      3.519508  
    1912A      3.542516  1913A      3.550642  1914A      3.579183  
    1915A      3.580614  1916A      3.590867  1917A      3.591758  
    1918A      3.621221  1919A      3.646991  1920A      3.653115  
    1921A      3.655890  1922A      3.673626  1923A      3.684150  
    1924A      3.707625  1925A      3.753205  1926A      3.754941  
    1927A      3.758309  1928A      3.763536  1929A      3.767467  
    1930A      3.779109  1931A      3.788473  1932A      3.828255  
    1933A      3.844378  1934A      3.846065  1935A      3.874626  
    1936A      3.875442  1937A      3.877784  1938A      3.915832  
    1939A      3.927854  1940A      3.942677  1941A      3.948878  
    1942A      3.949649  1943A      3.958071  1944A      3.972549  
    1945A      3.974169  1946A      3.982685  1947A      4.003802  
    1948A      4.025002  1949A      4.027721  1950A      4.086209  
    1951A      4.222928  1952A      4.234954  1953A      4.253169  
    1954A      4.317561  1955A      4.401193  1956A      4.408615  
    1957A      4.420094  1958A      4.508161  1959A      4.777847  
    1960A      4.845997  1961A      4.856204  1962A      4.877077  
    1963A      4.963208  1964A      5.077712  1965A      5.081624  
    1966A      5.088150  1967A      5.128660  1968A      5.208000  
    1969A      5.409807  1970A      5.437012  1971A      5.758243  
    1972A      5.781706  1973A      6.076845  1974A     18.204413  
    1975A     18.477566  1976A     18.498903  1977A     18.578000  
    1978A     18.849580  1979A     25.353057  1980A     25.388022  

    Final Occupation by Irrep:
              A 
    DOCC [   300 ]
    NA   [   300 ]
    NB   [   300 ]

  @DF-RHF Final Energy: -3650.34060347921422

   => Energetics <=

    Nuclear Repulsion Energy =          15611.4211649754306563
    One-Electron Energy =              -36072.1656441171508050
    Two-Electron Energy =               16810.4038756625086535
    Total Energy =                      -3650.3406034792133141

Computation Completed


Properties will be evaluated at   0.000000,   0.000000,   0.000000 [a0]

Properties computed using the SCF density matrix


 Multipole Moments:

 ------------------------------------------------------------------------------------
     Multipole            Electronic (a.u.)      Nuclear  (a.u.)        Total (a.u.)
 ------------------------------------------------------------------------------------

 L = 1.  Multiply by 2.5417464519 to convert [e a0] to [Debye]
 Dipole X            :         -0.0006571            0.0002112           -0.0004460
 Dipole Y            :        123.2186499         -123.2131634            0.0054865
 Dipole Z            :       -423.5764183          423.5832798            0.0068615
 Magnitude           :                                                    0.0087966

 ------------------------------------------------------------------------------------

*** tstop() called on n2cn0350 at Sat Feb 10 15:32:06 2024
Module time:
	user time   =   19481.33 seconds =     324.69 minutes
	system time =    1370.45 seconds =      22.84 minutes
	total time  =       1986 seconds =      33.10 minutes
Total time:
	user time   =   54487.65 seconds =     908.13 minutes
	system time =    3681.62 seconds =      61.36 minutes
	total time  =       6249 seconds =     104.15 minutes
  Constructing Basis Sets for SAPT...

   => Loading Basis Set <=

    Name: (JUN-CC-PVDZ AUX)
    Role: RIFIT
    Keyword: DF_BASIS_SAPT
    atoms 1-2, 4-5, 10, 17-34, 41-53, 56-70, 73-89, 92-104, 109-119, 122-130 entry C          line   100 file /opt/software/pc2/EB-SW/software/PSI4/1.9-foss-2022a/share/psi4/basis/jun-cc-pvdz-ri.gbs 
    atoms 3, 6                                                               entry N          line   144 file /opt/software/pc2/EB-SW/software/PSI4/1.9-foss-2022a/share/psi4/basis/jun-cc-pvdz-ri.gbs 
    atoms 7-9, 11-16, 35-40, 54-55, 71-72, 90-91, 105-108, 120-121, 131-136  entry H          line    30 file /opt/software/pc2/EB-SW/software/PSI4/1.9-foss-2022a/share/psi4/basis/jun-cc-pvdz-ri.gbs 

   => Loading Basis Set <=

    Name: (JUN-CC-PVDZ AUX)
    Role: JKFIT
    Keyword: DF_BASIS_ELST
    atoms 1-2, 4-5, 10, 17-34, 41-53, 56-70, 73-89, 92-104, 109-119, 122-130 entry C          line   146 file /opt/software/pc2/EB-SW/software/PSI4/1.9-foss-2022a/share/psi4/basis/jun-cc-pvdz-jkfit.gbs 
    atoms 3, 6                                                               entry N          line   202 file /opt/software/pc2/EB-SW/software/PSI4/1.9-foss-2022a/share/psi4/basis/jun-cc-pvdz-jkfit.gbs 
    atoms 7-9, 11-16, 35-40, 54-55, 71-72, 90-91, 105-108, 120-121, 131-136  entry H          line    70 file /opt/software/pc2/EB-SW/software/PSI4/1.9-foss-2022a/share/psi4/basis/jun-cc-pvdz-jkfit.gbs 


  //>>>>>>>>>>>>>>>>>>>>>>>>>>>>>>>>>>>//
  //               SSAPT0              //
  //<<<<<<<<<<<<<<<<<<<<<<<<<<<<<<<<<<<//


*** tstart() called on n2cn0350
*** at Sat Feb 10 15:32:07 2024

        SAPT0  
    Ed Hohenstein
     6 June 2009

      Orbital Information
  --------------------------
    NSO        =      2019
    NMO        =      1980
    NRI        =      7157
    NRI (Elst) =      8896
    NOCC A     =        26
    NOCC B     =       300
    FOCC A     =         7
    FOCC B     =        96
    NVIR A     =      1954
    NVIR B     =      1680

    Elst10,r            =    -0.012127966071 [Eh]
    Exch10              =     0.002287788911 [Eh]
    Exch10 (S^2)        =     0.002286038058 [Eh]

    Iter     Energy [mEh]          dE [mEh]         Residual      Time [s]
       1      -0.09953966       0.099539663       1.704049455            94
       2      -0.10666226       0.007122593       0.559756162           190
       3      -0.11316300       0.006500749       0.086169364           284
       4      -0.11302441      -0.000138593       0.037744430           378
       5      -0.11293694      -0.000087468       0.012895772           474
       6      -0.11296213       0.000025187       0.005185169           569
       7      -0.11297121       0.000009083       0.001582944           669
       8      -0.11297008      -0.000001138       0.000551332           764
       9      -0.11296897      -0.000001109       0.000169660           864
      10      -0.11296889      -0.000000077       0.000046724           961
      11      -0.11296898       0.000000094       0.000013379          1059
      12      -0.11296899       0.000000009       0.000003935          1150
      13      -0.11296899      -0.000000006       0.000001088          1242
      14      -0.11296899      -0.000000001       0.000000359          1330

    CHF Iterations converged


    Iter     Energy [mEh]          dE [mEh]         Residual      Time [s]
       1     -16.58709703      16.587097028      69.390019753           117
       2     -10.83866499      -5.748432042       8.815345558           238
       3     -10.82761749      -0.011047500       3.200659466           366
       4     -11.07442672       0.246809236       1.032955379           479
       5     -11.10464450       0.030217779       0.387091810           597
       6     -11.09748086      -0.007163637       0.254901744           715
       7     -11.09127721      -0.006203658       0.099033252           830
       8     -11.09199633       0.000719120       0.043439454           949
       9     -11.09300814       0.001011810       0.014287296          1070
      10     -11.09297733      -0.000030806       0.008801362          1225
      11     -11.09285413      -0.000123198       0.004787052          1365
      12     -11.09283131      -0.000022827       0.003095769          1486
      13     -11.09287090       0.000039598       0.001967517          1607
      14     -11.09288636       0.000015455       0.001337823          1730
      15     -11.09287616      -0.000010198       0.000829101          1846
      16     -11.09286639      -0.000009768       0.000315653          1963
      17     -11.09286986       0.000003468       0.000150866          2084
      18     -11.09287171       0.000001854       0.000074960          2207
      19     -11.09287148      -0.000000233       0.000054208          2331
      20     -11.09287071      -0.000000774       0.000029428          2460
      21     -11.09287081       0.000000101       0.000015604          2581
      22     -11.09287099       0.000000185       0.000006486          2705
      23     -11.09287100       0.000000004       0.000002872          2829
      24     -11.09287096      -0.000000031       0.000001679          2951
      25     -11.09287096      -0.000000008       0.000000948          3071

    CHF Iterations converged

    Ind20,r (A<-B)      =    -0.000112968987 [Eh]
    Ind20,r (B<-A)      =    -0.011092870957 [Eh]
    Ind20,r             =    -0.011205839944 [Eh]
    Exch-Ind20,r (A<-B) =     0.000087374822 [Eh]
    Exch-Ind20,r (B<-A) =     0.000430177287 [Eh]
    Exch-Ind20,r        =     0.000517552109 [Eh]
    Disp20              =    -0.011575277335 [Eh]
    Disp20 (SS)         =    -0.005787638668 [Eh]
    Disp20 (OS)         =    -0.005787638668 [Eh]
    Exch-Disp20         =     0.000232508780 [Eh]
    Exch-Disp20 (SS)    =     0.000148534647 [Eh]
    Exch-Disp20 (OS)    =     0.000083974133 [Eh]

    SAPT Results 
  --------------------------------------------------------------------------------------------------------
    Electrostatics                -12.12796607 [mEh]      -7.61041361 [kcal/mol]     -31.84197053 [kJ/mol]
      Elst10,r                    -12.12796607 [mEh]      -7.61041361 [kcal/mol]     -31.84197053 [kJ/mol]

    Exchange                        2.28778891 [mEh]       1.43560922 [kcal/mol]       6.00658896 [kJ/mol]
      Exch10                        2.28778891 [mEh]       1.43560922 [kcal/mol]       6.00658896 [kJ/mol]
      Exch10(S^2)                   2.28603806 [mEh]       1.43451054 [kcal/mol]       6.00199209 [kJ/mol]

    Induction                     -11.66856508 [mEh]      -7.32213513 [kcal/mol]     -30.63581339 [kJ/mol]
      Ind20,r                     -11.20583994 [mEh]      -7.03177073 [kcal/mol]     -29.42092872 [kJ/mol]
      Exch-Ind20,r                  0.51755211 [mEh]       0.32476885 [kcal/mol]       1.35883288 [kJ/mol]
      delta HF,r (2)               -0.98027724 [mEh]      -0.61513326 [kcal/mol]      -2.57371755 [kJ/mol]

    Dispersion                    -11.34276855 [mEh]      -7.11769473 [kcal/mol]     -29.78043474 [kJ/mol]
      Disp20                      -11.57527734 [mEh]      -7.26359619 [kcal/mol]     -30.39088646 [kJ/mol]
      Exch-Disp20                   0.23250878 [mEh]       0.14590146 [kcal/mol]       0.61045172 [kJ/mol]
      Disp20 (SS)                  -5.78763867 [mEh]      -3.63179809 [kcal/mol]     -15.19544323 [kJ/mol]
      Disp20 (OS)                  -5.78763867 [mEh]      -3.63179809 [kcal/mol]     -15.19544323 [kJ/mol]
      Exch-Disp20 (SS)              0.14853465 [mEh]       0.09320690 [kcal/mol]       0.38997766 [kJ/mol]
      Exch-Disp20 (OS)              0.08397413 [mEh]       0.05269456 [kcal/mol]       0.22047406 [kJ/mol]

  Total HF                        -21.50874224 [mEh]     -13.49693952 [kcal/mol]     -56.47119497 [kJ/mol]
  Total SAPT0                     -32.85151079 [mEh]     -20.61463425 [kcal/mol]     -86.25162970 [kJ/mol]

  Special recipe for scaled SAPT0 (see Manual):
    Electrostatics sSAPT0         -12.12796607 [mEh]      -7.61041361 [kcal/mol]     -31.84197053 [kJ/mol]
    Exchange sSAPT0                 2.28778891 [mEh]       1.43560922 [kcal/mol]       6.00658896 [kJ/mol]
    Induction sSAPT0              -11.66737500 [mEh]      -7.32138835 [kcal/mol]     -30.63268885 [kJ/mol]
    Dispersion sSAPT0             -11.34223392 [mEh]      -7.11735924 [kcal/mol]     -29.77903105 [kJ/mol]
  Total sSAPT0                    -32.84978608 [mEh]     -20.61355198 [kcal/mol]     -86.24710147 [kJ/mol]
  --------------------------------------------------------------------------------------------------------

*** tstop() called on n2cn0350 at Sat Feb 10 19:06:02 2024
Module time:
	user time   =   73471.98 seconds =    1224.53 minutes
	system time =    4002.93 seconds =      66.72 minutes
	total time  =      12835 seconds =     213.92 minutes
Total time:
	user time   =  127961.11 seconds =    2132.69 minutes
	system time =    7684.55 seconds =     128.08 minutes
	total time  =      19085 seconds =     318.08 minutes

    Psi4 stopped on: Saturday, 10 February 2024 07:06PM
    Psi4 wall time for execution: 5:18:06.19

*** Psi4 exiting successfully. Buy a developer a beer!
