
    -----------------------------------------------------------------------
          Psi4: An Open-Source Ab Initio Electronic Structure Package
                               Psi4 1.9 release

                         Git: Rev {} zzzzzzz 


    D. G. A. Smith, L. A. Burns, A. C. Simmonett, R. M. Parrish,
    M. C. Schieber, R. Galvelis, P. Kraus, H. Kruse, R. Di Remigio,
    A. Alenaizan, A. M. James, S. Lehtola, J. P. Misiewicz, M. Scheurer,
    R. A. Shaw, J. B. Schriber, Y. Xie, Z. L. Glick, D. A. Sirianni,
    J. S. O'Brien, J. M. Waldrop, A. Kumar, E. G. Hohenstein,
    B. P. Pritchard, B. R. Brooks, H. F. Schaefer III, A. Yu. Sokolov,
    K. Patkowski, A. E. DePrince III, U. Bozkaya, R. A. King,
    F. A. Evangelista, J. M. Turney, T. D. Crawford, C. D. Sherrill,
    J. Chem. Phys. 152(18) 184108 (2020). https://doi.org/10.1063/5.0006002

                            Additional Code Authors
    E. T. Seidl, C. L. Janssen, E. F. Valeev, M. L. Leininger,
    J. F. Gonthier, R. M. Richard, H. R. McAlexander, M. Saitow, X. Wang,
    P. Verma, M. H. Lechner, A. Jiang, S. Behnle, A. G. Heide,
    M. F. Herbst, and D. L. Poole

             Previous Authors, Complete List of Code Contributors,
                       and Citations for Specific Modules
    https://github.com/psi4/psi4/blob/master/codemeta.json
    https://github.com/psi4/psi4/graphs/contributors
    http://psicode.org/psi4manual/master/introduction.html#citing-psifour

    -----------------------------------------------------------------------


    Psi4 started on: Saturday, 27 January 2024 11:25AM

    Process ID: 4025706
    Host:       n2cn0505
    PSIDATADIR: /opt/software/pc2/EB-SW/software/PSI4/1.9-foss-2022a/share/psi4
    Memory:     500.0 MiB
    Threads:    16
    
  ==> Input File <==

--------------------------------------------------------------------------
memory 64 GB # how much memory is available ! Depends on the nodes/cores !

molecule dimer {
# monomer A
-1 1    # Charge and multiplicity
B -0.000046  0.000337 5.599994
F -1.153597  0.000048 6.415641
F  1.153661 -0.000581 6.415641
F -0.000019 -1.153637 4.784360
F -0.000019  1.153978 4.784360
--
# monomer B
0 1     # Charge and multiplicity
C   -3.66844126402057      7.80375217008252      0.00190004133558
C   -4.84759871934653      7.13124183134024     -0.00046653359696
C   -4.89495929917518      5.69633040353158     -0.00103944469517
C   -3.65374067877320      4.98073034095895      0.00662099703436
C   -2.40942512149445      7.11398103667468      0.00209438359570
C   -2.42547734410473      5.68112195090346     -0.00491050527438
C   -1.19474401643570      7.78614419430947      0.00356656413763
C   0.03795902893699      7.09942164575698      0.00139585983271
C   0.03033258741920      5.66948955970466     -0.00408752508301
C   -1.20098450790502      4.96927034791531      0.00488220885047
C   1.27795782581485      7.77285944319479      0.00277170839332
C   2.48535808472416      7.08769688523756      0.00049722048857
C   2.48612868491717      5.65477081024076     -0.00644052849921
C   1.25408291964399      4.95607811366431      0.00518741308898
C   3.75171459140595      7.76391215098033      0.00062407186893
C   4.92356605618520      7.07878077698995     -0.00143240883900
C   4.95560727132542      5.64344746336949     -0.00159282164606
C   3.70680153420475      4.94121020833308      0.00349873852374
H   -3.65852113775815      8.89082741913536      0.00358502958574
H   -1.18921332975660      8.87412108735996      0.00753844057883
H   1.28429423888630      8.86083343548850      0.00693053253426
H   3.75354208679975      8.85103527897216      0.00214659618464
H   5.86995870320703      7.61379483465560     -0.00235777588134
H   -5.78823170750226      7.67630221293400     -0.00202638095293
C   -6.09197395869619      4.99326001364347     -0.00291168518608
C   -6.12866148031747      3.58258016879823     -0.00171050815740
C   -3.66457974004527      3.56418217974434     -0.00463560277484
C   -4.89429820469869      2.86108077590057      0.00453338221034
C   -2.43733499489796      2.84761165708481      0.00719617576166
C   -1.20922785759670      3.54788693497833     -0.00648285103018
C   1.24714157216223      3.53468075142962     -0.00729145743546
C   0.01517603956900      2.83311183930540      0.00439272578912
C   2.46764517244071      2.82128997725533      0.00449278391269
C   3.70254947457969      3.52466015442405     -0.00899517692985
C   6.14498038638375      4.92757236613191     -0.00282626685777
C   6.16658835886151      3.51658447594213     -0.00065971342101
C   4.92460995845939      2.80840792535402      0.00587903281610
H   7.08990550964105      5.46688776622306     -0.00658814770723
H   -7.03104175110130      5.54268795285765     -0.00714490013730
C   -7.33969804112295      2.85841153457957     -0.00333767559888
C   -7.36488195805880      1.47032337158330     -0.00157213747140
C   -4.90350460894690      1.44442681216000     -0.00628840166334
C   -6.13225715261081      0.73993935705394      0.00600164231964
C   -3.67687480051673      0.72669714267312      0.00433931473643
C   -2.44565658606518      1.42964113326212     -0.00597039546461
C   -1.22360068130162      0.71532450163492      0.00545886906656
C   0.00763786931376      1.41738314923765      0.00392452278437
C   1.23121980774686      0.70211669058719     -0.01490206287210
C   2.46082110053113      1.40329203612573      0.00460244601878
C   3.68443025419614      0.68719842821222      0.00377365974158
C   4.91870890153864      1.39173456118907     -0.00862816189375
C   7.36980207796101      2.77948220318441     -0.00242013321349
C   7.38016266612146      1.39121750785509     -0.00087345036788
C   6.13979953912259      0.67411862320065      0.00545489144369
H   -8.27919079934664      3.40711804112415     -0.00763522772059
H   8.31511347147953      3.31811809662368     -0.00663070901292
C   -8.59175593758115      0.72483255304480     -0.00123170985383
C   -8.59902460370342     -0.63263980622873      0.00089141472904
C   -6.13981313911873     -0.67413663715361     -0.00609792660607
C   -7.38018411213749     -1.39126618958160      0.00131813493501
C   -4.91868448025621     -1.39175501803000      0.00624257154343
C   -3.68443829568458     -0.68723731573599     -0.00478966852105
C   -2.46081704024768     -1.40334517882457      0.00575341766833
C   -1.23116201232071     -0.70217386488055     -0.00636696112346
C   -0.00756962538737     -1.41741884941102      0.00108956317991
C   1.22364771588843     -0.71527537726392      0.01109518512883
C   2.44567064933149     -1.42964328900682     -0.00065482763106
C   3.67686670284649     -0.72670743155550     -0.00479541202602
C   6.13224884641929     -0.73997883984993     -0.00632338623858
C   4.90351914550401     -1.44445752054090      0.00751768830159
C   8.59901484869081      0.63260386666793     -0.00101133422380
C   8.59174548810050     -0.72485086719319      0.00072504603735
C   7.36486276438985     -1.47033266560598      0.00049486934466
H   -9.52830597181814      1.27684744919284     -0.00270163681798
H   9.54141097460619      1.17457248844457     -0.00206336648518
C   -7.36983790976868     -2.77954514593389      0.00312634335708
C   -4.92459910905015     -2.80843725734101     -0.00460528907921
C   -6.16662249566744     -3.51665219282533      0.00169655107992
C   -3.70251035970491     -3.52468154912026      0.00571878010666
C   -2.46764698511392     -2.82132596280400     -0.00632585824990
C   -0.01513347410770     -2.83314164539971     -0.00604426974092
C   -1.24712184122656     -3.53473217556300      0.00551968366725
C   1.20924506964357     -3.54791467864352      0.00805871345849
C   2.43733602215464     -2.84764173817541     -0.00608104485234
C   4.89430234377080     -2.86112296828604     -0.00526030478103
C   3.66461525504104     -3.56421984553201      0.00761911515957
C   6.12863901474565     -3.58258405771778      0.00096495711699
C   7.33967266469532     -2.85841330737039      0.00248018319869
H   -9.54144911125902     -1.17456346666430      0.00226083090216
H   9.52826186807155     -1.27691907390448      0.00197485379837
H   -8.31516504384864     -3.31814985321231      0.00729857188773
H   8.27915514249207     -3.40714078989363      0.00681973918158
C   -6.14499418870218     -4.92764727278338      0.00302254913999
C   -3.70678334799751     -4.94126171411716     -0.00679841894792
C   -4.95559005800169     -5.64349397349412      0.00116871569699
C   -2.48612132622665     -5.65478557440947      0.00614125209662
C   -1.25405833548005     -4.95612205000132     -0.00503435388927
C   1.20101257386816     -4.96928038819302     -0.00385322963129
C   -0.03033667441341     -5.66952030313900      0.00398997003238
C   3.65375010132847     -4.98074377541453     -0.00309522988330
C   2.42549269587528     -5.68117463552727      0.00628170066869
C   6.09196561781097     -4.99325796338655      0.00325918379042
C   4.89497644461045     -5.69634842095790      0.00202298796027
H   -7.08989238804069     -5.46699984223871      0.00742531082125
H   7.03105520920009     -5.54265853633254      0.00683896355417
C   -4.92354532219813     -7.07882109967734      0.00061394679214
C   -2.48534208823777     -7.08772807792913     -0.00189594564379
C   -3.75168589177895     -7.76394715763627     -0.00170126671874
C   -0.03794895698805     -7.09946487446944     -0.00168022049625
C   -1.27795610040136     -7.77290438466689     -0.00366491325785
C   2.40944432072629     -7.11402201200282     -0.00081701968533
C   1.19474993715296     -7.78618536556242     -0.00296931056689
C   4.84762105249800     -7.13126211057943      0.00168979497423
C   3.66847160587561     -7.80378799294376     -0.00065863938960
H   -5.86994035041618     -7.61383059804164      0.00215798365757
H   5.78824962538815     -7.67633218931421      0.00281691445618
H   -3.75352693944918     -8.85107156923607     -0.00353718114765
H   -1.28430440589466     -8.86087539249706     -0.00809229711623
H   1.18922157469537     -8.87416062058945     -0.00706194725726
H   3.65854661482387     -8.89086063405326     -0.00231318081200

    units angstrom      # Angstroms are the default
    no_reorient         # Geometry fixed, default
    symmetry c1         # C1 symmetry, default
}

set {
    scf_type DF         # Density fitting, faster than exact integrals
    freeze_core True    # Freeze core electrons
    basis jun-cc-pVDZ   # Jun-cc-pVDZ basis set, recommended for sSAPT0 in https://doi.org/10.1063/1.4867135
}

energy('ssapt0')        # Compute sSAPT0 energy, includes also SAPT0
--------------------------------------------------------------------------

  Memory set to  59.605 GiB by Python driver.

Scratch directory: /tmp/
   => Loading Basis Set <=

    Name: JUN-CC-PVDZ
    Role: ORBITAL
    Keyword: BASIS
    atoms 1                                                   entry B          line   130 file /opt/software/pc2/EB-SW/software/PSI4/1.9-foss-2022a/share/psi4/basis/jun-cc-pvdz.gbs 
    atoms 2-5                                                 entry F          line   266 file /opt/software/pc2/EB-SW/software/PSI4/1.9-foss-2022a/share/psi4/basis/jun-cc-pvdz.gbs 
    atoms 6-23, 30-42, 45-59, 62-78, 81-93, 98-108, 111-119   entry C          line   164 file /opt/software/pc2/EB-SW/software/PSI4/1.9-foss-2022a/share/psi4/basis/jun-cc-pvdz.gbs 
    atoms 24-29, 43-44, 60-61, 79-80, 94-97, 109-110, 120-125 entry H          line    36 file /opt/software/pc2/EB-SW/software/PSI4/1.9-foss-2022a/share/psi4/basis/jun-cc-pvdz.gbs 

   => Loading Basis Set <=

    Name: JUN-CC-PVDZ
    Role: ORBITAL
    Keyword: BASIS
    atoms 1                                                   entry B          line   130 file /opt/software/pc2/EB-SW/software/PSI4/1.9-foss-2022a/share/psi4/basis/jun-cc-pvdz.gbs 
    atoms 2-5                                                 entry F          line   266 file /opt/software/pc2/EB-SW/software/PSI4/1.9-foss-2022a/share/psi4/basis/jun-cc-pvdz.gbs 
    atoms 6-23, 30-42, 45-59, 62-78, 81-93, 98-108, 111-119   entry C          line   164 file /opt/software/pc2/EB-SW/software/PSI4/1.9-foss-2022a/share/psi4/basis/jun-cc-pvdz.gbs 
    atoms 24-29, 43-44, 60-61, 79-80, 94-97, 109-110, 120-125 entry H          line    36 file /opt/software/pc2/EB-SW/software/PSI4/1.9-foss-2022a/share/psi4/basis/jun-cc-pvdz.gbs 


  //>>>>>>>>>>>>>>>>>>>>>>>>>>>>>>>>>>>//
  //              Dimer HF             //
  //<<<<<<<<<<<<<<<<<<<<<<<<<<<<<<<<<<<//

   => Libint2 <=

    Primary   basis highest AM E, G, H:  5, 4, 3
    Auxiliary basis highest AM E, G, H:  6, 5, 4
    Onebody   basis highest AM E, G, H:  6, 5, 4
    Solid Harmonics ordering:            gaussian

*** tstart() called on n2cn0505
*** at Sat Jan 27 11:25:34 2024

   => Loading Basis Set <=

    Name: JUN-CC-PVDZ
    Role: ORBITAL
    Keyword: BASIS
    atoms 1                                                   entry B          line   130 file /opt/software/pc2/EB-SW/software/PSI4/1.9-foss-2022a/share/psi4/basis/jun-cc-pvdz.gbs 
    atoms 2-5                                                 entry F          line   266 file /opt/software/pc2/EB-SW/software/PSI4/1.9-foss-2022a/share/psi4/basis/jun-cc-pvdz.gbs 
    atoms 6-23, 30-42, 45-59, 62-78, 81-93, 98-108, 111-119   entry C          line   164 file /opt/software/pc2/EB-SW/software/PSI4/1.9-foss-2022a/share/psi4/basis/jun-cc-pvdz.gbs 
    atoms 24-29, 43-44, 60-61, 79-80, 94-97, 109-110, 120-125 entry H          line    36 file /opt/software/pc2/EB-SW/software/PSI4/1.9-foss-2022a/share/psi4/basis/jun-cc-pvdz.gbs 


         ---------------------------------------------------------
                                   SCF
               by Justin Turney, Rob Parrish, Andy Simmonett
                          and Daniel G. A. Smith
                              RHF Reference
                       16 Threads,  61035 MiB Core
         ---------------------------------------------------------

  ==> Geometry <==

    Molecular point group: c1
    Full point group: C1

    Geometry (in Angstrom), charge = -1, multiplicity = 1:

       Center              X                  Y                   Z               Mass       
    ------------   -----------------  -----------------  -----------------  -----------------
         B           -0.000050191042     0.000351518223     5.214287984613    11.009305360000
         F           -1.153601191042     0.000062518223     6.029934984613    18.998403162730
         F            1.153656808958    -0.000566481777     6.029934984613    18.998403162730
         F           -0.000023191042    -1.153622481777     4.398653984613    18.998403162730
         F           -0.000023191042     1.153992518223     4.398653984613    18.998403162730
         C           -3.668445455062     7.803766688305    -0.383805974051    12.000000000000
         C           -4.847602910388     7.131256349563    -0.386172548984    12.000000000000
         C           -4.894963490217     5.696344921754    -0.386745460082    12.000000000000
         C           -3.653744869815     4.980744859182    -0.379085018353    12.000000000000
         C           -2.409429312536     7.113995554897    -0.383611631791    12.000000000000
         C           -2.425481535146     5.681136469126    -0.390616520661    12.000000000000
         C           -1.194748207477     7.786158712532    -0.382139451249    12.000000000000
         C            0.037954837895     7.099436163980    -0.384310155554    12.000000000000
         C            0.030328396378     5.669504077927    -0.389793540470    12.000000000000
         C           -1.200988698947     4.969284866138    -0.380823806536    12.000000000000
         C            1.277953634773     7.772873961417    -0.382934306994    12.000000000000
         C            2.485353893683     7.087711403460    -0.385208794898    12.000000000000
         C            2.486124493876     5.654785328463    -0.392146543886    12.000000000000
         C            1.254078728602     4.956092631887    -0.380518602298    12.000000000000
         C            3.751710400364     7.763926669203    -0.385081943518    12.000000000000
         C            4.923561865144     7.078795295213    -0.387138424226    12.000000000000
         C            4.955603080284     5.643461981592    -0.387298837033    12.000000000000
         C            3.706797343163     4.941224726556    -0.382207276863    12.000000000000
         H           -3.658525328800     8.890841937358    -0.382120985801     1.007825032230
         H           -1.189217520798     8.874135605583    -0.378167574808     1.007825032230
         H            1.284290047845     8.860847953711    -0.378775482853     1.007825032230
         H            3.753537895758     8.851049797195    -0.383559419202     1.007825032230
         H            5.869954512165     7.613809352878    -0.388063791268     1.007825032230
         H           -5.788235898544     7.676316731157    -0.387732396340     1.007825032230
         C           -6.091978149738     4.993274531866    -0.388617700573    12.000000000000
         C           -6.128665671359     3.582594687021    -0.387416523544    12.000000000000
         C           -3.664583931087     3.564196697967    -0.390341618162    12.000000000000
         C           -4.894302395740     2.861095294123    -0.381172633177    12.000000000000
         C           -2.437339185940     2.847626175307    -0.378509839625    12.000000000000
         C           -1.209232048638     3.547901453201    -0.392188866417    12.000000000000
         C            1.247137381121     3.534695269652    -0.392997472822    12.000000000000
         C            0.015171848527     2.833126357528    -0.381313289598    12.000000000000
         C            2.467640981399     2.821304495478    -0.381213231474    12.000000000000
         C            3.702545283538     3.524674672647    -0.394701192317    12.000000000000
         C            6.144976195342     4.927586884354    -0.388532282245    12.000000000000
         C            6.166584167820     3.516598994165    -0.386365728808    12.000000000000
         C            4.924605767418     2.808422443577    -0.379826982571    12.000000000000
         H            7.089901318599     5.466902284446    -0.392294163094     1.007825032230
         H           -7.031045942143     5.542702471080    -0.392850915524     1.007825032230
         C           -7.339702232165     2.858426052802    -0.389043690986    12.000000000000
         C           -7.364886149100     1.470337889806    -0.387278152858    12.000000000000
         C           -4.903508799989     1.444441330383    -0.391994417050    12.000000000000
         C           -6.132261343652     0.739953875277    -0.379704373067    12.000000000000
         C           -3.676878991558     0.726711660896    -0.381366700650    12.000000000000
         C           -2.445660777107     1.429655651485    -0.391676410851    12.000000000000
         C           -1.223604872343     0.715339019858    -0.380247146320    12.000000000000
         C            0.007633678272     1.417397667460    -0.381781492603    12.000000000000
         C            1.231215616705     0.702131208810    -0.400608078259    12.000000000000
         C            2.460816909489     1.403306554348    -0.381103569368    12.000000000000
         C            3.684426063155     0.687212946435    -0.381932355645    12.000000000000
         C            4.918704710497     1.391749079412    -0.394334177281    12.000000000000
         C            7.369797886919     2.779496721407    -0.388126148600    12.000000000000
         C            7.380158475080     1.391232026078    -0.386579465755    12.000000000000
         C            6.139795348081     0.674133141423    -0.380251123943    12.000000000000
         H           -8.279194990388     3.407132559347    -0.393341243107     1.007825032230
         H            8.315109280438     3.318132614846    -0.392336724400     1.007825032230
         C           -8.591760128623     0.724847071267    -0.386937725241    12.000000000000
         C           -8.599028794745    -0.632625288006    -0.384814600658    12.000000000000
         C           -6.139817330160    -0.674122118931    -0.391803941993    12.000000000000
         C           -7.380188303179    -1.391251671359    -0.384387880452    12.000000000000
         C           -4.918688671298    -1.391740499807    -0.379463443843    12.000000000000
         C           -3.684442486726    -0.687222797513    -0.390495683908    12.000000000000
         C           -2.460821231289    -1.403330660602    -0.379952597719    12.000000000000
         C           -1.231166203362    -0.702159346658    -0.392072976510    12.000000000000
         C           -0.007573816429    -1.417404331188    -0.384616452207    12.000000000000
         C            1.223643524847    -0.715260859041    -0.374610830258    12.000000000000
         C            2.445666458290    -1.429628770784    -0.386360843018    12.000000000000
         C            3.676862511805    -0.726692913333    -0.390501427413    12.000000000000
         C            6.132244655378    -0.739964321627    -0.392029401625    12.000000000000
         C            4.903514954462    -1.444443002318    -0.378188327085    12.000000000000
         C            8.599010657649     0.632618384891    -0.386717349611    12.000000000000
         C            8.591741297059    -0.724836348971    -0.384980969350    12.000000000000
         C            7.364858573348    -1.470318147383    -0.385211146042    12.000000000000
         H           -9.528310162860     1.276861967415    -0.388407652205     1.007825032230
         H            9.541406783565     1.174587006667    -0.387769381872     1.007825032230
         C           -7.369842100810    -2.779530627711    -0.382579672030    12.000000000000
         C           -4.924603300092    -2.808422739118    -0.390311304466    12.000000000000
         C           -6.166626686709    -3.516637674603    -0.384009464307    12.000000000000
         C           -3.702514550747    -3.524667030898    -0.379987235280    12.000000000000
         C           -2.467651176156    -2.821311444581    -0.392031873637    12.000000000000
         C           -0.015137665149    -2.833127127177    -0.391750285128    12.000000000000
         C           -1.247126032268    -3.534717657340    -0.380186331720    12.000000000000
         C            1.209240878602    -3.547900160421    -0.377647301928    12.000000000000
         C            2.437331831113    -2.847627219953    -0.391787060239    12.000000000000
         C            4.894298152729    -2.861108450063    -0.390966320168    12.000000000000
         C            3.664611063999    -3.564205327309    -0.378086900227    12.000000000000
         C            6.128634823704    -3.582569539495    -0.384741058270    12.000000000000
         C            7.339668473654    -2.858398789148    -0.383225832188    12.000000000000
         H           -9.541453302301    -1.174548948442    -0.383445184485     1.007825032230
         H            9.528257677030    -1.276904555682    -0.383731161589     1.007825032230
         H           -8.315169234890    -3.318135334990    -0.378407443499     1.007825032230
         H            8.279150951450    -3.407126271671    -0.378886276205     1.007825032230
         C           -6.144998379744    -4.927632754561    -0.382683466247    12.000000000000
         C           -3.706787539039    -4.941247195895    -0.392504434335    12.000000000000
         C           -4.955594249043    -5.643479455272    -0.384537299690    12.000000000000
         C           -2.486125517268    -5.654771056187    -0.379564763290    12.000000000000
         C           -1.254062526522    -4.956107531779    -0.390740369276    12.000000000000
         C            1.201008382827    -4.969265869970    -0.389559245018    12.000000000000
         C           -0.030340865455    -5.669505784916    -0.381716045354    12.000000000000
         C            3.653745910287    -4.980729257192    -0.388801245270    12.000000000000
         C            2.425488504834    -5.681160117305    -0.379424314718    12.000000000000
         C            6.091961426769    -4.993243445164    -0.382446831596    12.000000000000
         C            4.894972253569    -5.696333902735    -0.383683027427    12.000000000000
         H           -7.089896579082    -5.466985324016    -0.378280704566     1.007825032230
         H            7.031051018158    -5.542644018110    -0.378867051833     1.007825032230
         C           -4.923549513240    -7.078806581455    -0.385092068595    12.000000000000
         C           -2.485346279279    -7.087713559707    -0.387601961031    12.000000000000
         C           -3.751690082821    -7.763932639414    -0.387407282106    12.000000000000
         C           -0.037953148030    -7.099450356247    -0.387386235883    12.000000000000
         C           -1.277960291443    -7.772889866444    -0.389370928645    12.000000000000
         C            2.409440129685    -7.114007493780    -0.386523035072    12.000000000000
         C            1.194745746111    -7.786170847340    -0.388675325954    12.000000000000
         C            4.847616861456    -7.131247592357    -0.384016220413    12.000000000000
         C            3.668467414834    -7.803773474721    -0.386364654776    12.000000000000
         H           -5.869944541458    -7.613816079819    -0.383548031729     1.007825032230
         H            5.788245434347    -7.676317671092    -0.382889100931     1.007825032230
         H           -3.753531130491    -8.851057051013    -0.389243196535     1.007825032230
         H           -1.284308596936    -8.860860874274    -0.393798312503     1.007825032230
         H            1.189217383654    -8.874146102367    -0.392767962644     1.007825032230
         H            3.658542423782    -8.890846115831    -0.388019196199     1.007825032230

  Running in c1 symmetry.

  Rotational constants: A =      0.00064  B =      0.00064  C =      0.00035 [cm^-1]
  Rotational constants: A =     19.04369  B =     19.04059  C =     10.55117 [MHz]
  Nuclear repulsion = 17387.922269196114939

  Charge       = -1
  Multiplicity = 1
  Electrons    = 642
  Nalpha       = 321
  Nbeta        = 321

  ==> Algorithm <==

  SCF Algorithm Type is DF.
  DIIS enabled.
  MOM disabled.
  Fractional occupation disabled.
  Guess Type is SAD.
  Energy threshold   = 1.00e-08
  Density threshold  = 1.00e-08
  Integral threshold = 1.00e-12

  ==> Primary Basis <==

  Basis Set: JUN-CC-PVDZ
    Blend: JUN-CC-PVDZ
    Number of shells: 880
    Number of basis functions: 1938
    Number of Cartesian functions: 2039
    Spherical Harmonics?: true
    Max angular momentum: 2

   => Loading Basis Set <=

    Name: (JUN-CC-PVDZ AUX)
    Role: JKFIT
    Keyword: DF_BASIS_SCF
    atoms 1                                                   entry B          line    90 file /opt/software/pc2/EB-SW/software/PSI4/1.9-foss-2022a/share/psi4/basis/jun-cc-pvdz-jkfit.gbs 
    atoms 2-5                                                 entry F          line   314 file /opt/software/pc2/EB-SW/software/PSI4/1.9-foss-2022a/share/psi4/basis/jun-cc-pvdz-jkfit.gbs 
    atoms 6-23, 30-42, 45-59, 62-78, 81-93, 98-108, 111-119   entry C          line   146 file /opt/software/pc2/EB-SW/software/PSI4/1.9-foss-2022a/share/psi4/basis/jun-cc-pvdz-jkfit.gbs 
    atoms 24-29, 43-44, 60-61, 79-80, 94-97, 109-110, 120-125 entry H          line    70 file /opt/software/pc2/EB-SW/software/PSI4/1.9-foss-2022a/share/psi4/basis/jun-cc-pvdz-jkfit.gbs 

  ==> Integral Setup <==

  ==> DiskDFJK: Density-Fitted J/K Matrices <==

    J tasked:                  Yes
    K tasked:                  Yes
    wK tasked:                  No
    OpenMP threads:             16
    Integrals threads:          16
    Memory [MiB]:            45776
    Algorithm:                Disk
    Integral Cache:           SAVE
    Schwarz Cutoff:          1E-12
    Fitting Condition:       1E-10

   => Auxiliary Basis Set <=

  Basis Set: (JUN-CC-PVDZ AUX)
    Blend: JUN-CC-PVDZ-JKFIT
    Number of shells: 2943
    Number of basis functions: 8531
    Number of Cartesian functions: 9791
    Spherical Harmonics?: true
    Max angular momentum: 3

  Minimum eigenvalue in the overlap matrix is 8.9912103625E-11.
  Reciprocal condition number of the overlap matrix is 3.9186670466E-12.
    Using canonical orthogonalization.
  Overall, 38 of 1938 possible MOs eliminated.


  ==> Pre-Iterations <==

  SCF Guess: Superposition of Atomic Densities via on-the-fly atomic UHF (no occupation information).

   -------------------------
    Irrep   Nso     Nmo    
   -------------------------
     A       1938    1900 
   -------------------------
    Total    1938    1900
   -------------------------

  ==> Iterations <==

                           Total Energy        Delta E     RMS |[F,P]|

   @DF-RHF iter SAD: -4085.00474290954980   -4.08500e+03   0.00000e+00 
   @DF-RHF iter   1: -4071.51724740991176    1.34875e+01   7.89876e-04 ADIIS/DIIS
   @DF-RHF iter   2: -4072.91557900311363   -1.39833e+00   3.09074e-04 ADIIS/DIIS
   @DF-RHF iter   3: -4073.08005875585377   -1.64480e-01   1.02141e-04 ADIIS/DIIS
   @DF-RHF iter   4: -4073.10192106859267   -2.18623e-02   3.71093e-05 DIIS
   @DF-RHF iter   5: -4073.10520004308455   -3.27897e-03   1.05793e-05 DIIS
   @DF-RHF iter   6: -4073.10562445089727   -4.24408e-04   4.17286e-06 DIIS
   @DF-RHF iter   7: -4073.10580173995550   -1.77289e-04   2.05491e-06 DIIS
   @DF-RHF iter   8: -4073.10585348594668   -5.17460e-05   1.11759e-06 DIIS
   @DF-RHF iter   9: -4073.10586777550952   -1.42896e-05   2.99875e-07 DIIS
   @DF-RHF iter  10: -4073.10586861703496   -8.41525e-07   1.48416e-07 DIIS
   @DF-RHF iter  11: -4073.10586874276214   -1.25727e-07   5.85702e-08 DIIS
   @DF-RHF iter  12: -4073.10586877250125   -2.97391e-08   3.10468e-08 DIIS
   @DF-RHF iter  13: -4073.10586877853120   -6.02995e-09   1.10727e-08 DIIS
   @DF-RHF iter  14: -4073.10586877911646   -5.85260e-10   4.96102e-09 DIIS
  Energy and wave function converged.


  ==> Post-Iterations <==

    Orbital Energies [Eh]
    ---------------------

    Doubly Occupied:                                                      

       1A    -26.069941     2A    -26.069761     3A    -26.068228  
       4A    -26.068194     5A    -11.205303     6A    -11.205296  
       7A    -11.205283     8A    -11.205281     9A    -11.205240  
      10A    -11.205240    11A    -11.205232    12A    -11.205229  
      13A    -11.205205    14A    -11.205200    15A    -11.205192  
      16A    -11.205185    17A    -11.204848    18A    -11.204842  
      19A    -11.204835    20A    -11.204830    21A    -11.204768  
      22A    -11.204754    23A    -11.202912    24A    -11.202900  
      25A    -11.202836    26A    -11.202821    27A    -11.202751  
      28A    -11.202718    29A    -11.202667    30A    -11.202606  
      31A    -11.202604    32A    -11.202552    33A    -11.202466  
      34A    -11.202441    35A    -11.201701    36A    -11.201693  
      37A    -11.201596    38A    -11.201582    39A    -11.201544  
      40A    -11.201528    41A    -11.201091    42A    -11.201067  
      43A    -11.201031    44A    -11.201028    45A    -11.200976  
      46A    -11.200969    47A    -11.200967    48A    -11.200965  
      49A    -11.200963    50A    -11.200917    51A    -11.200868  
      52A    -11.200853    53A    -11.200704    54A    -11.200689  
      55A    -11.200675    56A    -11.200655    57A    -11.200596  
      58A    -11.200585    59A    -11.200521    60A    -11.200500  
      61A    -11.200471    62A    -11.200457    63A    -11.200407  
      64A    -11.200392    65A    -11.200099    66A    -11.200030  
      67A    -11.199944    68A    -11.199787    69A    -11.199722  
      70A    -11.199601    71A    -11.199577    72A    -11.199573  
      73A    -11.199514    74A    -11.199512    75A    -11.199511  
      76A    -11.199509    77A    -11.199479    78A    -11.199137  
      79A    -11.199119    80A    -11.198813    81A    -11.198729  
      82A    -11.198678    83A    -11.198423    84A    -11.198211  
      85A    -11.198167    86A    -11.197527    87A    -11.197511  
      88A    -11.197459    89A    -11.197454    90A    -11.197441  
      91A    -11.197414    92A    -11.197405    93A    -11.197403  
      94A    -11.197389    95A    -11.197366    96A    -11.197363  
      97A    -11.197338    98A    -11.197331    99A    -11.197296  
     100A    -11.196904   101A     -7.541202   102A     -1.412952  
     103A     -1.353981   104A     -1.353156   105A     -1.352365  
     106A     -1.192143   107A     -1.179227   108A     -1.179106  
     109A     -1.161796   110A     -1.161791   111A     -1.154871  
     112A     -1.143386   113A     -1.137388   114A     -1.128205  
     115A     -1.128091   116A     -1.116377   117A     -1.116360  
     118A     -1.096173   119A     -1.096158   120A     -1.092960  
     121A     -1.087627   122A     -1.087624   123A     -1.070119  
     124A     -1.056090   125A     -1.055427   126A     -1.054820  
     127A     -1.053069   128A     -1.053000   129A     -1.030165  
     130A     -1.030147   131A     -1.020065   132A     -1.020053  
     133A     -1.008757   134A     -1.008747   135A     -1.005574  
     136A     -0.988941   137A     -0.988931   138A     -0.982547  
     139A     -0.981830   140A     -0.981815   141A     -0.965989  
     142A     -0.960833   143A     -0.960818   144A     -0.949798  
     145A     -0.948199   146A     -0.945739   147A     -0.941740  
     148A     -0.941701   149A     -0.934581   150A     -0.912488  
     151A     -0.912472   152A     -0.898519   153A     -0.898477  
     154A     -0.849287   155A     -0.849248   156A     -0.845884  
     157A     -0.845835   158A     -0.843938   159A     -0.832418  
     160A     -0.832355   161A     -0.830956   162A     -0.830863  
     163A     -0.830730   164A     -0.815328   165A     -0.813606  
     166A     -0.794556   167A     -0.789019   168A     -0.788960  
     169A     -0.786276   170A     -0.784484   171A     -0.776932  
     172A     -0.776912   173A     -0.771739   174A     -0.771722  
     175A     -0.728248   176A     -0.728244   177A     -0.724408  
     178A     -0.724332   179A     -0.724280   180A     -0.724261  
     181A     -0.723136   182A     -0.709173   183A     -0.701462  
     184A     -0.691907   185A     -0.677094   186A     -0.669312  
     187A     -0.669265   188A     -0.667096   189A     -0.666742  
     190A     -0.666720   191A     -0.659242   192A     -0.655113  
     193A     -0.655091   194A     -0.642516   195A     -0.642498  
     196A     -0.629001   197A     -0.628992   198A     -0.627272  
     199A     -0.624746   200A     -0.624725   201A     -0.621152  
     202A     -0.604222   203A     -0.596743   204A     -0.593645  
     205A     -0.593626   206A     -0.592706   207A     -0.591178  
     208A     -0.591138   209A     -0.582898   210A     -0.582581  
     211A     -0.582549   212A     -0.582181   213A     -0.577985  
     214A     -0.577969   215A     -0.571468   216A     -0.558682  
     217A     -0.558675   218A     -0.554880   219A     -0.551744  
     220A     -0.551739   221A     -0.541150   222A     -0.540249  
     223A     -0.540187   224A     -0.540055   225A     -0.538938  
     226A     -0.538774   227A     -0.538285   228A     -0.538268  
     229A     -0.537580   230A     -0.534206   231A     -0.533850  
     232A     -0.533826   233A     -0.530704   234A     -0.530358  
     235A     -0.530094   236A     -0.528086   237A     -0.522118  
     238A     -0.522108   239A     -0.516922   240A     -0.516911  
     241A     -0.516322   242A     -0.510452   243A     -0.510424  
     244A     -0.508515   245A     -0.508477   246A     -0.508058  
     247A     -0.505207   248A     -0.502316   249A     -0.500587  
     250A     -0.500546   251A     -0.496390   252A     -0.493044  
     253A     -0.492255   254A     -0.486106   255A     -0.476546  
     256A     -0.476527   257A     -0.474406   258A     -0.474292  
     259A     -0.471006   260A     -0.470998   261A     -0.468739  
     262A     -0.459348   263A     -0.459292   264A     -0.458198  
     265A     -0.458183   266A     -0.453031   267A     -0.453005  
     268A     -0.449313   269A     -0.449238   270A     -0.440395  
     271A     -0.438489   272A     -0.438478   273A     -0.434003  
     274A     -0.433965   275A     -0.428951   276A     -0.424820  
     277A     -0.420656   278A     -0.420654   279A     -0.416766  
     280A     -0.410615   281A     -0.410550   282A     -0.410443  
     283A     -0.410280   284A     -0.408474   285A     -0.408461  
     286A     -0.400277   287A     -0.387372   288A     -0.386913  
     289A     -0.386768   290A     -0.386683   291A     -0.386488  
     292A     -0.381490   293A     -0.380795   294A     -0.380650  
     295A     -0.378348   296A     -0.377209   297A     -0.348968  
     298A     -0.348924   299A     -0.329371   300A     -0.329356  
     301A     -0.326965   302A     -0.326944   303A     -0.323745  
     304A     -0.296287   305A     -0.296274   306A     -0.292425  
     307A     -0.276567   308A     -0.276389   309A     -0.276348  
     310A     -0.273254   311A     -0.273201   312A     -0.247465  
     313A     -0.243227   314A     -0.242147   315A     -0.242071  
     316A     -0.228519   317A     -0.201039   318A     -0.193855  
     319A     -0.193823   320A     -0.146318   321A     -0.146253  

    Virtual:                                                              

     322A      0.046153   323A      0.046265   324A      0.090197  
     325A      0.090387   326A      0.090407   327A      0.092804  
     328A      0.092828   329A      0.094393   330A      0.094504  
     331A      0.094579   332A      0.098175   333A      0.100757  
     334A      0.106225   335A      0.106237   336A      0.117526  
     337A      0.117532   338A      0.123177   339A      0.124625  
     340A      0.126594   341A      0.129173   342A      0.129239  
     343A      0.130911   344A      0.131158   345A      0.132573  
     346A      0.132852   347A      0.133083   348A      0.133366  
     349A      0.133543   350A      0.137880   351A      0.138008  
     352A      0.140461   353A      0.143587   354A      0.143614  
     355A      0.143709   356A      0.145094   357A      0.145126  
     358A      0.151296   359A      0.155340   360A      0.155344  
     361A      0.156110   362A      0.159195   363A      0.159378  
     364A      0.159434   365A      0.159916   366A      0.162148  
     367A      0.162261   368A      0.164677   369A      0.165785  
     370A      0.166925   371A      0.167197   372A      0.167371  
     373A      0.167570   374A      0.172488   375A      0.174176  
     376A      0.174352   377A      0.176241   378A      0.177037  
     379A      0.181191   380A      0.181319   381A      0.181843  
     382A      0.185369   383A      0.186326   384A      0.188921  
     385A      0.189165   386A      0.193433   387A      0.193456  
     388A      0.194288   389A      0.194957   390A      0.195192  
     391A      0.198923   392A      0.199043   393A      0.204704  
     394A      0.209012   395A      0.209161   396A      0.209293  
     397A      0.210428   398A      0.211403   399A      0.211805  
     400A      0.211871   401A      0.212497   402A      0.212929  
     403A      0.216737   404A      0.217150   405A      0.218006  
     406A      0.218233   407A      0.218940   408A      0.219388  
     409A      0.219796   410A      0.221107   411A      0.222475  
     412A      0.227928   413A      0.228341   414A      0.229319  
     415A      0.231562   416A      0.231575   417A      0.236687  
     418A      0.236768   419A      0.238200   420A      0.238455  
     421A      0.238587   422A      0.241431   423A      0.244993  
     424A      0.245352   425A      0.247265   426A      0.247542  
     427A      0.249710   428A      0.250427   429A      0.252196  
     430A      0.253006   431A      0.253187   432A      0.253536  
     433A      0.253781   434A      0.254069   435A      0.255499  
     436A      0.255820   437A      0.257726   438A      0.263763  
     439A      0.263840   440A      0.265152   441A      0.265200  
     442A      0.265595   443A      0.266543   444A      0.266782  
     445A      0.267518   446A      0.268193   447A      0.268393  
     448A      0.269131   449A      0.269367   450A      0.270703  
     451A      0.270797   452A      0.272574   453A      0.272642  
     454A      0.276929   455A      0.278796   456A      0.279035  
     457A      0.279428   458A      0.279763   459A      0.280121  
     460A      0.284033   461A      0.285820   462A      0.286321  
     463A      0.286370   464A      0.287381   465A      0.289136  
     466A      0.289190   467A      0.289972   468A      0.291072  
     469A      0.292271   470A      0.294679   471A      0.298540  
     472A      0.298624   473A      0.300073   474A      0.303213  
     475A      0.305789   476A      0.308478   477A      0.308995  
     478A      0.309930   479A      0.310438   480A      0.310538  
     481A      0.311236   482A      0.311888   483A      0.314233  
     484A      0.314306   485A      0.314558   486A      0.314862  
     487A      0.316031   488A      0.318157   489A      0.318937  
     490A      0.319102   491A      0.321305   492A      0.321917  
     493A      0.322507   494A      0.324116   495A      0.324142  
     496A      0.331560   497A      0.331615   498A      0.332102  
     499A      0.333534   500A      0.333773   501A      0.336160  
     502A      0.336619   503A      0.337591   504A      0.339746  
     505A      0.340068   506A      0.340777   507A      0.340889  
     508A      0.342865   509A      0.344364   510A      0.347662  
     511A      0.349975   512A      0.351846   513A      0.352449  
     514A      0.352476   515A      0.353219   516A      0.355346  
     517A      0.358057   518A      0.358489   519A      0.359155  
     520A      0.359418   521A      0.359671   522A      0.360588  
     523A      0.361396   524A      0.361869   525A      0.362290  
     526A      0.364562   527A      0.364721   528A      0.364748  
     529A      0.367817   530A      0.368180   531A      0.368680  
     532A      0.368869   533A      0.369084   534A      0.373419  
     535A      0.373600   536A      0.373853   537A      0.374828  
     538A      0.377463   539A      0.379032   540A      0.380209  
     541A      0.380681   542A      0.381704   543A      0.382524  
     544A      0.382748   545A      0.383467   546A      0.383839  
     547A      0.384133   548A      0.384712   549A      0.386159  
     550A      0.387141   551A      0.390048   552A      0.392018  
     553A      0.392048   554A      0.393617   555A      0.395435  
     556A      0.395490   557A      0.395756   558A      0.397214  
     559A      0.398961   560A      0.399278   561A      0.401312  
     562A      0.401593   563A      0.407759   564A      0.408445  
     565A      0.409526   566A      0.409697   567A      0.411411  
     568A      0.414180   569A      0.414758   570A      0.415246  
     571A      0.416203   572A      0.416417   573A      0.417084  
     574A      0.417693   575A      0.418653   576A      0.419556  
     577A      0.419905   578A      0.421260   579A      0.422138  
     580A      0.424279   581A      0.425252   582A      0.426366  
     583A      0.427227   584A      0.428520   585A      0.431749  
     586A      0.431787   587A      0.434493   588A      0.436081  
     589A      0.436321   590A      0.436723   591A      0.437510  
     592A      0.442032   593A      0.442281   594A      0.442769  
     595A      0.442980   596A      0.443411   597A      0.447003  
     598A      0.447224   599A      0.447451   600A      0.449167  
     601A      0.450760   602A      0.451114   603A      0.451323  
     604A      0.452056   605A      0.452827   606A      0.454297  
     607A      0.454566   608A      0.455296   609A      0.455791  
     610A      0.455881   611A      0.457297   612A      0.458518  
     613A      0.458965   614A      0.459409   615A      0.461858  
     616A      0.462422   617A      0.462832   618A      0.463437  
     619A      0.464174   620A      0.464974   621A      0.465597  
     622A      0.466626   623A      0.466706   624A      0.466730  
     625A      0.468622   626A      0.469825   627A      0.469866  
     628A      0.470865   629A      0.472731   630A      0.472832  
     631A      0.473748   632A      0.474165   633A      0.474920  
     634A      0.476020   635A      0.476903   636A      0.477069  
     637A      0.478504   638A      0.479253   639A      0.480983  
     640A      0.481966   641A      0.482380   642A      0.482744  
     643A      0.483543   644A      0.487222   645A      0.488254  
     646A      0.488308   647A      0.489725   648A      0.490368  
     649A      0.490472   650A      0.491316   651A      0.491717  
     652A      0.491930   653A      0.493623   654A      0.494477  
     655A      0.495720   656A      0.496426   657A      0.496537  
     658A      0.497515   659A      0.498411   660A      0.500162  
     661A      0.501039   662A      0.502520   663A      0.504080  
     664A      0.504127   665A      0.504800   666A      0.505798  
     667A      0.509094   668A      0.509234   669A      0.510111  
     670A      0.511394   671A      0.511675   672A      0.512225  
     673A      0.512418   674A      0.514694   675A      0.516318  
     676A      0.517688   677A      0.518917   678A      0.519065  
     679A      0.522198   680A      0.522578   681A      0.523276  
     682A      0.524407   683A      0.524973   684A      0.525381  
     685A      0.529827   686A      0.530325   687A      0.531759  
     688A      0.532661   689A      0.532774   690A      0.533452  
     691A      0.534251   692A      0.534593   693A      0.538491  
     694A      0.538616   695A      0.539289   696A      0.540147  
     697A      0.540222   698A      0.541472   699A      0.542463  
     700A      0.542523   701A      0.544195   702A      0.546881  
     703A      0.546965   704A      0.548374   705A      0.548747  
     706A      0.549091   707A      0.549349   708A      0.550609  
     709A      0.550753   710A      0.552682   711A      0.553309  
     712A      0.554184   713A      0.555654   714A      0.556340  
     715A      0.557543   716A      0.558283   717A      0.558914  
     718A      0.559130   719A      0.563651   720A      0.565454  
     721A      0.565816   722A      0.567020   723A      0.567348  
     724A      0.569875   725A      0.570824   726A      0.572504  
     727A      0.574888   728A      0.575398   729A      0.575457  
     730A      0.575604   731A      0.576676   732A      0.577427  
     733A      0.577564   734A      0.583514   735A      0.583526  
     736A      0.583731   737A      0.586847   738A      0.588665  
     739A      0.590250   740A      0.591173   741A      0.591605  
     742A      0.592493   743A      0.593490   744A      0.594484  
     745A      0.595310   746A      0.595682   747A      0.598000  
     748A      0.602527   749A      0.606033   750A      0.607252  
     751A      0.608563   752A      0.614634   753A      0.616854  
     754A      0.618447   755A      0.621112   756A      0.621994  
     757A      0.622581   758A      0.623180   759A      0.624039  
     760A      0.624965   761A      0.626060   762A      0.626547  
     763A      0.630879   764A      0.632450   765A      0.633104  
     766A      0.637308   767A      0.639787   768A      0.640588  
     769A      0.642371   770A      0.644453   771A      0.644733  
     772A      0.645930   773A      0.646229   774A      0.646713  
     775A      0.647288   776A      0.649132   777A      0.652163  
     778A      0.652998   779A      0.654561   780A      0.655948  
     781A      0.658292   782A      0.660186   783A      0.663612  
     784A      0.664017   785A      0.666067   786A      0.666796  
     787A      0.667338   788A      0.667967   789A      0.670934  
     790A      0.676197   791A      0.677534   792A      0.678929  
     793A      0.679216   794A      0.679967   795A      0.683168  
     796A      0.686232   797A      0.688558   798A      0.690978  
     799A      0.692882   800A      0.696080   801A      0.701104  
     802A      0.702142   803A      0.702852   804A      0.703075  
     805A      0.704297   806A      0.711248   807A      0.716216  
     808A      0.717131   809A      0.717642   810A      0.718584  
     811A      0.719193   812A      0.720366   813A      0.721444  
     814A      0.724920   815A      0.727206   816A      0.727466  
     817A      0.734139   818A      0.734675   819A      0.736626  
     820A      0.737028   821A      0.745727   822A      0.746492  
     823A      0.748034   824A      0.748164   825A      0.749972  
     826A      0.752419   827A      0.752793   828A      0.753074  
     829A      0.754905   830A      0.759182   831A      0.764751  
     832A      0.764812   833A      0.765691   834A      0.769427  
     835A      0.771874   836A      0.772460   837A      0.773442  
     838A      0.775541   839A      0.781741   840A      0.784661  
     841A      0.788047   842A      0.791290   843A      0.792402  
     844A      0.797579   845A      0.797818   846A      0.799751  
     847A      0.802646   848A      0.805024   849A      0.808342  
     850A      0.809472   851A      0.811119   852A      0.811249  
     853A      0.813128   854A      0.830979   855A      0.831196  
     856A      0.841362   857A      0.843790   858A      0.846353  
     859A      0.846457   860A      0.850403   861A      0.851914  
     862A      0.854474   863A      0.857946   864A      0.858775  
     865A      0.860646   866A      0.862451   867A      0.863516  
     868A      0.866925   869A      0.867314   870A      0.871638  
     871A      0.872611   872A      0.872984   873A      0.874172  
     874A      0.875107   875A      0.875196   876A      0.884216  
     877A      0.884991   878A      0.885784   879A      0.893228  
     880A      0.893355   881A      0.894082   882A      0.896315  
     883A      0.899475   884A      0.901188   885A      0.902347  
     886A      0.902431   887A      0.903103   888A      0.905760  
     889A      0.907388   890A      0.908148   891A      0.914303  
     892A      0.915444   893A      0.917425   894A      0.918432  
     895A      0.918687   896A      0.922451   897A      0.923893  
     898A      0.925079   899A      0.926519   900A      0.927507  
     901A      0.928114   902A      0.930880   903A      0.931935  
     904A      0.932237   905A      0.933213   906A      0.935491  
     907A      0.935695   908A      0.937223   909A      0.939304  
     910A      0.941238   911A      0.942224   912A      0.942794  
     913A      0.944364   914A      0.948536   915A      0.951393  
     916A      0.952124   917A      0.953330   918A      0.953840  
     919A      0.955642   920A      0.956834   921A      0.960794  
     922A      0.961539   923A      0.962642   924A      0.965494  
     925A      0.968242   926A      0.969905   927A      0.971651  
     928A      0.971936   929A      0.976277   930A      0.977819  
     931A      0.977979   932A      0.978847   933A      0.979010  
     934A      0.980203   935A      0.982808   936A      0.984902  
     937A      0.985631   938A      0.988358   939A      0.989341  
     940A      0.990058   941A      0.992744   942A      0.993477  
     943A      0.994208   944A      0.996409   945A      0.998610  
     946A      1.001143   947A      1.001940   948A      1.006149  
     949A      1.006606   950A      1.006774   951A      1.007263  
     952A      1.008155   953A      1.009890   954A      1.011328  
     955A      1.011661   956A      1.012624   957A      1.012742  
     958A      1.013413   959A      1.013927   960A      1.021133  
     961A      1.021280   962A      1.024066   963A      1.026591  
     964A      1.028846   965A      1.036547   966A      1.038106  
     967A      1.038839   968A      1.039540   969A      1.044641  
     970A      1.047140   971A      1.048253   972A      1.049742  
     973A      1.050946   974A      1.051772   975A      1.055829  
     976A      1.060672   977A      1.060757   978A      1.061973  
     979A      1.062310   980A      1.062564   981A      1.063458  
     982A      1.066170   983A      1.069855   984A      1.071775  
     985A      1.072539   986A      1.073267   987A      1.074729  
     988A      1.076438   989A      1.078020   990A      1.078327  
     991A      1.080569   992A      1.085378   993A      1.086028  
     994A      1.088411   995A      1.090777   996A      1.092603  
     997A      1.093775   998A      1.094423   999A      1.102603  
    1000A      1.102814  1001A      1.104156  1002A      1.104764  
    1003A      1.105002  1004A      1.106344  1005A      1.106960  
    1006A      1.107772  1007A      1.108273  1008A      1.108767  
    1009A      1.111234  1010A      1.112012  1011A      1.115727  
    1012A      1.115800  1013A      1.118708  1014A      1.119432  
    1015A      1.119693  1016A      1.121061  1017A      1.123590  
    1018A      1.126555  1019A      1.127199  1020A      1.127300  
    1021A      1.127842  1022A      1.128506  1023A      1.129501  
    1024A      1.129732  1025A      1.131947  1026A      1.132698  
    1027A      1.133026  1028A      1.133444  1029A      1.133946  
    1030A      1.134783  1031A      1.135689  1032A      1.136086  
    1033A      1.136743  1034A      1.138277  1035A      1.138844  
    1036A      1.139224  1037A      1.139480  1038A      1.140256  
    1039A      1.140749  1040A      1.141129  1041A      1.142544  
    1042A      1.142868  1043A      1.143605  1044A      1.144240  
    1045A      1.144817  1046A      1.146789  1047A      1.147571  
    1048A      1.149208  1049A      1.151746  1050A      1.153113  
    1051A      1.154753  1052A      1.156464  1053A      1.158077  
    1054A      1.158486  1055A      1.160161  1056A      1.160674  
    1057A      1.161209  1058A      1.161686  1059A      1.163829  
    1060A      1.164245  1061A      1.167072  1062A      1.171464  
    1063A      1.171903  1064A      1.173500  1065A      1.174269  
    1066A      1.175191  1067A      1.182040  1068A      1.183248  
    1069A      1.184254  1070A      1.186274  1071A      1.190143  
    1072A      1.190545  1073A      1.191411  1074A      1.192633  
    1075A      1.194923  1076A      1.195652  1077A      1.197525  
    1078A      1.198854  1079A      1.199873  1080A      1.200968  
    1081A      1.204061  1082A      1.206077  1083A      1.207194  
    1084A      1.208904  1085A      1.209887  1086A      1.210314  
    1087A      1.210478  1088A      1.212605  1089A      1.215206  
    1090A      1.215742  1091A      1.216131  1092A      1.221545  
    1093A      1.225997  1094A      1.228161  1095A      1.229199  
    1096A      1.230002  1097A      1.230681  1098A      1.236357  
    1099A      1.238945  1100A      1.240741  1101A      1.243194  
    1102A      1.246006  1103A      1.246046  1104A      1.248607  
    1105A      1.249874  1106A      1.252237  1107A      1.253705  
    1108A      1.261429  1109A      1.261544  1110A      1.262838  
    1111A      1.263043  1112A      1.265521  1113A      1.268813  
    1114A      1.269718  1115A      1.270839  1116A      1.271694  
    1117A      1.274215  1118A      1.275922  1119A      1.276210  
    1120A      1.276963  1121A      1.279155  1122A      1.280933  
    1123A      1.283181  1124A      1.291824  1125A      1.292864  
    1126A      1.303854  1127A      1.309192  1128A      1.309538  
    1129A      1.309918  1130A      1.310314  1131A      1.310535  
    1132A      1.316752  1133A      1.319139  1134A      1.319302  
    1135A      1.322678  1136A      1.324352  1137A      1.325524  
    1138A      1.328004  1139A      1.329025  1140A      1.338928  
    1141A      1.339382  1142A      1.340020  1143A      1.345026  
    1144A      1.347561  1145A      1.348657  1146A      1.348905  
    1147A      1.349605  1148A      1.350995  1149A      1.351455  
    1150A      1.354569  1151A      1.355623  1152A      1.358890  
    1153A      1.360882  1154A      1.361393  1155A      1.361463  
    1156A      1.369178  1157A      1.370053  1158A      1.371099  
    1159A      1.371555  1160A      1.374166  1161A      1.374598  
    1162A      1.376361  1163A      1.378073  1164A      1.380422  
    1165A      1.382269  1166A      1.383368  1167A      1.383898  
    1168A      1.386894  1169A      1.387024  1170A      1.391187  
    1171A      1.391655  1172A      1.392315  1173A      1.394662  
    1174A      1.398658  1175A      1.398875  1176A      1.407876  
    1177A      1.411684  1178A      1.414114  1179A      1.414197  
    1180A      1.415576  1181A      1.417405  1182A      1.417549  
    1183A      1.419617  1184A      1.420057  1185A      1.420442  
    1186A      1.425722  1187A      1.429799  1188A      1.430050  
    1189A      1.432982  1190A      1.433924  1191A      1.435464  
    1192A      1.445259  1193A      1.445292  1194A      1.445797  
    1195A      1.449581  1196A      1.449932  1197A      1.452957  
    1198A      1.453058  1199A      1.458292  1200A      1.464027  
    1201A      1.465444  1202A      1.465623  1203A      1.467097  
    1204A      1.468032  1205A      1.468163  1206A      1.468770  
    1207A      1.473463  1208A      1.473850  1209A      1.478653  
    1210A      1.480602  1211A      1.481953  1212A      1.484121  
    1213A      1.485057  1214A      1.486293  1215A      1.486604  
    1216A      1.489073  1217A      1.490230  1218A      1.490779  
    1219A      1.493568  1220A      1.494815  1221A      1.495681  
    1222A      1.495904  1223A      1.499286  1224A      1.501147  
    1225A      1.503309  1226A      1.509944  1227A      1.510342  
    1228A      1.510851  1229A      1.511608  1230A      1.512420  
    1231A      1.514871  1232A      1.515965  1233A      1.526470  
    1234A      1.528216  1235A      1.529400  1236A      1.530237  
    1237A      1.531004  1238A      1.531809  1239A      1.532574  
    1240A      1.539858  1241A      1.542418  1242A      1.542559  
    1243A      1.543717  1244A      1.550679  1245A      1.556563  
    1246A      1.556885  1247A      1.560511  1248A      1.564334  
    1249A      1.564713  1250A      1.565871  1251A      1.576238  
    1252A      1.577561  1253A      1.595773  1254A      1.596068  
    1255A      1.598236  1256A      1.603818  1257A      1.613055  
    1258A      1.613103  1259A      1.644033  1260A      1.644772  
    1261A      1.647566  1262A      1.651925  1263A      1.653751  
    1264A      1.660383  1265A      1.661893  1266A      1.666331  
    1267A      1.666611  1268A      1.666819  1269A      1.667685  
    1270A      1.669591  1271A      1.669796  1272A      1.670527  
    1273A      1.671126  1274A      1.675289  1275A      1.675990  
    1276A      1.676179  1277A      1.676707  1278A      1.679061  
    1279A      1.679414  1280A      1.681164  1281A      1.682573  
    1282A      1.683229  1283A      1.685282  1284A      1.686031  
    1285A      1.686676  1286A      1.690856  1287A      1.691571  
    1288A      1.693126  1289A      1.694988  1290A      1.695302  
    1291A      1.696228  1292A      1.696953  1293A      1.697787  
    1294A      1.698603  1295A      1.698807  1296A      1.699902  
    1297A      1.700641  1298A      1.701190  1299A      1.702757  
    1300A      1.706014  1301A      1.709244  1302A      1.709374  
    1303A      1.713778  1304A      1.713897  1305A      1.714275  
    1306A      1.714929  1307A      1.724569  1308A      1.724747  
    1309A      1.728072  1310A      1.728250  1311A      1.728534  
    1312A      1.729176  1313A      1.729802  1314A      1.731985  
    1315A      1.733547  1316A      1.734506  1317A      1.737542  
    1318A      1.738263  1319A      1.745562  1320A      1.747379  
    1321A      1.751801  1322A      1.752395  1323A      1.755848  
    1324A      1.755944  1325A      1.756816  1326A      1.758267  
    1327A      1.766017  1328A      1.766078  1329A      1.768795  
    1330A      1.772824  1331A      1.772952  1332A      1.773562  
    1333A      1.776716  1334A      1.778652  1335A      1.781883  
    1336A      1.782406  1337A      1.783743  1338A      1.783756  
    1339A      1.788809  1340A      1.795461  1341A      1.805246  
    1342A      1.805725  1343A      1.806690  1344A      1.806895  
    1345A      1.807620  1346A      1.822470  1347A      1.824102  
    1348A      1.825265  1349A      1.838097  1350A      1.840036  
    1351A      1.842115  1352A      1.842736  1353A      1.863698  
    1354A      1.863889  1355A      1.867770  1356A      1.875355  
    1357A      1.880839  1358A      1.883128  1359A      1.883859  
    1360A      1.883872  1361A      1.884585  1362A      1.885405  
    1363A      1.889892  1364A      1.890827  1365A      1.891021  
    1366A      1.896223  1367A      1.896292  1368A      1.896675  
    1369A      1.897716  1370A      1.905412  1371A      1.906636  
    1372A      1.911167  1373A      1.911606  1374A      1.917966  
    1375A      1.918582  1376A      1.922242  1377A      1.922292  
    1378A      1.923717  1379A      1.924765  1380A      1.927247  
    1381A      1.928892  1382A      1.929219  1383A      1.929397  
    1384A      1.930598  1385A      1.936790  1386A      1.937189  
    1387A      1.938005  1388A      1.940249  1389A      1.941739  
    1390A      1.942308  1391A      1.943063  1392A      1.945049  
    1393A      1.948290  1394A      1.950455  1395A      1.951821  
    1396A      1.960255  1397A      1.960551  1398A      1.962489  
    1399A      1.962816  1400A      1.968188  1401A      1.968380  
    1402A      1.975200  1403A      1.975740  1404A      1.980602  
    1405A      1.982017  1406A      1.982081  1407A      1.984420  
    1408A      1.985132  1409A      1.985699  1410A      1.991799  
    1411A      1.992425  1412A      1.992536  1413A      1.994265  
    1414A      1.995936  1415A      1.996903  1416A      1.999269  
    1417A      2.000962  1418A      2.002124  1419A      2.002696  
    1420A      2.004514  1421A      2.008590  1422A      2.011868  
    1423A      2.012829  1424A      2.013433  1425A      2.015512  
    1426A      2.016940  1427A      2.017703  1428A      2.018447  
    1429A      2.018959  1430A      2.021622  1431A      2.024246  
    1432A      2.026557  1433A      2.028363  1434A      2.029330  
    1435A      2.030180  1436A      2.033066  1437A      2.037771  
    1438A      2.040828  1439A      2.041552  1440A      2.044358  
    1441A      2.045726  1442A      2.047314  1443A      2.047596  
    1444A      2.049063  1445A      2.050595  1446A      2.051905  
    1447A      2.052701  1448A      2.059842  1449A      2.061109  
    1450A      2.061639  1451A      2.062078  1452A      2.065982  
    1453A      2.069489  1454A      2.072336  1455A      2.073527  
    1456A      2.074569  1457A      2.075217  1458A      2.077841  
    1459A      2.078231  1460A      2.080015  1461A      2.080944  
    1462A      2.081334  1463A      2.082899  1464A      2.085390  
    1465A      2.087660  1466A      2.089270  1467A      2.091657  
    1468A      2.092609  1469A      2.093993  1470A      2.095014  
    1471A      2.096495  1472A      2.098939  1473A      2.106454  
    1474A      2.108204  1475A      2.111410  1476A      2.113990  
    1477A      2.114686  1478A      2.115853  1479A      2.118644  
    1480A      2.119397  1481A      2.120308  1482A      2.121462  
    1483A      2.125581  1484A      2.126546  1485A      2.128246  
    1486A      2.129500  1487A      2.134771  1488A      2.135889  
    1489A      2.137714  1490A      2.138226  1491A      2.139547  
    1492A      2.140119  1493A      2.140614  1494A      2.141698  
    1495A      2.142834  1496A      2.143110  1497A      2.145523  
    1498A      2.146020  1499A      2.146958  1500A      2.147244  
    1501A      2.147559  1502A      2.149203  1503A      2.150432  
    1504A      2.151440  1505A      2.152414  1506A      2.153699  
    1507A      2.156582  1508A      2.157330  1509A      2.158151  
    1510A      2.159601  1511A      2.161015  1512A      2.162213  
    1513A      2.164667  1514A      2.166183  1515A      2.168232  
    1516A      2.170504  1517A      2.171235  1518A      2.172956  
    1519A      2.173648  1520A      2.174488  1521A      2.175092  
    1522A      2.176725  1523A      2.178481  1524A      2.183958  
    1525A      2.184425  1526A      2.185244  1527A      2.186710  
    1528A      2.187242  1529A      2.187471  1530A      2.190261  
    1531A      2.190974  1532A      2.194879  1533A      2.196985  
    1534A      2.198124  1535A      2.199307  1536A      2.200263  
    1537A      2.201325  1538A      2.201860  1539A      2.202589  
    1540A      2.205030  1541A      2.212544  1542A      2.214289  
    1543A      2.215872  1544A      2.216881  1545A      2.217569  
    1546A      2.217813  1547A      2.218466  1548A      2.219125  
    1549A      2.219468  1550A      2.220094  1551A      2.226255  
    1552A      2.229324  1553A      2.230732  1554A      2.234398  
    1555A      2.238405  1556A      2.239499  1557A      2.240279  
    1558A      2.241952  1559A      2.247475  1560A      2.250746  
    1561A      2.251890  1562A      2.252319  1563A      2.253103  
    1564A      2.255447  1565A      2.257497  1566A      2.257751  
    1567A      2.258765  1568A      2.259958  1569A      2.261893  
    1570A      2.262656  1571A      2.263405  1572A      2.264797  
    1573A      2.265038  1574A      2.268455  1575A      2.272126  
    1576A      2.273365  1577A      2.278359  1578A      2.279167  
    1579A      2.279305  1580A      2.280975  1581A      2.284288  
    1582A      2.284611  1583A      2.286612  1584A      2.286788  
    1585A      2.289030  1586A      2.289785  1587A      2.297675  
    1588A      2.299093  1589A      2.299808  1590A      2.301973  
    1591A      2.303513  1592A      2.303999  1593A      2.310854  
    1594A      2.311708  1595A      2.316055  1596A      2.317365  
    1597A      2.320939  1598A      2.321563  1599A      2.323529  
    1600A      2.324538  1601A      2.335368  1602A      2.340262  
    1603A      2.342040  1604A      2.347070  1605A      2.347594  
    1606A      2.352663  1607A      2.356160  1608A      2.360958  
    1609A      2.361186  1610A      2.366625  1611A      2.378783  
    1612A      2.382493  1613A      2.382872  1614A      2.383953  
    1615A      2.385360  1616A      2.387294  1617A      2.387623  
    1618A      2.390150  1619A      2.392339  1620A      2.393548  
    1621A      2.394247  1622A      2.398306  1623A      2.400051  
    1624A      2.400382  1625A      2.401343  1626A      2.403352  
    1627A      2.403601  1628A      2.403744  1629A      2.410078  
    1630A      2.410329  1631A      2.430000  1632A      2.434063  
    1633A      2.434823  1634A      2.441001  1635A      2.445764  
    1636A      2.450894  1637A      2.451630  1638A      2.453199  
    1639A      2.456861  1640A      2.475995  1641A      2.477547  
    1642A      2.482251  1643A      2.485189  1644A      2.491797  
    1645A      2.500053  1646A      2.501435  1647A      2.511213  
    1648A      2.511964  1649A      2.521801  1650A      2.521927  
    1651A      2.525313  1652A      2.525568  1653A      2.529060  
    1654A      2.529354  1655A      2.547498  1656A      2.547811  
    1657A      2.553945  1658A      2.558536  1659A      2.562835  
    1660A      2.563851  1661A      2.567398  1662A      2.573398  
    1663A      2.597253  1664A      2.597488  1665A      2.597892  
    1666A      2.599468  1667A      2.600226  1668A      2.603557  
    1669A      2.603896  1670A      2.605297  1671A      2.607680  
    1672A      2.608862  1673A      2.616526  1674A      2.616792  
    1675A      2.622263  1676A      2.627171  1677A      2.628536  
    1678A      2.635412  1679A      2.638698  1680A      2.639196  
    1681A      2.642334  1682A      2.643287  1683A      2.643597  
    1684A      2.643865  1685A      2.648007  1686A      2.650589  
    1687A      2.658369  1688A      2.658569  1689A      2.670150  
    1690A      2.670428  1691A      2.670692  1692A      2.671236  
    1693A      2.674336  1694A      2.675324  1695A      2.690624  
    1696A      2.698414  1697A      2.699086  1698A      2.701300  
    1699A      2.703509  1700A      2.704204  1701A      2.707164  
    1702A      2.708131  1703A      2.708868  1704A      2.712322  
    1705A      2.712726  1706A      2.723525  1707A      2.724855  
    1708A      2.726182  1709A      2.726330  1710A      2.726537  
    1711A      2.733364  1712A      2.733423  1713A      2.733619  
    1714A      2.742187  1715A      2.744123  1716A      2.745609  
    1717A      2.748994  1718A      2.749429  1719A      2.749823  
    1720A      2.750461  1721A      2.754137  1722A      2.755277  
    1723A      2.763006  1724A      2.777374  1725A      2.786907  
    1726A      2.787377  1727A      2.787954  1728A      2.788792  
    1729A      2.788885  1730A      2.810392  1731A      2.821073  
    1732A      2.821510  1733A      2.834310  1734A      2.836526  
    1735A      2.839202  1736A      2.839461  1737A      2.858975  
    1738A      2.859234  1739A      2.861406  1740A      2.861548  
    1741A      2.862795  1742A      2.870752  1743A      2.873242  
    1744A      2.873808  1745A      2.874515  1746A      2.875214  
    1747A      2.877858  1748A      2.888368  1749A      2.888648  
    1750A      2.898787  1751A      2.900393  1752A      2.900679  
    1753A      2.900714  1754A      2.903959  1755A      2.923473  
    1756A      2.924108  1757A      2.924619  1758A      2.927841  
    1759A      2.928823  1760A      2.932244  1761A      2.957364  
    1762A      2.958214  1763A      2.962960  1764A      2.973394  
    1765A      2.973641  1766A      2.982967  1767A      2.985603  
    1768A      2.988653  1769A      2.991975  1770A      2.992131  
    1771A      3.004981  1772A      3.008684  1773A      3.021570  
    1774A      3.021639  1775A      3.022206  1776A      3.032943  
    1777A      3.049021  1778A      3.049986  1779A      3.087461  
    1780A      3.088225  1781A      3.091881  1782A      3.094949  
    1783A      3.103985  1784A      3.105511  1785A      3.106135  
    1786A      3.116178  1787A      3.116264  1788A      3.117761  
    1789A      3.130805  1790A      3.164175  1791A      3.169058  
    1792A      3.169329  1793A      3.179989  1794A      3.185719  
    1795A      3.185853  1796A      3.190728  1797A      3.192298  
    1798A      3.198556  1799A      3.199306  1800A      3.205604  
    1801A      3.206184  1802A      3.207294  1803A      3.207907  
    1804A      3.209387  1805A      3.217605  1806A      3.227816  
    1807A      3.228969  1808A      3.231183  1809A      3.231392  
    1810A      3.249142  1811A      3.249810  1812A      3.275585  
    1813A      3.287971  1814A      3.310029  1815A      3.315077  
    1816A      3.318947  1817A      3.320337  1818A      3.320907  
    1819A      3.322859  1820A      3.325658  1821A      3.328473  
    1822A      3.332209  1823A      3.332591  1824A      3.352524  
    1825A      3.353953  1826A      3.356904  1827A      3.361332  
    1828A      3.420888  1829A      3.421816  1830A      3.430253  
    1831A      3.475664  1832A      3.489313  1833A      3.493316  
    1834A      3.501650  1835A      3.509557  1836A      3.511640  
    1837A      3.522859  1838A      3.524444  1839A      3.526727  
    1840A      3.531209  1841A      3.534010  1842A      3.542939  
    1843A      3.546488  1844A      3.555559  1845A      3.568822  
    1846A      3.600705  1847A      3.633671  1848A      3.635559  
    1849A      3.643264  1850A      3.647960  1851A      3.697365  
    1852A      3.701639  1853A      3.723915  1854A      3.725804  
    1855A      3.764629  1856A      3.807109  1857A      3.808010  
    1858A      3.809999  1859A      3.823926  1860A      3.835871  
    1861A      3.841836  1862A      3.899657  1863A      3.901736  
    1864A      3.929414  1865A      3.932668  1866A      3.963611  
    1867A      3.971814  1868A      3.999410  1869A      4.002422  
    1870A      4.006698  1871A      4.007593  1872A      4.018083  
    1873A      4.027190  1874A      4.032179  1875A      4.084944  
    1876A      4.087974  1877A      4.133889  1878A      4.171613  
    1879A      4.171662  1880A      4.171993  1881A      4.199667  
    1882A      4.200009  1883A      4.200269  1884A      4.200912  
    1885A      4.201603  1886A      4.233451  1887A      4.237407  
    1888A      4.243190  1889A      4.294053  1890A      4.367071  
    1891A      4.446412  1892A      4.446916  1893A      4.447438  
    1894A      4.458868  1895A      4.648345  1896A      4.652107  
    1897A      4.654262  1898A      4.748851  1899A      4.783945  
    1900A      4.786367  

    Final Occupation by Irrep:
              A 
    DOCC [   321 ]
    NA   [   321 ]
    NB   [   321 ]

  @DF-RHF Final Energy: -4073.10586877911646

   => Energetics <=

    Nuclear Repulsion Energy =          17387.9222691961149394
    One-Electron Energy =              -40260.0879676287295297
    Two-Electron Energy =               18799.0598296534990368
    Total Energy =                      -4073.1058687791155535

Computation Completed


Properties will be evaluated at   0.000000,   0.000000,   0.000000 [a0]

Properties computed using the SCF density matrix


 Multipole Moments:

 ------------------------------------------------------------------------------------
     Multipole            Electronic (a.u.)      Nuclear  (a.u.)        Total (a.u.)
 ------------------------------------------------------------------------------------

 L = 1.  Multiply by 2.5417464519 to convert [e a0] to [Debye]
 Dipole X            :          0.0001013           -0.0001188           -0.0000175
 Dipole Y            :          0.0012338           -0.0002727            0.0009611
 Dipole Z            :         24.6370067          -33.3267809           -8.6897741
 Magnitude           :                                                    8.6897742

 ------------------------------------------------------------------------------------

*** tstop() called on n2cn0505 at Sat Jan 27 14:53:23 2024
Module time:
	user time   =   23982.56 seconds =     399.71 minutes
	system time =    1361.12 seconds =      22.69 minutes
	total time  =      12469 seconds =     207.82 minutes
Total time:
	user time   =   23982.56 seconds =     399.71 minutes
	system time =    1361.12 seconds =      22.69 minutes
	total time  =      12469 seconds =     207.82 minutes

  //>>>>>>>>>>>>>>>>>>>>>>>>>>>>>>>>>>>//
  //            Monomer A HF           //
  //<<<<<<<<<<<<<<<<<<<<<<<<<<<<<<<<<<<//

   => Libint2 <=

    Primary   basis highest AM E, G, H:  5, 4, 3
    Auxiliary basis highest AM E, G, H:  6, 5, 4
    Onebody   basis highest AM E, G, H:  6, 5, 4
    Solid Harmonics ordering:            gaussian

*** tstart() called on n2cn0505
*** at Sat Jan 27 14:53:24 2024

   => Loading Basis Set <=

    Name: JUN-CC-PVDZ
    Role: ORBITAL
    Keyword: BASIS
    atoms 1                                                   entry B          line   130 file /opt/software/pc2/EB-SW/software/PSI4/1.9-foss-2022a/share/psi4/basis/jun-cc-pvdz.gbs 
    atoms 2-5                                                 entry F          line   266 file /opt/software/pc2/EB-SW/software/PSI4/1.9-foss-2022a/share/psi4/basis/jun-cc-pvdz.gbs 
    atoms 6-23, 30-42, 45-59, 62-78, 81-93, 98-108, 111-119   entry C          line   164 file /opt/software/pc2/EB-SW/software/PSI4/1.9-foss-2022a/share/psi4/basis/jun-cc-pvdz.gbs 
    atoms 24-29, 43-44, 60-61, 79-80, 94-97, 109-110, 120-125 entry H          line    36 file /opt/software/pc2/EB-SW/software/PSI4/1.9-foss-2022a/share/psi4/basis/jun-cc-pvdz.gbs 


         ---------------------------------------------------------
                                   SCF
               by Justin Turney, Rob Parrish, Andy Simmonett
                          and Daniel G. A. Smith
                              RHF Reference
                       16 Threads,  61035 MiB Core
         ---------------------------------------------------------

  ==> Geometry <==

    Molecular point group: c1
    Full point group: C1

    Geometry (in Angstrom), charge = -1, multiplicity = 1:

       Center              X                  Y                   Z               Mass       
    ------------   -----------------  -----------------  -----------------  -----------------
         B           -0.000050191042     0.000351518223     5.214287984613    11.009305360000
         F           -1.153601191042     0.000062518223     6.029934984613    18.998403162730
         F            1.153656808958    -0.000566481777     6.029934984613    18.998403162730
         F           -0.000023191042    -1.153622481777     4.398653984613    18.998403162730
         F           -0.000023191042     1.153992518223     4.398653984613    18.998403162730
      Gh(C)          -3.668445455062     7.803766688305    -0.383805974051    12.000000000000
      Gh(C)          -4.847602910388     7.131256349563    -0.386172548984    12.000000000000
      Gh(C)          -4.894963490217     5.696344921754    -0.386745460082    12.000000000000
      Gh(C)          -3.653744869815     4.980744859182    -0.379085018353    12.000000000000
      Gh(C)          -2.409429312536     7.113995554897    -0.383611631791    12.000000000000
      Gh(C)          -2.425481535146     5.681136469126    -0.390616520661    12.000000000000
      Gh(C)          -1.194748207477     7.786158712532    -0.382139451249    12.000000000000
      Gh(C)           0.037954837895     7.099436163980    -0.384310155554    12.000000000000
      Gh(C)           0.030328396378     5.669504077927    -0.389793540470    12.000000000000
      Gh(C)          -1.200988698947     4.969284866138    -0.380823806536    12.000000000000
      Gh(C)           1.277953634773     7.772873961417    -0.382934306994    12.000000000000
      Gh(C)           2.485353893683     7.087711403460    -0.385208794898    12.000000000000
      Gh(C)           2.486124493876     5.654785328463    -0.392146543886    12.000000000000
      Gh(C)           1.254078728602     4.956092631887    -0.380518602298    12.000000000000
      Gh(C)           3.751710400364     7.763926669203    -0.385081943518    12.000000000000
      Gh(C)           4.923561865144     7.078795295213    -0.387138424226    12.000000000000
      Gh(C)           4.955603080284     5.643461981592    -0.387298837033    12.000000000000
      Gh(C)           3.706797343163     4.941224726556    -0.382207276863    12.000000000000
      Gh(H)          -3.658525328800     8.890841937358    -0.382120985801     1.007825032230
      Gh(H)          -1.189217520798     8.874135605583    -0.378167574808     1.007825032230
      Gh(H)           1.284290047845     8.860847953711    -0.378775482853     1.007825032230
      Gh(H)           3.753537895758     8.851049797195    -0.383559419202     1.007825032230
      Gh(H)           5.869954512165     7.613809352878    -0.388063791268     1.007825032230
      Gh(H)          -5.788235898544     7.676316731157    -0.387732396340     1.007825032230
      Gh(C)          -6.091978149738     4.993274531866    -0.388617700573    12.000000000000
[...]
    1498A      2.112281  1499A      2.112842  1500A      2.113582  
    1501A      2.114151  1502A      2.115850  1503A      2.117249  
    1504A      2.118507  1505A      2.119915  1506A      2.126792  
    1507A      2.127100  1508A      2.127484  1509A      2.127928  
    1510A      2.128477  1511A      2.128978  1512A      2.131009  
    1513A      2.131506  1514A      2.136955  1515A      2.137359  
    1516A      2.138447  1517A      2.141207  1518A      2.143006  
    1519A      2.143408  1520A      2.144154  1521A      2.144378  
    1522A      2.144743  1523A      2.154788  1524A      2.155471  
    1525A      2.157812  1526A      2.158538  1527A      2.159330  
    1528A      2.159930  1529A      2.160013  1530A      2.160387  
    1531A      2.162737  1532A      2.163052  1533A      2.171515  
    1534A      2.171899  1535A      2.180066  1536A      2.180941  
    1537A      2.181543  1538A      2.182386  1539A      2.188837  
    1540A      2.190457  1541A      2.191406  1542A      2.191736  
    1543A      2.193319  1544A      2.195282  1545A      2.197617  
    1546A      2.198531  1547A      2.200551  1548A      2.200823  
    1549A      2.201646  1550A      2.201987  1551A      2.205026  
    1552A      2.205446  1553A      2.205997  1554A      2.210047  
    1555A      2.213895  1556A      2.214384  1557A      2.220177  
    1558A      2.222260  1559A      2.222763  1560A      2.224732  
    1561A      2.224880  1562A      2.224985  1563A      2.228860  
    1564A      2.232021  1565A      2.232383  1566A      2.233326  
    1567A      2.238788  1568A      2.239012  1569A      2.239606  
    1570A      2.241622  1571A      2.247658  1572A      2.248160  
    1573A      2.249791  1574A      2.250888  1575A      2.261046  
    1576A      2.262038  1577A      2.264384  1578A      2.265165  
    1579A      2.266804  1580A      2.269625  1581A      2.276029  
    1582A      2.282883  1583A      2.284335  1584A      2.290661  
    1585A      2.291224  1586A      2.296412  1587A      2.296826  
    1588A      2.303964  1589A      2.304222  1590A      2.309116  
    1591A      2.317251  1592A      2.324690  1593A      2.324971  
    1594A      2.325257  1595A      2.327208  1596A      2.329586  
    1597A      2.330583  1598A      2.331284  1599A      2.333073  
    1600A      2.334621  1601A      2.335163  1602A      2.339929  
    1603A      2.341544  1604A      2.342231  1605A      2.342357  
    1606A      2.344921  1607A      2.345830  1608A      2.346326  
    1609A      2.349104  1610A      2.349459  1611A      2.368426  
    1612A      2.372725  1613A      2.373050  1614A      2.383858  
    1615A      2.387990  1616A      2.391609  1617A      2.391842  
    1618A      2.393503  1619A      2.397167  1620A      2.418389  
    1621A      2.419658  1622A      2.423695  1623A      2.427649  
    1624A      2.432056  1625A      2.442123  1626A      2.443554  
    1627A      2.452229  1628A      2.453111  1629A      2.464404  
    1630A      2.464503  1631A      2.467914  1632A      2.468105  
    1633A      2.471929  1634A      2.472192  1635A      2.491123  
    1636A      2.491420  1637A      2.494873  1638A      2.501907  
    1639A      2.506441  1640A      2.507636  1641A      2.511508  
    1642A      2.516249  1643A      2.539298  1644A      2.539389  
    1645A      2.540099  1646A      2.542032  1647A      2.542858  
    1648A      2.544967  1649A      2.547597  1650A      2.548748  
    1651A      2.549313  1652A      2.551387  1653A      2.556568  
    1654A      2.556736  1655A      2.564233  1656A      2.571224  
    1657A      2.571557  1658A      2.580028  1659A      2.583797  
    1660A      2.584320  1661A      2.585136  1662A      2.586270  
    1663A      2.588607  1664A      2.588849  1665A      2.593216  
    1666A      2.593536  1667A      2.601393  1668A      2.601552  
    1669A      2.613021  1670A      2.613199  1671A      2.613692  
    1672A      2.613910  1673A      2.616932  1674A      2.617890  
    1675A      2.632600  1676A      2.640637  1677A      2.641566  
    1678A      2.643684  1679A      2.645484  1680A      2.647538  
    1681A      2.648846  1682A      2.649371  1683A      2.653105  
    1684A      2.655874  1685A      2.656139  1686A      2.666050  
    1687A      2.666148  1688A      2.667618  1689A      2.670426  
    1690A      2.670573  1691A      2.673673  1692A      2.677294  
    1693A      2.677761  1694A      2.684405  1695A      2.685692  
    1696A      2.687350  1697A      2.691225  1698A      2.691350  
    1699A      2.691671  1700A      2.692658  1701A      2.696069  
    1702A      2.697333  1703A      2.704069  1704A      2.720760  
    1705A      2.730753  1706A      2.730979  1707A      2.731072  
    1708A      2.731408  1709A      2.732023  1710A      2.752793  
    1711A      2.760445  1712A      2.760819  1713A      2.773210  
    1714A      2.776038  1715A      2.780091  1716A      2.780492  
    1717A      2.799316  1718A      2.799927  1719A      2.802017  
    1720A      2.802241  1721A      2.802284  1722A      2.809580  
    1723A      2.812283  1724A      2.814903  1725A      2.815625  
    1726A      2.815855  1727A      2.816473  1728A      2.824143  
    1729A      2.827884  1730A      2.828547  1731A      2.830729  
    1732A      2.839665  1733A      2.840774  1734A      2.841874  
    1735A      2.842164  1736A      2.842595  1737A      2.846694  
    1738A      2.863319  1739A      2.865080  1740A      2.865577  
    1741A      2.870620  1742A      2.871189  1743A      2.874882  
    1744A      2.895957  1745A      2.896844  1746A      2.915377  
    1747A      2.917706  1748A      2.917901  1749A      2.927450  
    1750A      2.929710  1751A      2.935306  1752A      2.935322  
    1753A      2.963497  1754A      2.965097  1755A      2.965575  
    1756A      2.976194  1757A      2.991846  1758A      2.992775  
    1759A      3.029654  1760A      3.030341  1761A      3.035528  
    1762A      3.038582  1763A      3.046980  1764A      3.047723  
    1765A      3.048039  1766A      3.057604  1767A      3.057627  
    1768A      3.063573  1769A      3.072909  1770A      3.108417  
    1771A      3.112992  1772A      3.113202  1773A      3.122507  
    1774A      3.127574  1775A      3.127734  1776A      3.132897  
    1777A      3.134403  1778A      3.142246  1779A      3.143064  
    1780A      3.148458  1781A      3.149099  1782A      3.149581  
    1783A      3.150232  1784A      3.153603  1785A      3.162108  
    1786A      3.167869  1787A      3.173186  1788A      3.175180  
    1789A      3.175428  1790A      3.193102  1791A      3.193818  
    1792A      3.220104  1793A      3.252975  1794A      3.259594  
    1795A      3.261536  1796A      3.261720  1797A      3.262642  
    1798A      3.264652  1799A      3.268456  1800A      3.271276  
    1801A      3.274940  1802A      3.275498  1803A      3.294423  
    1804A      3.295617  1805A      3.297986  1806A      3.303492  
    1807A      3.361409  1808A      3.362399  1809A      3.370376  
    1810A      3.415918  1811A      3.429983  1812A      3.432566  
    1813A      3.437020  1814A      3.447794  1815A      3.450067  
    1816A      3.461773  1817A      3.464838  1818A      3.465781  
    1819A      3.471354  1820A      3.474050  1821A      3.482570  
    1822A      3.485328  1823A      3.494619  1824A      3.509145  
    1825A      3.539781  1826A      3.574283  1827A      3.576015  
    1828A      3.583603  1829A      3.590107  1830A      3.637335  
    1831A      3.641166  1832A      3.665126  1833A      3.667109  
    1834A      3.705217  1835A      3.748051  1836A      3.749572  
    1837A      3.750566  1838A      3.763067  1839A      3.778601  
    1840A      3.780159  1841A      3.842094  1842A      3.843478  
    1843A      3.871477  1844A      3.874656  1845A      3.905148  
    1846A      3.913116  1847A      3.938200  1848A      3.940494  
    1849A      3.948502  1850A      3.949320  1851A      3.958569  
    1852A      3.965120  1853A      3.971253  1854A      4.024678  
    1855A      4.027476  1856A      4.071883  1857A      4.208288  
    1858A      4.227186  1859A      4.238268  1860A      4.245394  
    1861A      4.303172  1862A      4.352122  1863A      4.394847  
    1864A      5.750237  1865A      5.750521  1866A      5.753215  
    1867A      5.755882  1868A      5.756963  1869A      5.760735  
    1870A      5.762216  1871A      5.763800  1872A      5.783096  
    1873A      5.786487  1874A      5.790786  1875A      6.021587  
    1876A      6.022199  1877A      6.023025  1878A      6.196186  
    1879A      6.328403  1880A      6.328673  1881A      6.378393  
    1882A      6.378513  1883A      6.380451  1884A      7.162798  
    1885A      7.234102  1886A      7.238675  1887A      7.255530  
    1888A      7.262695  1889A      7.275879  1890A      7.282851  
    1891A      7.287036  1892A      7.470685  1893A      7.497257  
    1894A      7.513222  1895A      7.641240  1896A     12.613627  
    1897A     42.913300  1898A     42.919785  1899A     42.923463  
    1900A     42.944013  

    Final Occupation by Irrep:
              A 
    DOCC [   300 ]
    NA   [   300 ]
    NB   [   300 ]

  @DF-RHF Final Energy: -3650.33821100936075

   => Energetics <=

    Nuclear Repulsion Energy =          15611.4211649754324753
    One-Electron Energy =              -36072.0971985317009967
    Two-Electron Energy =               16810.3378225469059544
    Total Energy =                      -3650.3382110093625670

Computation Completed


Properties will be evaluated at   0.000000,   0.000000,   0.000000 [a0]

Properties computed using the SCF density matrix


 Multipole Moments:

 ------------------------------------------------------------------------------------
     Multipole            Electronic (a.u.)      Nuclear  (a.u.)        Total (a.u.)
 ------------------------------------------------------------------------------------

 L = 1.  Multiply by 2.5417464519 to convert [e a0] to [Debye]
 Dipole X            :         -0.0007958            0.0001983           -0.0005975
 Dipole Y            :          0.0011151           -0.0013163           -0.0002012
 Dipole Z            :        437.3176940         -437.3238485           -0.0061545
 Magnitude           :                                                    0.0061867

 ------------------------------------------------------------------------------------

*** tstop() called on n2cn0505 at Sat Jan 27 17:15:55 2024
Module time:
	user time   =   16621.14 seconds =     277.02 minutes
	system time =     955.28 seconds =      15.92 minutes
	total time  =       5176 seconds =      86.27 minutes
Total time:
	user time   =   44520.04 seconds =     742.00 minutes
	system time =    2600.69 seconds =      43.34 minutes
	total time  =      21021 seconds =     350.35 minutes
  Constructing Basis Sets for SAPT...

   => Loading Basis Set <=

    Name: (JUN-CC-PVDZ AUX)
    Role: RIFIT
    Keyword: DF_BASIS_SAPT
    atoms 1                                                   entry B          line    56 file /opt/software/pc2/EB-SW/software/PSI4/1.9-foss-2022a/share/psi4/basis/jun-cc-pvdz-ri.gbs 
    atoms 2-5                                                 entry F          line   232 file /opt/software/pc2/EB-SW/software/PSI4/1.9-foss-2022a/share/psi4/basis/jun-cc-pvdz-ri.gbs 
    atoms 6-23, 30-42, 45-59, 62-78, 81-93, 98-108, 111-119   entry C          line   100 file /opt/software/pc2/EB-SW/software/PSI4/1.9-foss-2022a/share/psi4/basis/jun-cc-pvdz-ri.gbs 
    atoms 24-29, 43-44, 60-61, 79-80, 94-97, 109-110, 120-125 entry H          line    30 file /opt/software/pc2/EB-SW/software/PSI4/1.9-foss-2022a/share/psi4/basis/jun-cc-pvdz-ri.gbs 

   => Loading Basis Set <=

    Name: (JUN-CC-PVDZ AUX)
    Role: JKFIT
    Keyword: DF_BASIS_ELST
    atoms 1                                                   entry B          line    90 file /opt/software/pc2/EB-SW/software/PSI4/1.9-foss-2022a/share/psi4/basis/jun-cc-pvdz-jkfit.gbs 
    atoms 2-5                                                 entry F          line   314 file /opt/software/pc2/EB-SW/software/PSI4/1.9-foss-2022a/share/psi4/basis/jun-cc-pvdz-jkfit.gbs 
    atoms 6-23, 30-42, 45-59, 62-78, 81-93, 98-108, 111-119   entry C          line   146 file /opt/software/pc2/EB-SW/software/PSI4/1.9-foss-2022a/share/psi4/basis/jun-cc-pvdz-jkfit.gbs 
    atoms 24-29, 43-44, 60-61, 79-80, 94-97, 109-110, 120-125 entry H          line    70 file /opt/software/pc2/EB-SW/software/PSI4/1.9-foss-2022a/share/psi4/basis/jun-cc-pvdz-jkfit.gbs 


  //>>>>>>>>>>>>>>>>>>>>>>>>>>>>>>>>>>>//
  //               SSAPT0              //
  //<<<<<<<<<<<<<<<<<<<<<<<<<<<<<<<<<<<//


*** tstart() called on n2cn0505
*** at Sat Jan 27 17:15:57 2024

        SAPT0  
    Ed Hohenstein
     6 June 2009

      Orbital Information
  --------------------------
    NSO        =      1938
    NMO        =      1900
    NRI        =      6901
    NRI (Elst) =      8531
    NOCC A     =        21
    NOCC B     =       300
    FOCC A     =         5
    FOCC B     =        96
    NVIR A     =      1879
    NVIR B     =      1600

    Elst10,r            =     0.010299693994 [Eh]
    Exch10              =     0.000010836941 [Eh]
    Exch10 (S^2)        =     0.000010837087 [Eh]

    Iter     Energy [mEh]          dE [mEh]         Residual      Time [s]
       1      -0.00645933       0.006459331       0.493362133           667
       2      -0.00742205       0.000962722       0.248647540          1235
       3      -0.00775600       0.000333943       0.047370651          1838
       4      -0.00774391      -0.000012087       0.010411075          2359
       5      -0.00773460      -0.000009308       0.001455434          3003
       6      -0.00773614       0.000001541       0.000284156          3672
       7      -0.00773606      -0.000000085       0.000097196          4216
       8      -0.00773603      -0.000000031       0.000023032          4823
       9      -0.00773603       0.000000000       0.000003543          5417
      10      -0.00773603       0.000000002       0.000000411          5965

    CHF Iterations converged


    Iter     Energy [mEh]          dE [mEh]         Residual      Time [s]
       1      -9.63085707       9.630857066      53.936574665           754
       2      -6.14760617      -3.483250895       6.453904070          1454
       3      -6.11210409      -0.035502085       2.131435140          2174
       4      -6.22090473       0.108800641       0.693294526          2978
       5      -6.23673324       0.015828514       0.238614661          3880
       6      -6.23510418      -0.001629065       0.159651596          4706
       7      -6.23190415      -0.003200028       0.064821538          5613
       8      -6.23208782       0.000183671       0.031246697          6359
       9      -6.23272876       0.000640942       0.017863603          7063
      10      -6.23263702      -0.000091742       0.016998848          7705
      11      -6.23248455      -0.000152472       0.007457328          8301
      12      -6.23248866       0.000004107       0.003455871          8847
      13      -6.23251574       0.000027088       0.001331416          9427
      14      -6.23252365       0.000007912       0.000550312         10080
      15      -6.23252131      -0.000002349       0.000347446         10883
      16      -6.23251678      -0.000004525       0.000198550         11844
      17      -6.23251875       0.000001969       0.000091310         12701
      18      -6.23251942       0.000000671       0.000028840         13640
      19      -6.23251925      -0.000000171       0.000015241         14733
      20      -6.23251911      -0.000000139       0.000006143         15846
      21      -6.23251913       0.000000023       0.000002844         16939
      22      -6.23251915       0.000000021       0.000001364         17990
      23      -6.23251915      -0.000000003       0.000000573         18998

    CHF Iterations converged

    Ind20,r (A<-B)      =    -0.000007736027 [Eh]
    Ind20,r (B<-A)      =    -0.006232519151 [Eh]
    Ind20,r             =    -0.006240255179 [Eh]
    Exch-Ind20,r (A<-B) =     0.000001931068 [Eh]
    Exch-Ind20,r (B<-A) =     0.000002721273 [Eh]
    Exch-Ind20,r        =     0.000004652341 [Eh]
    Disp20              =    -0.001405674734 [Eh]
    Disp20 (SS)         =    -0.000702837367 [Eh]
    Disp20 (OS)         =    -0.000702837367 [Eh]
    Exch-Disp20         =     0.000006063127 [Eh]
    Exch-Disp20 (SS)    =     0.000004502476 [Eh]
    Exch-Disp20 (OS)    =     0.000001560651 [Eh]

    SAPT Results 
  --------------------------------------------------------------------------------------------------------
    Electrostatics                 10.29969399 [mEh]       6.46315556 [kcal/mol]      27.04184286 [kJ/mol]
      Elst10,r                     10.29969399 [mEh]       6.46315556 [kcal/mol]      27.04184286 [kJ/mol]

    Exchange                        0.01083694 [mEh]       0.00680028 [kcal/mol]       0.02845238 [kJ/mol]
      Exch10                        0.01083694 [mEh]       0.00680028 [kcal/mol]       0.02845238 [kJ/mol]
      Exch10(S^2)                   0.01083709 [mEh]       0.00680037 [kcal/mol]       0.02845277 [kJ/mol]

    Induction                      -6.19307956 [mEh]      -3.88621610 [kcal/mol]     -16.25992814 [kJ/mol]
      Ind20,r                      -6.24025518 [mEh]      -3.91581924 [kcal/mol]     -16.38378771 [kJ/mol]
      Exch-Ind20,r                  0.00465234 [mEh]       0.00291939 [kcal/mol]       0.01221472 [kJ/mol]
      delta HF,r (2)                0.04252328 [mEh]       0.02668376 [kcal/mol]       0.11164485 [kJ/mol]

    Dispersion                     -1.39961161 [mEh]      -0.87826954 [kcal/mol]      -3.67467977 [kJ/mol]
      Disp20                       -1.40567473 [mEh]      -0.88207421 [kcal/mol]      -3.69059850 [kJ/mol]
      Exch-Disp20                   0.00606313 [mEh]       0.00380467 [kcal/mol]       0.01591874 [kJ/mol]
      Disp20 (SS)                  -0.70283737 [mEh]      -0.44103711 [kcal/mol]      -1.84529925 [kJ/mol]
      Disp20 (OS)                  -0.70283737 [mEh]      -0.44103711 [kcal/mol]      -1.84529925 [kJ/mol]
      Exch-Disp20 (SS)              0.00450248 [mEh]       0.00282535 [kcal/mol]       0.01182125 [kJ/mol]
      Exch-Disp20 (OS)              0.00156065 [mEh]       0.00097932 [kcal/mol]       0.00409749 [kJ/mol]

  Total HF                          4.11745138 [mEh]       2.58373975 [kcal/mol]      10.81036710 [kJ/mol]
  Total SAPT0                       2.71783977 [mEh]       1.70547020 [kcal/mol]       7.13568733 [kJ/mol]

  Special recipe for scaled SAPT0 (see Manual):
    Electrostatics sSAPT0          10.29969399 [mEh]       6.46315556 [kcal/mol]      27.04184286 [kJ/mol]
    Exchange sSAPT0                 0.01083694 [mEh]       0.00680028 [kcal/mol]       0.02845238 [kJ/mol]
    Induction sSAPT0               -6.19307975 [mEh]      -3.88621621 [kcal/mol]     -16.25992864 [kJ/mol]
    Dispersion sSAPT0              -1.39961185 [mEh]      -0.87826970 [kcal/mol]      -3.67468041 [kJ/mol]
  Total sSAPT0                      2.71783933 [mEh]       1.70546993 [kcal/mol]       7.13568619 [kJ/mol]
  --------------------------------------------------------------------------------------------------------

*** tstop() called on n2cn0505 at Mon Jan 29 09:42:46 2024
Module time:
	user time   =   65884.70 seconds =    1098.08 minutes
	system time =    2958.60 seconds =      49.31 minutes
	total time  =     145609 seconds =    2426.82 minutes
Total time:
	user time   =  110406.17 seconds =    1840.10 minutes
	system time =    5559.30 seconds =      92.65 minutes
	total time  =     166632 seconds =    2777.20 minutes

    Psi4 stopped on: Monday, 29 January 2024 09:42AM
    Psi4 wall time for execution: 1 day, 22:17:12.71

*** Psi4 exiting successfully. Buy a developer a beer!
