
    -----------------------------------------------------------------------
          Psi4: An Open-Source Ab Initio Electronic Structure Package
                               Psi4 1.9 release

                         Git: Rev {} zzzzzzz 


    D. G. A. Smith, L. A. Burns, A. C. Simmonett, R. M. Parrish,
    M. C. Schieber, R. Galvelis, P. Kraus, H. Kruse, R. Di Remigio,
    A. Alenaizan, A. M. James, S. Lehtola, J. P. Misiewicz, M. Scheurer,
    R. A. Shaw, J. B. Schriber, Y. Xie, Z. L. Glick, D. A. Sirianni,
    J. S. O'Brien, J. M. Waldrop, A. Kumar, E. G. Hohenstein,
    B. P. Pritchard, B. R. Brooks, H. F. Schaefer III, A. Yu. Sokolov,
    K. Patkowski, A. E. DePrince III, U. Bozkaya, R. A. King,
    F. A. Evangelista, J. M. Turney, T. D. Crawford, C. D. Sherrill,
    J. Chem. Phys. 152(18) 184108 (2020). https://doi.org/10.1063/5.0006002

                            Additional Code Authors
    E. T. Seidl, C. L. Janssen, E. F. Valeev, M. L. Leininger,
    J. F. Gonthier, R. M. Richard, H. R. McAlexander, M. Saitow, X. Wang,
    P. Verma, M. H. Lechner, A. Jiang, S. Behnle, A. G. Heide,
    M. F. Herbst, and D. L. Poole

             Previous Authors, Complete List of Code Contributors,
                       and Citations for Specific Modules
    https://github.com/psi4/psi4/blob/master/codemeta.json
    https://github.com/psi4/psi4/graphs/contributors
    http://psicode.org/psi4manual/master/introduction.html#citing-psifour

    -----------------------------------------------------------------------


    Psi4 started on: Monday, 22 January 2024 07:44PM

    Process ID: 2850942
    Host:       d-18-8-4
    PSIDATADIR: /home/gridsan/tfroembgen/.conda/envs/psi4test/share/psi4
    Memory:     500.0 MiB
    Threads:    12
    
  ==> Input File <==

--------------------------------------------------------------------------
memory 32 GB # how much memory is available ! Depends on the nodes/cores !

molecule dimer {
# monomer A
+1 1    # Charge and multiplicity
C  0.680067 -0.008042 -8.615929
C -0.680504 -0.006014 -8.615545
N -1.085635 -0.005016 -7.297221
C  0.000108 -0.001740 -6.515820
C -2.477365  0.044390 -6.829242
N  1.085222 -0.005016 -7.297221
H  1.385146 -0.015870 -9.433368
H -1.385302 -0.006204 -9.433214
H -0.000009  0.000007 -5.434731
C  2.478117 -0.021908 -6.832123
H  2.490592  0.005437 -5.741870
H  2.967028 -0.935354 -7.179299
H  3.001428  0.853575 -7.223595
H -2.857359  1.066461 -6.909201
H -3.082679 -0.625694 -7.442306
H -2.518128 -0.282594 -5.789294
--
# monomer B
0 1     # Charge and multiplicity
C   1.22531237526482      0.70753866091955      0.00613762728373
C   1.22532433589282     -0.70753852257020     -0.00619318228664
C   -0.00000567409046      1.41496628609039     -0.00672680580738
C   2.45644923379077      1.41832825917820      0.00902448468363
C   0.00001130712078     -1.41497612663474      0.00347275151708
C   -1.22530046906674      0.70754574598412      0.00838914760619
C   2.45643823516184     -1.41832293188077     -0.00843833914343
C   -0.00000085313587      2.83680140328112     -0.00913035594137
C   3.68182717731192      0.70931832800114     -0.00808954934571
C   2.45512052870677      2.83422403348893     -0.00819210630633
C   3.68182158506039     -0.70933346742900      0.00798293467272
C   -1.22531311884624     -0.70752714354401     -0.00512042085974
C   1.22670006104402      3.54346985599427      0.00816696660346
C   0.00000526469929     -2.83678176723568      0.00832091913869
C   -2.45643555300670      1.41831729028492      0.00842454345199
C   2.45512389762097     -2.83422965658853      0.00783102630520
C   -1.22671388474763      3.54346943575023      0.00827029982280
C   4.91451777504333      1.42717324448953     -0.00160886631602
C   3.69315067131765      3.54279566454522     -0.00155906667985
C   -2.45643712022637     -1.41831290883911     -0.00846337726810
C   1.22670532178455     -3.54347386990643     -0.00780316414624
C   -2.45512491866593      2.83421703463423     -0.00818572995999
C   4.91452486062398     -1.42718653794377      0.00136387641845
C   1.22142509354026      4.97013443726031      0.00150231067809
C   4.89300870916237      2.82518837202648     -0.00039219795739
C   -1.22669652864725     -3.54347062507680     -0.00753595973677
C   -3.68181849668397      0.70932533873199     -0.00807686886569
C   3.69314758099218     -3.54280096939050      0.00148176697923
C   -1.22143177215231      4.97012866986289      0.00168580605083
C   6.13477145276790      0.68054831910577     -0.00083909176631
C   3.65678936045204      4.97295361556775     -0.00065042889723
C   -2.45512642789169     -2.83421472106065      0.00758666850712
C   -3.68181869921921     -0.70932533146830      0.00810055625144
C   4.89301309775526     -2.82519973363176      0.00021895393805
C   -0.00000059327114      5.65044773803267      0.00045449734393
C   6.13477559217374     -0.68055448207492      0.00042622874941
C   2.47813196269732      5.65357712333155      0.00063835075260
C   1.22142288457925     -4.97012668293268     -0.00129718634452
C   -3.69316190412301      3.54279732619245     -0.00139355922051
C   -1.22142804110313     -4.97011793159564     -0.00140994817719
C   -4.91452132810043      1.42717581899491     -0.00153192130862
C   3.65678749952045     -4.97295485423912      0.00080007163680
C   -2.47813805026426      5.65357479452875      0.00092287576113
C   -3.69314125872231     -3.54278984697859      0.00136564082345
C   -4.91451200321153     -1.42718062802730      0.00139857359209
C   -0.00000552908399     -5.65043791501335      0.00005899322272
C   -4.89302000425900      2.82518897091939     -0.00040227981744
C   2.47812647313991     -5.65357317188818     -0.00029052915548
C   -3.65679823041642      4.97295655404175     -0.00047374852278
C   -4.89299899901461     -2.82519139505969      0.00006491824035
C   -2.47812801824129     -5.65356579800621     -0.00056571680280
C   -6.13477002348955      0.68054913825639     -0.00086464346868
C   -3.65678835334731     -4.97294365097028      0.00058578382008
C   -6.13476456307132     -0.68055354348201      0.00040575295444
H   5.83528897565761      3.36927626695423      0.00396712770529
H   7.07385965258860      1.22821762089947     -0.00037744837300
H   4.60066374401555      5.51238117445323     -0.00014522814529
H   5.83528386714679     -3.36930568472863     -0.00423551337640
H   -0.00001167146422      6.73853104613662     -0.00389474766392
H   7.07386165167227     -1.22822657074368     -0.00008250934481
H   2.47331421164041      6.74068466339473      0.00017162982210
H   4.60066897122302     -5.51237575717576      0.00039007446835
H   -2.47331820069565      6.74068209160650      0.00047297644710
H   -0.00000978838621     -6.73852780445195      0.00458867820736
H   -5.83530143450167      3.36927132229595      0.00410314985360
H   2.47330840367253     -6.74068500242887      0.00027980126949
H   -4.60067436136587      5.51237839860371      0.00002010017831
H   -5.83527902699321     -3.36928859177951     -0.00451481925734
H   -2.47329986759855     -6.74067870613986     -0.00016951527498
H   -7.07385728692578      1.22822084484047     -0.00046143985387
H   -4.60067330624313     -5.51236229778631      0.00021776644566
H   -7.07385645456741     -1.22822025997701     -0.00017736581114

    units angstrom      # Angstroms are the default
    no_reorient         # Geometry fixed, default
    symmetry c1         # C1 symmetry, default
}

set {
    scf_type DF         # Density fitting, faster than exact integrals
    freeze_core True    # Freeze core electrons
    basis jun-cc-pVDZ   # Jun-cc-pVDZ basis set, recommended for sSAPT0 in https://doi.org/10.1063/1.4867135
}

energy('ssapt0')        # Compute sSAPT0 energy, includes also SAPT0
--------------------------------------------------------------------------

  Memory set to  29.802 GiB by Python driver.

Scratch directory: /state/partition1/slurm_tmp/24798279.4294967291.0/
   => Loading Basis Set <=

    Name: JUN-CC-PVDZ
    Role: ORBITAL
    Keyword: BASIS
    atoms 1-2, 4-5, 10, 17-70 entry C          line   164 file /home/gridsan/tfroembgen/.conda/envs/psi4test/share/psi4/basis/jun-cc-pvdz.gbs 
    atoms 3, 6                entry N          line   198 file /home/gridsan/tfroembgen/.conda/envs/psi4test/share/psi4/basis/jun-cc-pvdz.gbs 
    atoms 7-9, 11-16, 71-88   entry H          line    36 file /home/gridsan/tfroembgen/.conda/envs/psi4test/share/psi4/basis/jun-cc-pvdz.gbs 

   => Loading Basis Set <=

    Name: JUN-CC-PVDZ
    Role: ORBITAL
    Keyword: BASIS
    atoms 1-2, 4-5, 10, 17-70 entry C          line   164 file /home/gridsan/tfroembgen/.conda/envs/psi4test/share/psi4/basis/jun-cc-pvdz.gbs 
    atoms 3, 6                entry N          line   198 file /home/gridsan/tfroembgen/.conda/envs/psi4test/share/psi4/basis/jun-cc-pvdz.gbs 
    atoms 7-9, 11-16, 71-88   entry H          line    36 file /home/gridsan/tfroembgen/.conda/envs/psi4test/share/psi4/basis/jun-cc-pvdz.gbs 


  //>>>>>>>>>>>>>>>>>>>>>>>>>>>>>>>>>>>//
  //              Dimer HF             //
  //<<<<<<<<<<<<<<<<<<<<<<<<<<<<<<<<<<<//

   => Libint2 <=

    Primary   basis highest AM E, G, H:  7, 7, 4
    Auxiliary basis highest AM E, G, H:  7, 7, 5
    Onebody   basis highest AM E, G, H:  7, 7, 5
    Solid Harmonics ordering:            gaussian

*** tstart() called on d-18-8-4
*** at Mon Jan 22 19:44:24 2024

   => Loading Basis Set <=

    Name: JUN-CC-PVDZ
    Role: ORBITAL
    Keyword: BASIS
    atoms 1-2, 4-5, 10, 17-70 entry C          line   164 file /home/gridsan/tfroembgen/.conda/envs/psi4test/share/psi4/basis/jun-cc-pvdz.gbs 
    atoms 3, 6                entry N          line   198 file /home/gridsan/tfroembgen/.conda/envs/psi4test/share/psi4/basis/jun-cc-pvdz.gbs 
    atoms 7-9, 11-16, 71-88   entry H          line    36 file /home/gridsan/tfroembgen/.conda/envs/psi4test/share/psi4/basis/jun-cc-pvdz.gbs 


         ---------------------------------------------------------
                                   SCF
               by Justin Turney, Rob Parrish, Andy Simmonett
                          and Daniel G. A. Smith
                              RHF Reference
                       12 Threads,  30517 MiB Core
         ---------------------------------------------------------

  ==> Geometry <==

    Molecular point group: c1
    Full point group: C1

    Geometry (in Angstrom), charge = 1, multiplicity = 1:

       Center              X                  Y                   Z               Mass       
    ------------   -----------------  -----------------  -----------------  -----------------
         C            0.680066520158    -0.008042372515    -7.674696674845    12.000000000000
         C           -0.680504479842    -0.006014372515    -7.674312674845    12.000000000000
         N           -1.085635479842    -0.005016372515    -6.355988674845    14.003074004430
         C            0.000107520158    -0.001740372515    -5.574587674845    12.000000000000
         C           -2.477365479842     0.044389627485    -5.888009674845    12.000000000000
         N            1.085221520158    -0.005016372515    -6.355988674845    14.003074004430
         H            1.385145520158    -0.015870372515    -8.492135674845     1.007825032230
         H           -1.385302479842    -0.006204372515    -8.491981674845     1.007825032230
         H           -0.000009479842     0.000006627485    -4.493498674845     1.007825032230
         C            2.478116520158    -0.021908372515    -5.890890674845    12.000000000000
         H            2.490591520158     0.005436627485    -4.800637674845     1.007825032230
         H            2.967027520158    -0.935354372515    -6.238066674845     1.007825032230
         H            3.001427520158     0.853574627485    -6.282362674845     1.007825032230
         H           -2.857359479842     1.066460627485    -5.967968674845     1.007825032230
         H           -3.082679479842    -0.625694372515    -6.501073674845     1.007825032230
         H           -2.518128479842    -0.282594372515    -4.848061674845     1.007825032230
         C            1.225311895423     0.707538288405     0.947369952439    12.000000000000
         C            1.225323856051    -0.707538895085     0.935039142868    12.000000000000
         C           -0.000006153932     1.414965913575     0.934505519348    12.000000000000
         C            2.456448753949     1.418327886663     0.950256809839    12.000000000000
         C            0.000010827279    -1.414976499150     0.944705076672    12.000000000000
         C           -1.225300948908     0.707545373469     0.949621472761    12.000000000000
         C            2.456437755320    -1.418323304396     0.932793986012    12.000000000000
         C           -0.000001332978     2.836801030766     0.932101969214    12.000000000000
         C            3.681826697470     0.709317955486     0.933142775809    12.000000000000
         C            2.455120048865     2.834223660974     0.933040218849    12.000000000000
         C            3.681821105219    -0.709333839944     0.949215259828    12.000000000000
         C           -1.225313598688    -0.707527516059     0.936111904295    12.000000000000
         C            1.226699581202     3.543469483479     0.949399291759    12.000000000000
         C            0.000004784858    -2.836782139751     0.949553244294    12.000000000000
         C           -2.456436032848     1.418316917770     0.949656868607    12.000000000000
         C            2.455123417779    -2.834230029103     0.949063351460    12.000000000000
         C           -1.226714364589     3.543469063235     0.949502624978    12.000000000000
         C            4.914517295202     1.427172871975     0.939623458839    12.000000000000
         C            3.693150191476     3.542795292030     0.939673258475    12.000000000000
         C           -2.456437600068    -1.418313281354     0.932768947887    12.000000000000
         C            1.226704841943    -3.543474242421     0.933429161009    12.000000000000
         C           -2.455125398508     2.834216662119     0.933046595195    12.000000000000
         C            4.914524380782    -1.427186910459     0.942596201574    12.000000000000
         C            1.221424613699     4.970134064745     0.942734635833    12.000000000000
         C            4.893008229321     2.825187999512     0.940840127198    12.000000000000
         C           -1.226697008489    -3.543470997592     0.933696365418    12.000000000000
         C           -3.681818976526     0.709324966217     0.933155456289    12.000000000000
         C            3.693147101150    -3.542801341905     0.942714092134    12.000000000000
         C           -1.221432251994     4.970128297348     0.942918131206    12.000000000000
         C            6.134770972926     0.680547946591     0.940393233389    12.000000000000
         C            3.656788880610     4.972953243053     0.940581896258    12.000000000000
         C           -2.455126907733    -2.834215093576     0.948818993662    12.000000000000
         C           -3.681819179061    -0.709325703983     0.949332881407    12.000000000000
         C            4.893012617914    -2.825200106147     0.941451279093    12.000000000000
         C           -0.000001073113     5.650447365518     0.941686822499    12.000000000000
         C            6.134775112332    -0.680554854590     0.941658553905    12.000000000000
         C            2.478131482856     5.653576750817     0.941870675908    12.000000000000
         C            1.221422404738    -4.970127055448     0.939935138811    12.000000000000
         C           -3.693162383965     3.542796953677     0.939838765935    12.000000000000
         C           -1.221428520945    -4.970118304111     0.939822376978    12.000000000000
         C           -4.914521807942     1.427175446480     0.939700403846    12.000000000000
         C            3.656787019679    -4.972955226754     0.942032396792    12.000000000000
         C           -2.478138530106     5.653574422014     0.942155200916    12.000000000000
         C           -3.693141738564    -3.542790219494     0.942597965979    12.000000000000
         C           -4.914512483053    -1.427181000542     0.942630898747    12.000000000000
         C           -0.000006008926    -5.650438287528     0.941291318378    12.000000000000
         C           -4.893020484101     2.825188598404     0.940830045338    12.000000000000
         C            2.478125993298    -5.653573544403     0.940941796000    12.000000000000
         C           -3.656798710258     4.972956181527     0.940758576632    12.000000000000
         C           -4.892999478856    -2.825191767575     0.941297243395    12.000000000000
         C           -2.478128498083    -5.653566170521     0.940666608352    12.000000000000
         C           -6.134770503331     0.680548765741     0.940367681686    12.000000000000
         C           -3.656788833189    -4.972944023485     0.941818108975    12.000000000000
         C           -6.134765042913    -0.680553915997     0.941638078110    12.000000000000
         H            5.835288495816     3.369275894439     0.945199452860     1.007825032230
         H            7.073859172747     1.228217248385     0.940854876782     1.007825032230
         H            4.600663264174     5.512380801938     0.941087097010     1.007825032230
         H            5.835283387305    -3.369306057244     0.936996811779     1.007825032230
         H           -0.000012151306     6.738530673622     0.937337577491     1.007825032230
         H            7.073861171831    -1.228226943259     0.941149815810     1.007825032230
         H            2.473313731799     6.740684290880     0.941403954977     1.007825032230
         H            4.600668491381    -5.512376129691     0.941622399623     1.007825032230
         H           -2.473318680537     6.740681719092     0.941705301602     1.007825032230
         H           -0.000010268228    -6.738528176967     0.945821003362     1.007825032230
         H           -5.835301914343     3.369270949781     0.945335475009     1.007825032230
         H            2.473307923831    -6.740685374944     0.941512126425     1.007825032230
         H           -4.600674841208     5.512378026089     0.941252425333     1.007825032230
         H           -5.835279506835    -3.369288964294     0.936717505898     1.007825032230
         H           -2.473300347440    -6.740679078655     0.941062809880     1.007825032230
         H           -7.073857766768     1.228220472326     0.940770885301     1.007825032230
         H           -4.600673786085    -5.512362670301     0.941450091601     1.007825032230
         H           -7.073856934409    -1.228220632492     0.941054959344     1.007825032230

  Running in c1 symmetry.

  Rotational constants: A =      0.00137  B =      0.00134  C =      0.00109 [cm^-1]
  Rotational constants: A =     41.03469  B =     40.25255  C =     32.71081 [MHz]
  Nuclear repulsion = 7851.483316674070920

  Charge       = 1
  Multiplicity = 1
  Electrons    = 394
  Nalpha       = 197
  Nbeta        = 197

  ==> Algorithm <==

  SCF Algorithm Type is DF.
  DIIS enabled.
  MOM disabled.
  Fractional occupation disabled.
  Guess Type is SAD.
  Energy threshold   = 1.00e-08
  Density threshold  = 1.00e-08
  Integral threshold = 1.00e-12

  ==> Primary Basis <==

  Basis Set: JUN-CC-PVDZ
    Blend: JUN-CC-PVDZ
    Number of shells: 569
    Number of basis functions: 1233
    Number of Cartesian functions: 1294
    Spherical Harmonics?: true
    Max angular momentum: 2

   => Loading Basis Set <=

    Name: (JUN-CC-PVDZ AUX)
    Role: JKFIT
    Keyword: DF_BASIS_SCF
    atoms 1-2, 4-5, 10, 17-70 entry C          line   146 file /home/gridsan/tfroembgen/.conda/envs/psi4test/share/psi4/basis/jun-cc-pvdz-jkfit.gbs 
    atoms 3, 6                entry N          line   202 file /home/gridsan/tfroembgen/.conda/envs/psi4test/share/psi4/basis/jun-cc-pvdz-jkfit.gbs 
    atoms 7-9, 11-16, 71-88   entry H          line    70 file /home/gridsan/tfroembgen/.conda/envs/psi4test/share/psi4/basis/jun-cc-pvdz-jkfit.gbs 

  ==> Integral Setup <==

  ==> DiskDFJK: Density-Fitted J/K Matrices <==

    J tasked:                  Yes
    K tasked:                  Yes
    wK tasked:                  No
    OpenMP threads:             12
    Integrals threads:          12
    Memory [MiB]:            22888
    Algorithm:                Core
    Integral Cache:           SAVE
    Schwarz Cutoff:          1E-12
    Fitting Condition:       1E-10

   => Auxiliary Basis Set <=

  Basis Set: (JUN-CC-PVDZ AUX)
    Blend: JUN-CC-PVDZ-JKFIT
    Number of shells: 1890
    Number of basis functions: 5440
    Number of Cartesian functions: 6226
    Spherical Harmonics?: true
    Max angular momentum: 3

  Minimum eigenvalue in the overlap matrix is 8.3874533461E-10.
  Reciprocal condition number of the overlap matrix is 3.7495513562E-11.
    Using canonical orthogonalization.
  Overall, 14 of 1233 possible MOs eliminated.


  ==> Pre-Iterations <==

  SCF Guess: Superposition of Atomic Densities via on-the-fly atomic UHF (no occupation information).

   -------------------------
    Irrep   Nso     Nmo    
   -------------------------
     A       1233    1219 
   -------------------------
    Total    1233    1219
   -------------------------

  ==> Iterations <==

                           Total Energy        Delta E     RMS |[F,P]|

   @DF-RHF iter SAD: -2365.39446271301040   -2.36539e+03   0.00000e+00 
   @DF-RHF iter   1: -2358.19243486989353    7.20203e+00   9.47199e-04 ADIIS/DIIS
   @DF-RHF iter   2: -2359.09179536682632   -8.99360e-01   3.22538e-04 ADIIS/DIIS
   @DF-RHF iter   3: -2359.18337439130255   -9.15790e-02   1.18023e-04 ADIIS/DIIS
   @DF-RHF iter   4: -2359.19649127274943   -1.31169e-02   4.41201e-05 DIIS
   @DF-RHF iter   5: -2359.19838729997900   -1.89603e-03   9.79316e-06 DIIS
   @DF-RHF iter   6: -2359.19856074929749   -1.73449e-04   5.00471e-06 DIIS
   @DF-RHF iter   7: -2359.19862741318957   -6.66639e-05   2.22971e-06 DIIS
   @DF-RHF iter   8: -2359.19864740059802   -1.99874e-05   1.14210e-06 DIIS
   @DF-RHF iter   9: -2359.19865227053378   -4.86994e-06   2.60940e-07 DIIS
   @DF-RHF iter  10: -2359.19865251130432   -2.40771e-07   8.76377e-08 DIIS
   @DF-RHF iter  11: -2359.19865252900627   -1.77020e-08   3.24270e-08 DIIS
   @DF-RHF iter  12: -2359.19865253266835   -3.66208e-09   1.26245e-08 DIIS
   @DF-RHF iter  13: -2359.19865253302578   -3.57431e-10   5.43684e-09 DIIS
  Energy and wave function converged.


  ==> Post-Iterations <==

    Orbital Energies [Eh]
    ---------------------

    Doubly Occupied:                                                      

       1A    -15.823540     2A    -15.823021     3A    -11.518181  
       4A    -11.449907     5A    -11.448351     6A    -11.438341  
       7A    -11.438239     8A    -11.321658     9A    -11.321194  
      10A    -11.321151    11A    -11.320193    12A    -11.320139  
      13A    -11.319724    14A    -11.318819    15A    -11.318811  
      16A    -11.318704    17A    -11.318689    18A    -11.318511  
      19A    -11.318456    20A    -11.317213    21A    -11.317203  
      22A    -11.316993    23A    -11.316958    24A    -11.316914  
      25A    -11.316882    26A    -11.316777    27A    -11.316772  
      28A    -11.316520    29A    -11.316506    30A    -11.316463  
      31A    -11.316461    32A    -11.316145    33A    -11.316141  
      34A    -11.315892    35A    -11.315883    36A    -11.315873  
      37A    -11.315860    38A    -11.315573    39A    -11.315567  
      40A    -11.315323    41A    -11.315319    42A    -11.315260  
      43A    -11.315255    44A    -11.309235    45A    -11.309232  
      46A    -11.309195    47A    -11.309192    48A    -11.308904  
      49A    -11.308900    50A    -11.308885    51A    -11.308851  
      52A    -11.308399    53A    -11.308393    54A    -11.308389  
      55A    -11.308386    56A    -11.307474    57A    -11.307470  
      58A    -11.306965    59A    -11.306959    60A    -11.306955  
      61A    -11.306954    62A     -1.567339    63A     -1.422839  
      64A     -1.304348    65A     -1.279225    66A     -1.278992  
      67A     -1.248235    68A     -1.248211    69A     -1.240438  
      70A     -1.228017    71A     -1.215595    72A     -1.207510  
      73A     -1.194761    74A     -1.194549    75A     -1.178203  
      76A     -1.171149    77A     -1.171105    78A     -1.141289  
      79A     -1.141272    80A     -1.137487    81A     -1.123740  
      82A     -1.123722    83A     -1.107747    84A     -1.097566  
      85A     -1.083605    86A     -1.081147    87A     -1.081040  
      88A     -1.075583    89A     -1.070334    90A     -1.045686  
      91A     -1.045610    92A     -1.019813    93A     -1.019793  
      94A     -1.011916    95A     -0.985869    96A     -0.952367  
      97A     -0.952289    98A     -0.947186    99A     -0.945410  
     100A     -0.945245   101A     -0.940125   102A     -0.940032  
     103A     -0.919775   104A     -0.906012   105A     -0.894456  
     106A     -0.876261   107A     -0.875509   108A     -0.870748  
     109A     -0.870623   110A     -0.852211   111A     -0.852209  
     112A     -0.839579   113A     -0.805731   114A     -0.805527  
     115A     -0.803526   116A     -0.801686   117A     -0.792109  
     118A     -0.791944   119A     -0.789800   120A     -0.789705  
     121A     -0.779442   122A     -0.775213   123A     -0.774753  
     124A     -0.771529   125A     -0.756938   126A     -0.756771  
     127A     -0.751846   128A     -0.751676   129A     -0.718684  
     130A     -0.718254   131A     -0.714426   132A     -0.711416  
     133A     -0.709865   134A     -0.707649   135A     -0.707590  
     136A     -0.706147   137A     -0.697125   138A     -0.697048  
     139A     -0.687991   140A     -0.685803   141A     -0.685785  
     142A     -0.667257   143A     -0.661941   144A     -0.660210  
     145A     -0.657440   146A     -0.657233   147A     -0.652060  
     148A     -0.650203   149A     -0.650058   150A     -0.642024  
     151A     -0.636097   152A     -0.635730   153A     -0.624547  
     154A     -0.624508   155A     -0.624477   156A     -0.624353  
     157A     -0.617113   158A     -0.612211   159A     -0.612028  
     160A     -0.597006   161A     -0.596961   162A     -0.595988  
     163A     -0.595951   164A     -0.587961   165A     -0.587623  
     166A     -0.585554   167A     -0.580818   168A     -0.580636  
     169A     -0.557736   170A     -0.553569   171A     -0.550729  
     172A     -0.546358   173A     -0.543467   174A     -0.539767  
     175A     -0.539711   176A     -0.529900   177A     -0.529601  
     178A     -0.513609   179A     -0.510002   180A     -0.509820  
     181A     -0.496876   182A     -0.496827   183A     -0.463826  
     184A     -0.463823   185A     -0.462526   186A     -0.432949  
     187A     -0.432920   188A     -0.407440   189A     -0.397760  
     190A     -0.396778   191A     -0.396636   192A     -0.369128  
     193A     -0.355109   194A     -0.343607   195A     -0.343544  
     196A     -0.283208   197A     -0.283122  

    Virtual:                                                              

     198A     -0.057750   199A     -0.052627   200A     -0.045240  
     201A     -0.044325   202A     -0.044127   203A     -0.038182  
     204A     -0.022849   205A     -0.021020   206A     -0.020091  
     207A     -0.014782   208A     -0.003156   209A     -0.000083  
     210A      0.001946   211A      0.002315   212A      0.003807  
     213A      0.004706   214A      0.005676   215A      0.005797  
     216A      0.007168   217A      0.009762   218A      0.011065  
     219A      0.011166   220A      0.013183   221A      0.016703  
     222A      0.026404   223A      0.026821   224A      0.027125  
     225A      0.027227   226A      0.028861   227A      0.029002  
     228A      0.031056   229A      0.032677   230A      0.033050  
     231A      0.039045   232A      0.041403   233A      0.042673  
     234A      0.042994   235A      0.043563   236A      0.044623  
     237A      0.046836   238A      0.049769   239A      0.053521  
     240A      0.055046   241A      0.055462   242A      0.060677  
     243A      0.061469   244A      0.062444   245A      0.063438  
     246A      0.067835   247A      0.068451   248A      0.070596  
     249A      0.074692   250A      0.075622   251A      0.077515  
     252A      0.081322   253A      0.082078   254A      0.084975  
     255A      0.085463   256A      0.085598   257A      0.086053  
     258A      0.086502   259A      0.086617   260A      0.090547  
     261A      0.092494   262A      0.093240   263A      0.098606  
     264A      0.100237   265A      0.100601   266A      0.103288  
     267A      0.105831   268A      0.108059   269A      0.108918  
     270A      0.110317   271A      0.114304   272A      0.117509  
     273A      0.118923   274A      0.121891   275A      0.124577  
     276A      0.127408   277A      0.127593   278A      0.128757  
     279A      0.130552   280A      0.132184   281A      0.132314  
     282A      0.132434   283A      0.134934   284A      0.136367  
     285A      0.137148   286A      0.139109   287A      0.140160  
     288A      0.141985   289A      0.144469   290A      0.145770  
     291A      0.148595   292A      0.150178   293A      0.153659  
     294A      0.154337   295A      0.155575   296A      0.156954  
     297A      0.159813   298A      0.160185   299A      0.160332  
     300A      0.160701   301A      0.161520   302A      0.162021  
     303A      0.162429   304A      0.164158   305A      0.164518  
     306A      0.167575   307A      0.170774   308A      0.171042  
     309A      0.171846   310A      0.175783   311A      0.176388  
     312A      0.176709   313A      0.177753   314A      0.179235  
     315A      0.179455   316A      0.180669   317A      0.181449  
     318A      0.182074   319A      0.182488   320A      0.186514  
     321A      0.189544   322A      0.192678   323A      0.194389  
     324A      0.195299   325A      0.198485   326A      0.199359  
     327A      0.201111   328A      0.201755   329A      0.202011  
     330A      0.204084   331A      0.204626   332A      0.204834  
     333A      0.205983   334A      0.211622   335A      0.212917  
     336A      0.213066   337A      0.213700   338A      0.215216  
     339A      0.216438   340A      0.216485   341A      0.217379  
     342A      0.219885   343A      0.220325   344A      0.224627  
     345A      0.229083   346A      0.230452   347A      0.232402  
     348A      0.232777   349A      0.233636   350A      0.237928  
     351A      0.240394   352A      0.242157   353A      0.243046  
     354A      0.244049   355A      0.247536   356A      0.247956  
     357A      0.248766   358A      0.248977   359A      0.253462  
     360A      0.253585   361A      0.253938   362A      0.254857  
     363A      0.257274   364A      0.257671   365A      0.258391  
     366A      0.259191   367A      0.260845   368A      0.261221  
     369A      0.263634   370A      0.264689   371A      0.265851  
     372A      0.267359   373A      0.267456   374A      0.267683  
     375A      0.267836   376A      0.269920   377A      0.271646  
     378A      0.275156   379A      0.278126   380A      0.278807  
     381A      0.282465   382A      0.283373   383A      0.285272  
     384A      0.288169   385A      0.288935   386A      0.290733  
     387A      0.292091   388A      0.292715   389A      0.294837  
     390A      0.296742   391A      0.297748   392A      0.298341  
     393A      0.299273   394A      0.299743   395A      0.299971  
     396A      0.302866   397A      0.306991   398A      0.309154  
     399A      0.310978   400A      0.312601   401A      0.314733  
     402A      0.317679   403A      0.317971   404A      0.319382  
     405A      0.319924   406A      0.321207   407A      0.327912  
     408A      0.328854   409A      0.329420   410A      0.332689  
     411A      0.334354   412A      0.334492   413A      0.334544  
     414A      0.335857   415A      0.338804   416A      0.339619  
     417A      0.340588   418A      0.341271   419A      0.341580  
     420A      0.343959   421A      0.345807   422A      0.346716  
     423A      0.349413   424A      0.350838   425A      0.350952  
     426A      0.351227   427A      0.351743   428A      0.353360  
     429A      0.354815   430A      0.357763   431A      0.358201  
     432A      0.359077   433A      0.361568   434A      0.363390  
     435A      0.366097   436A      0.367053   437A      0.368195  
     438A      0.370071   439A      0.376260   440A      0.376901  
     441A      0.379638   442A      0.380648   443A      0.382947  
     444A      0.386928   445A      0.387357   446A      0.388848  
     447A      0.389123   448A      0.392398   449A      0.393193  
     450A      0.393390   451A      0.397144   452A      0.398661  
     453A      0.399607   454A      0.402945   455A      0.403183  
     456A      0.403944   457A      0.404980   458A      0.405406  
     459A      0.406622   460A      0.411484   461A      0.413817  
     462A      0.415168   463A      0.418535   464A      0.419373  
     465A      0.419738   466A      0.424419   467A      0.424969  
     468A      0.427327   469A      0.427851   470A      0.437015  
     471A      0.437174   472A      0.438246   473A      0.438613  
     474A      0.439505   475A      0.441320   476A      0.444522  
     477A      0.444812   478A      0.450122   479A      0.450513  
     480A      0.454057   481A      0.454263   482A      0.455535  
     483A      0.455793   484A      0.457967   485A      0.461393  
     486A      0.462137   487A      0.467861   488A      0.468330  
     489A      0.468850   490A      0.471859   491A      0.481235  
     492A      0.481868   493A      0.485087   494A      0.485811  
     495A      0.486703   496A      0.491289   497A      0.491936  
     498A      0.492704   499A      0.494643   500A      0.494675  
     501A      0.497115   502A      0.498743   503A      0.499136  
     504A      0.502960   505A      0.505075   506A      0.505141  
     507A      0.512034   508A      0.512423   509A      0.513565  
     510A      0.519812   511A      0.528928   512A      0.530040  
     513A      0.539216   514A      0.539789   515A      0.540644  
     516A      0.549480   517A      0.555952   518A      0.556742  
     519A      0.563379   520A      0.563963   521A      0.569495  
     522A      0.569572   523A      0.580236   524A      0.586446  
     525A      0.591587   526A      0.591982   527A      0.596642  
     528A      0.609460   529A      0.609519   530A      0.612362  
     531A      0.619973   532A      0.620101   533A      0.620884  
     534A      0.629672   535A      0.642649   536A      0.658117  
     537A      0.658726   538A      0.663175   539A      0.664853  
     540A      0.674799   541A      0.676193   542A      0.683464  
     543A      0.685713   544A      0.686478   545A      0.686693  
     546A      0.686966   547A      0.693335   548A      0.699594  
     549A      0.700069   550A      0.700611   551A      0.704372  
     552A      0.710081   553A      0.716186   554A      0.716668  
     555A      0.724147   556A      0.731182   557A      0.733861  
     558A      0.738238   559A      0.741652   560A      0.748796  
     561A      0.749680   562A      0.750632   563A      0.752764  
     564A      0.757086   565A      0.757875   566A      0.759731  
     567A      0.765072   568A      0.767170   569A      0.770632  
     570A      0.770835   571A      0.771377   572A      0.778024  
     573A      0.779503   574A      0.782162   575A      0.787982  
     576A      0.791321   577A      0.798743   578A      0.799440  
     579A      0.799875   580A      0.800433   581A      0.803958  
     582A      0.807532   583A      0.807784   584A      0.812740  
     585A      0.815585   586A      0.816477   587A      0.817427  
     588A      0.820445   589A      0.821106   590A      0.821164  
     591A      0.829417   592A      0.830694   593A      0.832102  
     594A      0.833273   595A      0.840319   596A      0.840931  
     597A      0.842469   598A      0.844249   599A      0.846525  
     600A      0.850358   601A      0.851907   602A      0.851937  
     603A      0.852584   604A      0.856040   605A      0.857120  
     606A      0.858700   607A      0.859593   608A      0.860840  
     609A      0.865592   610A      0.866358   611A      0.871527  
     612A      0.874761   613A      0.874991   614A      0.877077  
     615A      0.878868   616A      0.878956   617A      0.883922  
     618A      0.884992   619A      0.886699   620A      0.888399  
     621A      0.889592   622A      0.896643   623A      0.900190  
     624A      0.901620   625A      0.908127   626A      0.913404  
     627A      0.913999   628A      0.914384   629A      0.914515  
     630A      0.915975   631A      0.916222   632A      0.916667  
     633A      0.920459   634A      0.923185   635A      0.925354  
     636A      0.930437   637A      0.930926   638A      0.936833  
     639A      0.940934   640A      0.941168   641A      0.948413  
     642A      0.956747   643A      0.959232   644A      0.959817  
     645A      0.961335   646A      0.961911   647A      0.964575  
     648A      0.969304   649A      0.972927   650A      0.975263  
     651A      0.977607   652A      0.978429   653A      0.978601  
     654A      0.980423   655A      0.981786   656A      0.982486  
     657A      0.983601   658A      0.984914   659A      0.988067  
     660A      0.988217   661A      0.988748   662A      0.989212  
     663A      0.990484   664A      0.991568   665A      0.991702  
     666A      0.998524   667A      1.000087   668A      1.002805  
     669A      1.003564   670A      1.004046   671A      1.004888  
     672A      1.011034   673A      1.012713   674A      1.014188  
     675A      1.014995   676A      1.018943   677A      1.020849  
     678A      1.025729   679A      1.026699   680A      1.027084  
     681A      1.029526   682A      1.031530   683A      1.033181  
     684A      1.037716   685A      1.041720   686A      1.046618  
     687A      1.047488   688A      1.048025   689A      1.051084  
     690A      1.055333   691A      1.058217   692A      1.058839  
     693A      1.059071   694A      1.059919   695A      1.063381  
     696A      1.063781   697A      1.067612   698A      1.068086  
     699A      1.072902   700A      1.075996   701A      1.076676  
     702A      1.077084   703A      1.081115   704A      1.082454  
     705A      1.082532   706A      1.083453   707A      1.086721  
     708A      1.088159   709A      1.096770   710A      1.110153  
     711A      1.111888   712A      1.115396   713A      1.116113  
     714A      1.119344   715A      1.119647   716A      1.124618  
     717A      1.124866   718A      1.126791   719A      1.127182  
     720A      1.136466   721A      1.139482   722A      1.140006  
     723A      1.141807   724A      1.142397   725A      1.152345  
     726A      1.153502   727A      1.160481   728A      1.160678  
     729A      1.161097   730A      1.163187   731A      1.165548  
     732A      1.165789   733A      1.176776   734A      1.182503  
     735A      1.183252   736A      1.183637   737A      1.200625  
     738A      1.203842   739A      1.205216   740A      1.205478  
     741A      1.205550   742A      1.206359   743A      1.209424  
     744A      1.209768   745A      1.210974   746A      1.220374  
     747A      1.227920   748A      1.237608   749A      1.237845  
     750A      1.239668   751A      1.241090   752A      1.241260  
     753A      1.244647   754A      1.251412   755A      1.251540  
     756A      1.252685   757A      1.254680   758A      1.261890  
     759A      1.262694   760A      1.264786   761A      1.265106  
     762A      1.272025   763A      1.272219   764A      1.277471  
     765A      1.280293   766A      1.282527   767A      1.285144  
     768A      1.288548   769A      1.288808   770A      1.295031  
     771A      1.295729   772A      1.296050   773A      1.297479  
     774A      1.300582   775A      1.300976   776A      1.303452  
     777A      1.306348   778A      1.307994   779A      1.312503  
     780A      1.323631   781A      1.333497   782A      1.337132  
     783A      1.345219   784A      1.345687   785A      1.347273  
     786A      1.349471   787A      1.350273   788A      1.354859  
     789A      1.355104   790A      1.361414   791A      1.363576  
     792A      1.366242   793A      1.367361   794A      1.370416  
     795A      1.370917   796A      1.378414   797A      1.379420  
     798A      1.379824   799A      1.382059   800A      1.382554  
     801A      1.382711   802A      1.383229   803A      1.390905  
     804A      1.392168   805A      1.392713   806A      1.404467  
     807A      1.405384   808A      1.414223   809A      1.416204  
     810A      1.437495   811A      1.458856   812A      1.459347  
     813A      1.462643   814A      1.462810   815A      1.476015  
     816A      1.477405   817A      1.489698   818A      1.493694  
     819A      1.514303   820A      1.518715   821A      1.530359  
     822A      1.540295   823A      1.540900   824A      1.541394  
     825A      1.549153   826A      1.549812   827A      1.550603  
     828A      1.552243   829A      1.552678   830A      1.556856  
     831A      1.563210   832A      1.563584   833A      1.570515  
     834A      1.571059   835A      1.576203   836A      1.581898  
     837A      1.581948   838A      1.584525   839A      1.584829  
     840A      1.584877   841A      1.585013   842A      1.593311  
     843A      1.603064   844A      1.603130   845A      1.609606  
     846A      1.616649   847A      1.616743   848A      1.618178  
     849A      1.618208   850A      1.619085   851A      1.619499  
     852A      1.625836   853A      1.628103   854A      1.628170  
     855A      1.631693   856A      1.638210   857A      1.640096  
     858A      1.641543   859A      1.641802   860A      1.642559  
     861A      1.645261   862A      1.645370   863A      1.658200  
     864A      1.658405   865A      1.674752   866A      1.681688  
     867A      1.683441   868A      1.692531   869A      1.693858  
     870A      1.703196   871A      1.703393   872A      1.704004  
     873A      1.704899   874A      1.710050   875A      1.718825  
     876A      1.718863   877A      1.733624   878A      1.733701  
     879A      1.745745   880A      1.758852   881A      1.759155  
     882A      1.759297   883A      1.759774   884A      1.761185  
     885A      1.761456   886A      1.765702   887A      1.765815  
     888A      1.768693   889A      1.772923   890A      1.773437  
     891A      1.780235   892A      1.783636   893A      1.784074  
     894A      1.798104   895A      1.802905   896A      1.803697  
     897A      1.804012   898A      1.804240   899A      1.806669  
     900A      1.811583   901A      1.814161   902A      1.821144  
     903A      1.821438   904A      1.822479   905A      1.824705  
     906A      1.830636   907A      1.838172   908A      1.838262  
     909A      1.842818   910A      1.846332   911A      1.846467  
     912A      1.850127   913A      1.850400   914A      1.856306  
     915A      1.857020   916A      1.859032   917A      1.859471  
     918A      1.859928   919A      1.860930   920A      1.863713  
     921A      1.864013   922A      1.871586   923A      1.881737  
     924A      1.883181   925A      1.884730   926A      1.885047  
     927A      1.885588   928A      1.890731   929A      1.890772  
     930A      1.895071   931A      1.896036   932A      1.896263  
     933A      1.896876   934A      1.899842   935A      1.908147  
     936A      1.911133   937A      1.914642   938A      1.924031  
     939A      1.924483   940A      1.932929   941A      1.939240  
     942A      1.941294   943A      1.941344   944A      1.948643  
     945A      1.951844   946A      1.955096   947A      1.955209  
     948A      1.960483   949A      1.969150   950A      1.971443  
     951A      1.972442   952A      1.972624   953A      1.973076  
     954A      1.973579   955A      1.973879   956A      1.980616  
     957A      1.990703   958A      1.994286   959A      1.994590  
     960A      1.999219   961A      2.000368   962A      2.002155  
     963A      2.003225   964A      2.009778   965A      2.012030  
     966A      2.012519   967A      2.013343   968A      2.017607  
     969A      2.017855   970A      2.020902   971A      2.024048  
     972A      2.026190   973A      2.026717   974A      2.036355  
     975A      2.037635   976A      2.039487   977A      2.039713  
     978A      2.042651   979A      2.042979   980A      2.050036  
     981A      2.050335   982A      2.050622   983A      2.051015  
     984A      2.052761   985A      2.053855   986A      2.056375  
     987A      2.057643   988A      2.061836   989A      2.061876  
     990A      2.062070   991A      2.062986   992A      2.068792  
     993A      2.069149   994A      2.076011   995A      2.076674  
     996A      2.078092   997A      2.078807   998A      2.079016  
     999A      2.085722  1000A      2.085779  1001A      2.098595  
    1002A      2.100696  1003A      2.100818  1004A      2.104468  
    1005A      2.104746  1006A      2.107263  1007A      2.112150  
    1008A      2.120529  1009A      2.121007  1010A      2.133809  
    1011A      2.133938  1012A      2.134161  1013A      2.136086  
    1014A      2.136108  1015A      2.137775  1016A      2.139217  
    1017A      2.147537  1018A      2.159004  1019A      2.161307  
    1020A      2.161373  1021A      2.161746  1022A      2.168821  
    1023A      2.169385  1024A      2.169957  1025A      2.171080  
    1026A      2.171305  1027A      2.187043  1028A      2.187478  
    1029A      2.187500  1030A      2.187726  1031A      2.190711  
    1032A      2.203510  1033A      2.203696  1034A      2.209612  
    1035A      2.212532  1036A      2.212627  1037A      2.215031  
    1038A      2.215182  1039A      2.224980  1040A      2.234463  
    1041A      2.243202  1042A      2.249322  1043A      2.251690  
    1044A      2.253778  1045A      2.259195  1046A      2.262614  
    1047A      2.264058  1048A      2.271448  1049A      2.271519  
    1050A      2.272403  1051A      2.275064  1052A      2.292090  
    1053A      2.292717  1054A      2.294439  1055A      2.294662  
    1056A      2.305552  1057A      2.307748  1058A      2.307822  
    1059A      2.314988  1060A      2.322188  1061A      2.337929  
    1062A      2.346304  1063A      2.358786  1064A      2.365855  
    1065A      2.366343  1066A      2.366576  1067A      2.379164  
    1068A      2.382726  1069A      2.382800  1070A      2.411936  
    1071A      2.415171  1072A      2.415694  1073A      2.427675  
    1074A      2.428005  1075A      2.444346  1076A      2.454334  
    1077A      2.462216  1078A      2.471573  1079A      2.471789  
    1080A      2.472448  1081A      2.487005  1082A      2.488096  
    1083A      2.488458  1084A      2.495626  1085A      2.497887  
    1086A      2.498212  1087A      2.501924  1088A      2.502052  
    1089A      2.506759  1090A      2.514835  1091A      2.514881  
    1092A      2.518292  1093A      2.518745  1094A      2.528811  
    1095A      2.528929  1096A      2.528959  1097A      2.532017  
    1098A      2.535153  1099A      2.549196  1100A      2.566395  
    1101A      2.566652  1102A      2.568675  1103A      2.572964  
    1104A      2.573442  1105A      2.582272  1106A      2.584148  
    1107A      2.584271  1108A      2.593997  1109A      2.594302  
    1110A      2.599507  1111A      2.613341  1112A      2.623629  
    1113A      2.624688  1114A      2.626531  1115A      2.630409  
    1116A      2.642182  1117A      2.642853  1118A      2.646350  
    1119A      2.654249  1120A      2.654490  1121A      2.660163  
    1122A      2.660378  1123A      2.664709  1124A      2.664828  
    1125A      2.670370  1126A      2.679682  1127A      2.689506  
    1128A      2.690509  1129A      2.694798  1130A      2.695667  
    1131A      2.698493  1132A      2.714866  1133A      2.719626  
    1134A      2.735982  1135A      2.736108  1136A      2.744871  
    1137A      2.755628  1138A      2.758821  1139A      2.768194  
    1140A      2.770683  1141A      2.793234  1142A      2.794507  
    1143A      2.796419  1144A      2.798764  1145A      2.800975  
    1146A      2.801070  1147A      2.805627  1148A      2.811560  
    1149A      2.860138  1150A      2.860263  1151A      2.867523  
    1152A      2.876410  1153A      2.876660  1154A      2.892030  
    1155A      2.892067  1156A      2.906025  1157A      2.924912  
    1158A      2.948735  1159A      2.949962  1160A      2.955431  
    1161A      2.972663  1162A      2.983471  1163A      3.005230  
    1164A      3.005256  1165A      3.012236  1166A      3.012604  
    1167A      3.052154  1168A      3.052895  1169A      3.055395  
    1170A      3.071393  1171A      3.072073  1172A      3.072378  
    1173A      3.072849  1174A      3.080041  1175A      3.088927  
    1176A      3.089237  1177A      3.089398  1178A      3.091851  
    1179A      3.092297  1180A      3.100393  1181A      3.101144  
    1182A      3.108457  1183A      3.109269  1184A      3.135080  
    1185A      3.154391  1186A      3.160818  1187A      3.180037  
    1188A      3.215085  1189A      3.218876  1190A      3.218982  
    1191A      3.223581  1192A      3.223941  1193A      3.357589  
    1194A      3.358012  1195A      3.381022  1196A      3.422300  
    1197A      3.424704  1198A      3.447003  1199A      3.489801  
    1200A      3.517548  1201A      3.519385  1202A      3.534285  
    1203A      3.536115  1204A      3.568246  1205A      3.570273  
    1206A      3.604894  1207A      3.611252  1208A      3.710609  
    1209A      3.723632  1210A      3.724497  1211A      3.813262  
    1212A      3.813443  1213A      3.855117  1214A      3.855438  
    1215A      3.917937  1216A      3.951805  1217A      3.972187  
    1218A      3.984078  1219A      4.020742  

    Final Occupation by Irrep:
              A 
    DOCC [   197 ]
    NA   [   197 ]
    NB   [   197 ]

  @DF-RHF Final Energy: -2359.19865253302578

   => Energetics <=

    Nuclear Repulsion Energy =           7851.4833166740709203
    One-Electron Energy =              -18808.2594936842833704
    Two-Electron Energy =                8597.5775244771866710
    Total Energy =                      -2359.1986525330248696

Computation Completed


Properties will be evaluated at   0.000000,   0.000000,   0.000000 [a0]

Properties computed using the SCF density matrix


 Multipole Moments:

 ------------------------------------------------------------------------------------
     Multipole            Electronic (a.u.)      Nuclear  (a.u.)        Total (a.u.)
 ------------------------------------------------------------------------------------

 L = 1.  Multiply by 2.5417464519 to convert [e a0] to [Debye]
 Dipole X            :         -0.0012083            0.0006313           -0.0005770
 Dipole Y            :         -0.0480569            0.0560211            0.0079641
 Dipole Z            :         25.7811677          -36.6869940          -10.9058263
 Magnitude           :                                                   10.9058293

 ------------------------------------------------------------------------------------

*** tstop() called on d-18-8-4 at Mon Jan 22 19:52:48 2024
Module time:
	user time   =    4597.76 seconds =      76.63 minutes
	system time =     161.81 seconds =       2.70 minutes
	total time  =        504 seconds =       8.40 minutes
Total time:
	user time   =    4597.76 seconds =      76.63 minutes
	system time =     161.81 seconds =       2.70 minutes
	total time  =        504 seconds =       8.40 minutes

  //>>>>>>>>>>>>>>>>>>>>>>>>>>>>>>>>>>>//
  //            Monomer A HF           //
  //<<<<<<<<<<<<<<<<<<<<<<<<<<<<<<<<<<<//

   => Libint2 <=

    Primary   basis highest AM E, G, H:  7, 7, 4
    Auxiliary basis highest AM E, G, H:  7, 7, 5
    Onebody   basis highest AM E, G, H:  7, 7, 5
    Solid Harmonics ordering:            gaussian

*** tstart() called on d-18-8-4
*** at Mon Jan 22 19:52:48 2024

   => Loading Basis Set <=

    Name: JUN-CC-PVDZ
    Role: ORBITAL
    Keyword: BASIS
    atoms 1-2, 4-5, 10, 17-70 entry C          line   164 file /home/gridsan/tfroembgen/.conda/envs/psi4test/share/psi4/basis/jun-cc-pvdz.gbs 
    atoms 3, 6                entry N          line   198 file /home/gridsan/tfroembgen/.conda/envs/psi4test/share/psi4/basis/jun-cc-pvdz.gbs 
    atoms 7-9, 11-16, 71-88   entry H          line    36 file /home/gridsan/tfroembgen/.conda/envs/psi4test/share/psi4/basis/jun-cc-pvdz.gbs 


         ---------------------------------------------------------
                                   SCF
               by Justin Turney, Rob Parrish, Andy Simmonett
                          and Daniel G. A. Smith
                              RHF Reference
                       12 Threads,  30517 MiB Core
         ---------------------------------------------------------

  ==> Geometry <==

    Molecular point group: c1
    Full point group: C1

    Geometry (in Angstrom), charge = 1, multiplicity = 1:

       Center              X                  Y                   Z               Mass       
    ------------   -----------------  -----------------  -----------------  -----------------
         C            0.680066520158    -0.008042372515    -7.674696674845    12.000000000000
         C           -0.680504479842    -0.006014372515    -7.674312674845    12.000000000000
         N           -1.085635479842    -0.005016372515    -6.355988674845    14.003074004430
         C            0.000107520158    -0.001740372515    -5.574587674845    12.000000000000
         C           -2.477365479842     0.044389627485    -5.888009674845    12.000000000000
         N            1.085221520158    -0.005016372515    -6.355988674845    14.003074004430
         H            1.385145520158    -0.015870372515    -8.492135674845     1.007825032230
         H           -1.385302479842    -0.006204372515    -8.491981674845     1.007825032230
         H           -0.000009479842     0.000006627485    -4.493498674845     1.007825032230
         C            2.478116520158    -0.021908372515    -5.890890674845    12.000000000000
         H            2.490591520158     0.005436627485    -4.800637674845     1.007825032230
         H            2.967027520158    -0.935354372515    -6.238066674845     1.007825032230
         H            3.001427520158     0.853574627485    -6.282362674845     1.007825032230
         H           -2.857359479842     1.066460627485    -5.967968674845     1.007825032230
         H           -3.082679479842    -0.625694372515    -6.501073674845     1.007825032230
         H           -2.518128479842    -0.282594372515    -4.848061674845     1.007825032230
      Gh(C)           1.225311895423     0.707538288405     0.947369952439    12.000000000000
      Gh(C)           1.225323856051    -0.707538895085     0.935039142868    12.000000000000
      Gh(C)          -0.000006153932     1.414965913575     0.934505519348    12.000000000000
      Gh(C)           2.456448753949     1.418327886663     0.950256809839    12.000000000000
      Gh(C)           0.000010827279    -1.414976499150     0.944705076672    12.000000000000
      Gh(C)          -1.225300948908     0.707545373469     0.949621472761    12.000000000000
      Gh(C)           2.456437755320    -1.418323304396     0.932793986012    12.000000000000
      Gh(C)          -0.000001332978     2.836801030766     0.932101969214    12.000000000000
      Gh(C)           3.681826697470     0.709317955486     0.933142775809    12.000000000000
      Gh(C)           2.455120048865     2.834223660974     0.933040218849    12.000000000000
      Gh(C)           3.681821105219    -0.709333839944     0.949215259828    12.000000000000
      Gh(C)          -1.225313598688    -0.707527516059     0.936111904295    12.000000000000
      Gh(C)           1.226699581202     3.543469483479     0.949399291759    12.000000000000
      Gh(C)           0.000004784858    -2.836782139751     0.949553244294    12.000000000000
      Gh(C)          -2.456436032848     1.418316917770     0.949656868607    12.000000000000
      Gh(C)           2.455123417779    -2.834230029103     0.949063351460    12.000000000000
      Gh(C)          -1.226714364589     3.543469063235     0.949502624978    12.000000000000
      Gh(C)           4.914517295202     1.427172871975     0.939623458839    12.000000000000
      Gh(C)           3.693150191476     3.542795292030     0.939673258475    12.000000000000
      Gh(C)          -2.456437600068    -1.418313281354     0.932768947887    12.000000000000
      Gh(C)           1.226704841943    -3.543474242421     0.933429161009    12.000000000000
      Gh(C)          -2.455125398508     2.834216662119     0.933046595195    12.000000000000
      Gh(C)           4.914524380782    -1.427186910459     0.942596201574    12.000000000000
      Gh(C)           1.221424613699     4.970134064745     0.942734635833    12.000000000000
      Gh(C)           4.893008229321     2.825187999512     0.940840127198    12.000000000000
      Gh(C)          -1.226697008489    -3.543470997592     0.933696365418    12.000000000000
      Gh(C)          -3.681818976526     0.709324966217     0.933155456289    12.000000000000
      Gh(C)           3.693147101150    -3.542801341905     0.942714092134    12.000000000000
      Gh(C)          -1.221432251994     4.970128297348     0.942918131206    12.000000000000
      Gh(C)           6.134770972926     0.680547946591     0.940393233389    12.000000000000
      Gh(C)           3.656788880610     4.972953243053     0.940581896258    12.000000000000
      Gh(C)          -2.455126907733    -2.834215093576     0.948818993662    12.000000000000
      Gh(C)          -3.681819179061    -0.709325703983     0.949332881407    12.000000000000
      Gh(C)           4.893012617914    -2.825200106147     0.941451279093    12.000000000000
      Gh(C)          -0.000001073113     5.650447365518     0.941686822499    12.000000000000
      Gh(C)           6.134775112332    -0.680554854590     0.941658553905    12.000000000000
      Gh(C)           2.478131482856     5.653576750817     0.941870675908    12.000000000000
      Gh(C)           1.221422404738    -4.970127055448     0.939935138811    12.000000000000
      Gh(C)          -3.693162383965     3.542796953677     0.939838765935    12.000000000000
      Gh(C)          -1.221428520945    -4.970118304111     0.939822376978    12.000000000000
      Gh(C)          -4.914521807942     1.427175446480     0.939700403846    12.000000000000
      Gh(C)           3.656787019679    -4.972955226754     0.942032396792    12.000000000000
      Gh(C)          -2.478138530106     5.653574422014     0.942155200916    12.000000000000
      Gh(C)          -3.693141738564    -3.542790219494     0.942597965979    12.000000000000
      Gh(C)          -4.914512483053    -1.427181000542     0.942630898747    12.000000000000
      Gh(C)          -0.000006008926    -5.650438287528     0.941291318378    12.000000000000
      Gh(C)          -4.893020484101     2.825188598404     0.940830045338    12.000000000000
      Gh(C)           2.478125993298    -5.653573544403     0.940941796000    12.000000000000
      Gh(C)          -3.656798710258     4.972956181527     0.940758576632    12.000000000000
      Gh(C)          -4.892999478856    -2.825191767575     0.941297243395    12.000000000000
      Gh(C)          -2.478128498083    -5.653566170521     0.940666608352    12.000000000000
      Gh(C)          -6.134770503331     0.680548765741     0.940367681686    12.000000000000
      Gh(C)          -3.656788833189    -4.972944023485     0.941818108975    12.000000000000
      Gh(C)          -6.134765042913    -0.680553915997     0.941638078110    12.000000000000
      Gh(H)           5.835288495816     3.369275894439     0.945199452860     1.007825032230
      Gh(H)           7.073859172747     1.228217248385     0.940854876782     1.007825032230
      Gh(H)           4.600663264174     5.512380801938     0.941087097010     1.007825032230
      Gh(H)           5.835283387305    -3.369306057244     0.936996811779     1.007825032230
      Gh(H)          -0.000012151306     6.738530673622     0.937337577491     1.007825032230
      Gh(H)           7.073861171831    -1.228226943259     0.941149815810     1.007825032230
      Gh(H)           2.473313731799     6.740684290880     0.941403954977     1.007825032230
      Gh(H)           4.600668491381    -5.512376129691     0.941622399623     1.007825032230
      Gh(H)          -2.473318680537     6.740681719092     0.941705301602     1.007825032230
      Gh(H)          -0.000010268228    -6.738528176967     0.945821003362     1.007825032230
      Gh(H)          -5.835301914343     3.369270949781     0.945335475009     1.007825032230
      Gh(H)           2.473307923831    -6.740685374944     0.941512126425     1.007825032230
      Gh(H)          -4.600674841208     5.512378026089     0.941252425333     1.007825032230
      Gh(H)          -5.835279506835    -3.369288964294     0.936717505898     1.007825032230
      Gh(H)          -2.473300347440    -6.740679078655     0.941062809880     1.007825032230
      Gh(H)          -7.073857766768     1.228220472326     0.940770885301     1.007825032230
      Gh(H)          -4.600673786085    -5.512362670301     0.941450091601     1.007825032230
      Gh(H)          -7.073856934409    -1.228220632492     0.941054959344     1.007825032230

  Running in c1 symmetry.

  Rotational constants: A =      0.00137  B =      0.00134  C =      0.00109 [cm^-1]
  Rotational constants: A =     41.03469  B =     40.25255  C =     32.71081 [MHz]
  Nuclear repulsion =  306.774908447733083

  Charge       = 1
  Multiplicity = 1
  Electrons    = 52
  Nalpha       = 26
  Nbeta        = 26

  ==> Algorithm <==

  SCF Algorithm Type is DF.
  DIIS enabled.
  MOM disabled.
  Fractional occupation disabled.
  Guess Type is SAD.
  Energy threshold   = 1.00e-08
  Density threshold  = 1.00e-08
  Integral threshold = 1.00e-12

  ==> Primary Basis <==

  Basis Set: JUN-CC-PVDZ
    Blend: JUN-CC-PVDZ
    Number of shells: 569
    Number of basis functions: 1233
    Number of Cartesian functions: 1294
    Spherical Harmonics?: true
    Max angular momentum: 2

   => Loading Basis Set <=

    Name: (JUN-CC-PVDZ AUX)
    Role: JKFIT
    Keyword: DF_BASIS_SCF
    atoms 1-2, 4-5, 10, 17-70 entry C          line   146 file /home/gridsan/tfroembgen/.conda/envs/psi4test/share/psi4/basis/jun-cc-pvdz-jkfit.gbs 
    atoms 3, 6                entry N          line   202 file /home/gridsan/tfroembgen/.conda/envs/psi4test/share/psi4/basis/jun-cc-pvdz-jkfit.gbs 
    atoms 7-9, 11-16, 71-88   entry H          line    70 file /home/gridsan/tfroembgen/.conda/envs/psi4test/share/psi4/basis/jun-cc-pvdz-jkfit.gbs 

  ==> Integral Setup <==

  ==> DiskDFJK: Density-Fitted J/K Matrices <==

    J tasked:                  Yes
    K tasked:                  Yes
    wK tasked:                  No
    OpenMP threads:             12
    Integrals threads:          12
    Memory [MiB]:            22888
    Algorithm:                Core
    Integral Cache:           LOAD
    Schwarz Cutoff:          1E-12
    Fitting Condition:       1E-10

   => Auxiliary Basis Set <=

  Basis Set: (JUN-CC-PVDZ AUX)
    Blend: JUN-CC-PVDZ-JKFIT
    Number of shells: 1890
    Number of basis functions: 5440
    Number of Cartesian functions: 6226
    Spherical Harmonics?: true
    Max angular momentum: 3

  Minimum eigenvalue in the overlap matrix is 8.3874533461E-10.
  Reciprocal condition number of the overlap matrix is 3.7495513562E-11.
    Using canonical orthogonalization.
  Overall, 14 of 1233 possible MOs eliminated.


  ==> Pre-Iterations <==

  SCF Guess: Superposition of Atomic Densities via on-the-fly atomic UHF (no occupation information).

   -------------------------
    Irrep   Nso     Nmo    
   -------------------------
     A       1233    1219 
   -------------------------
    Total    1233    1219
   -------------------------

  ==> Iterations <==

                           Total Energy        Delta E     RMS |[F,P]|

   @DF-RHF iter SAD:  -303.36534061267542   -3.03365e+02   0.00000e+00 
   @DF-RHF iter   1:  -303.16943237042875    1.95908e-01   3.44073e-04 ADIIS/DIIS
   @DF-RHF iter   2:  -303.28376592164443   -1.14334e-01   1.15867e-04 ADIIS/DIIS
   @DF-RHF iter   3:  -303.29521308854061   -1.14472e-02   4.53225e-05 DIIS
   @DF-RHF iter   4:  -303.29711486260379   -1.90177e-03   9.89160e-06 DIIS
   @DF-RHF iter   5:  -303.29722036178015   -1.05499e-04   2.41146e-06 DIIS
   @DF-RHF iter   6:  -303.29722961573566   -9.25396e-06   6.54222e-07 DIIS
   @DF-RHF iter   7:  -303.29723068802241   -1.07229e-06   3.32150e-07 DIIS
   @DF-RHF iter   8:  -303.29723094047142   -2.52449e-07   1.33656e-07 DIIS
   @DF-RHF iter   9:  -303.29723098892646   -4.84550e-08   3.37156e-08 DIIS
   @DF-RHF iter  10:  -303.29723099175237   -2.82591e-09   1.26708e-08 DIIS
   @DF-RHF iter  11:  -303.29723099199947   -2.47098e-10   2.98918e-09 DIIS
  Energy and wave function converged.


  ==> Post-Iterations <==

    Orbital Energies [Eh]
    ---------------------

    Doubly Occupied:                                                      

       1A    -15.834661     2A    -15.834129     3A    -11.529543  
       4A    -11.459856     5A    -11.458301     6A    -11.449664  
       7A    -11.449550     8A     -1.578218     9A     -1.433810  
      10A     -1.238651    11A     -1.189299    12A     -1.118857  
      13A     -1.022522    14A     -0.996949    15A     -0.917034  
      16A     -0.850515    17A     -0.816246    18A     -0.813187  
      19A     -0.790116    20A     -0.786219    21A     -0.781759  
      22A     -0.729696    23A     -0.725775    24A     -0.717091  
      25A     -0.596292    26A     -0.523846  

    Virtual:                                                              

      27A     -0.073857    28A     -0.070790    29A     -0.058274  
      30A     -0.050939    31A     -0.037617    32A     -0.034589  
      33A     -0.034002    34A     -0.033315    35A     -0.031806  
      36A     -0.023970    37A     -0.020970    38A     -0.018206  
      39A     -0.015155    40A     -0.011720    41A     -0.009383  
      42A     -0.006305    43A     -0.005004    44A     -0.001082  
      45A     -0.000572    46A      0.000316    47A      0.003082  
      48A      0.010432    49A      0.010699    50A      0.014551  
      51A      0.014683    52A      0.018295    53A      0.018528  
      54A      0.023376    55A      0.025611    56A      0.027360  
      57A      0.029147    58A      0.029854    59A      0.034922  
      60A      0.036370    61A      0.036664    62A      0.039174  
      63A      0.039306    64A      0.041445    65A      0.047016  
      66A      0.050685    67A      0.051935    68A      0.054651  
      69A      0.056611    70A      0.056953    71A      0.057630  
      72A      0.062199    73A      0.063710    74A      0.064262  
      75A      0.069450    76A      0.070397    77A      0.070880  
      78A      0.071843    79A      0.072584    80A      0.073209  
      81A      0.075834    82A      0.077625    83A      0.080089  
      84A      0.082166    85A      0.082380    86A      0.082485  
      87A      0.082644    88A      0.089090    89A      0.090476  
      90A      0.090613    91A      0.092704    92A      0.092916  
      93A      0.093363    94A      0.096399    95A      0.098932  
      96A      0.100405    97A      0.100702    98A      0.101411  
      99A      0.101875   100A      0.106379   101A      0.108961  
     102A      0.112225   103A      0.113672   104A      0.115578  
     105A      0.115920   106A      0.116542   107A      0.118380  
     108A      0.120174   109A      0.121519   110A      0.122120  
     111A      0.122736   112A      0.124948   113A      0.125393  
     114A      0.127281   115A      0.128827   116A      0.131176  
     117A      0.131553   118A      0.133411   119A      0.137895  
     120A      0.140026   121A      0.140911   122A      0.141070  
     123A      0.141493   124A      0.143546   125A      0.146368  
     126A      0.146554   127A      0.147929   128A      0.148274  
     129A      0.148971   130A      0.149360   131A      0.151839  
     132A      0.153847   133A      0.154167   134A      0.154878  
     135A      0.156150   136A      0.160441   137A      0.164116  
     138A      0.165934   139A      0.167137   140A      0.168927  
     141A      0.169056   142A      0.170768   143A      0.170970  
     144A      0.172958   145A      0.173279   146A      0.176091  
     147A      0.178545   148A      0.181024   149A      0.183850  
     150A      0.184114   151A      0.184178   152A      0.184325  
     153A      0.186406   154A      0.187982   155A      0.188332  
     156A      0.190173   157A      0.190398   158A      0.194668  
     159A      0.196531   160A      0.196900   161A      0.197671  
     162A      0.199590   163A      0.203879   164A      0.205660  
     165A      0.208445   166A      0.213938   167A      0.214283  
     168A      0.214897   169A      0.215754   170A      0.219895  
     171A      0.220167   172A      0.220742   173A      0.221810  
     174A      0.222238   175A      0.222502   176A      0.223845  
     177A      0.226223   178A      0.227101   179A      0.227598  
     180A      0.228910   181A      0.231054   182A      0.231827  
     183A      0.232487   184A      0.232555   185A      0.237148  
     186A      0.239535   187A      0.242469   188A      0.244039  
     189A      0.246856   190A      0.247539   191A      0.248064  
     192A      0.253449   193A      0.254164   194A      0.254564  
     195A      0.257561   196A      0.258117   197A      0.264825  
     198A      0.267927   199A      0.269000   200A      0.270241  
     201A      0.272458   202A      0.274154   203A      0.274512  
     204A      0.276464   205A      0.277169   206A      0.283935  
     207A      0.285153   208A      0.285198   209A      0.289651  
     210A      0.291218   211A      0.291721   212A      0.292361  
     213A      0.293348   214A      0.297446   215A      0.297948  
     216A      0.298725   217A      0.301424   218A      0.303021  
     219A      0.305311   220A      0.306112   221A      0.307237  
     222A      0.307311   223A      0.308131   224A      0.308458  
     225A      0.314851   226A      0.315533   227A      0.316876  
     228A      0.317345   229A      0.321167   230A      0.324768  
     231A      0.324875   232A      0.330704   233A      0.333106  
     234A      0.333576   235A      0.336851   236A      0.341370  
     237A      0.343918   238A      0.344066   239A      0.346305  
     240A      0.348758   241A      0.350190   242A      0.353657  
     243A      0.359014   244A      0.359686   245A      0.360201  
     246A      0.366293   247A      0.368773   248A      0.370487  
     249A      0.372031   250A      0.372719   251A      0.372860  
     252A      0.373967   253A      0.374286   254A      0.376490  
     255A      0.376957   256A      0.379031   257A      0.380244  
     258A      0.387890   259A      0.388358   260A      0.389979  
     261A      0.391446   262A      0.391653   263A      0.396295  
     264A      0.397873   265A      0.398304   266A      0.399009  
     267A      0.399324   268A      0.400699   269A      0.401996  
     270A      0.404614   271A      0.410284   272A      0.410428  
     273A      0.410921   274A      0.414385   275A      0.414558  
     276A      0.415826   277A      0.417797   278A      0.418810  
     279A      0.420363   280A      0.422914   281A      0.424085  
     282A      0.426543   283A      0.427333   284A      0.428521  
     285A      0.429175   286A      0.431244   287A      0.433150  
     288A      0.436680   289A      0.437518   290A      0.438036  
     291A      0.440994   292A      0.447333   293A      0.448515  
     294A      0.452602   295A      0.457193   296A      0.459342  
     297A      0.459368   298A      0.462743   299A      0.464946  
     300A      0.467376   301A      0.468105   302A      0.471389  
     303A      0.471503   304A      0.473108   305A      0.474064  
     306A      0.475362   307A      0.476512   308A      0.478371  
     309A      0.481521   310A      0.487243   311A      0.487817  
     312A      0.488523   313A      0.490580   314A      0.492447  
     315A      0.493589   316A      0.505329   317A      0.506392  
     318A      0.508674   319A      0.511065   320A      0.514231  
     321A      0.515984   322A      0.516155   323A      0.516329  
     324A      0.517950   325A      0.519850   326A      0.520711  
     327A      0.522654   328A      0.523876   329A      0.531760  
     330A      0.538107   331A      0.539556   332A      0.540004  
     333A      0.541611   334A      0.541743   335A      0.542151  
     336A      0.551089   337A      0.551489   338A      0.556848  
     339A      0.558261   340A      0.559239   341A      0.560224  
     342A      0.560897   343A      0.562351   344A      0.566497  
     345A      0.571718   346A      0.573992   347A      0.574264  
     348A      0.581355   349A      0.582864   350A      0.586802  
     351A      0.587093   352A      0.587841   353A      0.594355  
     354A      0.596989   355A      0.604072   356A      0.605366  
     357A      0.612366   358A      0.617407   359A      0.618580  
     360A      0.618688   361A      0.620139   362A      0.620712  
     363A      0.623433   364A      0.623935   365A      0.627827  
     366A      0.628920   367A      0.631198   368A      0.631504  
     369A      0.634256   370A      0.638272   371A      0.638551  
     372A      0.642211   373A      0.643489   374A      0.645997  
     375A      0.646215   376A      0.647081   377A      0.648321  
     378A      0.654730   379A      0.659376   380A      0.662261  
     381A      0.663987   382A      0.664433   383A      0.664813  
     384A      0.665790   385A      0.672262   386A      0.681628  
     387A      0.687579   388A      0.690016   389A      0.691907  
     390A      0.700186   391A      0.701662   392A      0.702100  
     393A      0.702481   394A      0.703751   395A      0.705247  
     396A      0.705503   397A      0.707271   398A      0.707564  
     399A      0.708525   400A      0.708765   401A      0.712637  
     402A      0.712964   403A      0.714770   404A      0.715641  
     405A      0.716832   406A      0.717152   407A      0.723617  
     408A      0.727336   409A      0.728000   410A      0.730141  
     411A      0.731828   412A      0.734067   413A      0.736256  
     414A      0.736604   415A      0.739331   416A      0.743604  
     417A      0.744440   418A      0.747336   419A      0.748766  
     420A      0.749412   421A      0.757073   422A      0.758277  
     423A      0.762772   424A      0.786810   425A      0.787125  
     426A      0.790087   427A      0.790234   428A      0.790733  
     429A      0.798508   430A      0.799343   431A      0.800634  
     432A      0.809769   433A      0.821302   434A      0.821455  
     435A      0.822638   436A      0.826128   437A      0.826422  
     438A      0.827791   439A      0.831941   440A      0.832015  
     441A      0.839416   442A      0.839506   443A      0.846642  
     444A      0.858266   445A      0.862678   446A      0.864129  
     447A      0.864321   448A      0.888575   449A      0.892226  
     450A      0.900802   451A      0.900939   452A      0.904242  
     453A      0.909144   454A      0.909199   455A      0.918469  
     456A      0.931991   457A      0.941245   458A      0.941401  
     459A      0.944544   460A      0.949712   461A      0.958109  
     462A      0.963575   463A      0.966983   464A      0.967264  
     465A      0.970438   466A      0.981830   467A      0.982260  
     468A      0.984671   469A      0.999956   470A      1.006554  
     471A      1.006617   472A      1.008147   473A      1.008377  
     474A      1.034153   475A      1.037879   476A      1.043709  
     477A      1.044205   478A      1.045905   479A      1.060509  
     480A      1.066940   481A      1.094452   482A      1.094550  
     483A      1.099736   484A      1.101419   485A      1.101661  
     486A      1.106796   487A      1.115531   488A      1.118204  
     489A      1.123696   490A      1.124012   491A      1.126059  
     492A      1.136852   493A      1.136871   494A      1.140236  
     495A      1.140608   496A      1.150299   497A      1.160303  
     498A      1.160362   499A      1.165876   500A      1.168838  
     501A      1.169087   502A      1.227610   503A      1.235645  
     504A      1.235655   505A      1.243850   506A      1.246117  
     507A      1.246428   508A      1.262256   509A      1.262571  
     510A      1.267120   511A      1.268901   512A      1.272531  
     513A      1.282010   514A      1.304612   515A      1.310313  
     516A      1.310549   517A      1.324763   518A      1.349659  
     519A      1.361231   520A      1.382300   521A      1.382777  
     522A      1.401278   523A      1.401342   524A      1.402873  
     525A      1.406378   526A      1.406600   527A      1.409035  
     528A      1.422023   529A      1.422316   530A      1.424582  
     531A      1.465297   532A      1.478117   533A      1.483302  
     534A      1.494440   535A      1.495091   536A      1.497174  
     537A      1.497884   538A      1.503635   539A      1.509402  
     540A      1.518538   541A      1.562233   542A      1.565224  
     543A      1.574905   544A      1.577635   545A      1.586830  
     546A      1.589809   547A      1.598532   548A      1.600327  
     549A      1.602456   550A      1.606889   551A      1.620926  
     552A      1.621789   553A      1.623640   554A      1.630485  
     555A      1.631548   556A      1.641533   557A      1.661384  
     558A      1.669684   559A      1.681895   560A      1.686076  
     561A      1.687001   562A      1.687701   563A      1.688565  
     564A      1.690386   565A      1.690683   566A      1.692572  
     567A      1.700666   568A      1.702800   569A      1.703204  
     570A      1.711213   571A      1.726978   572A      1.730438  
     573A      1.731340   574A      1.731853   575A      1.732578  
     576A      1.735052   577A      1.740380   578A      1.746333  
     579A      1.748797   580A      1.750064   581A      1.751482  
     582A      1.757270   583A      1.761426   584A      1.764984  
     585A      1.766132   586A      1.769656   587A      1.769929  
     588A      1.770627   589A      1.773230   590A      1.774169  
     591A      1.781839   592A      1.784273   593A      1.784713  
     594A      1.785184   595A      1.788686   596A      1.790510  
     597A      1.799345   598A      1.800932   599A      1.801271  
     600A      1.810342   601A      1.812991   602A      1.817088  
     603A      1.817695   604A      1.820541   605A      1.822778  
     606A      1.825514   607A      1.826686   608A      1.826827  
     609A      1.829128   610A      1.833729   611A      1.837990  
     612A      1.843819   613A      1.846112   614A      1.846237  
[...]
     799A      1.676378   800A      1.676465   801A      1.676770  
     802A      1.676824   803A      1.677060   804A      1.682687  
     805A      1.686681   806A      1.686757   807A      1.696099  
     808A      1.696194   809A      1.699260   810A      1.699333  
     811A      1.700930   812A      1.704788   813A      1.704847  
     814A      1.711687   815A      1.715781   816A      1.715909  
     817A      1.741723   818A      1.751448   819A      1.757599  
     820A      1.760326   821A      1.760486   822A      1.761093  
     823A      1.761774   824A      1.776773   825A      1.776781  
     826A      1.791476   827A      1.791589   828A      1.797057  
     829A      1.806326   830A      1.812916   831A      1.815425  
     832A      1.816721   833A      1.817005   834A      1.818046  
     835A      1.823909   836A      1.824710   837A      1.824888  
     838A      1.830985   839A      1.831311   840A      1.839814  
     841A      1.842068   842A      1.842462   843A      1.843837  
     844A      1.859773   845A      1.860731   846A      1.860932  
     847A      1.862059   848A      1.864241   849A      1.864553  
     850A      1.870196   851A      1.872317   852A      1.880176  
     853A      1.880378   854A      1.896155   855A      1.896508  
     856A      1.897408   857A      1.899245   858A      1.900373  
     859A      1.902997   860A      1.903217   861A      1.908422  
     862A      1.908668   863A      1.914408   864A      1.916119  
     865A      1.916801   866A      1.917788   867A      1.918171  
     868A      1.919468   869A      1.922021   870A      1.922411  
     871A      1.940863   872A      1.941861   873A      1.942141  
     874A      1.943087   875A      1.944127   876A      1.946675  
     877A      1.947080   878A      1.954108   879A      1.954638  
     880A      1.954888   881A      1.955138   882A      1.958060  
     883A      1.971205   884A      1.983031   885A      1.983612  
     886A      1.989976   887A      1.997177   888A      1.997987  
     889A      1.998790   890A      1.999674   891A      2.008344  
     892A      2.008544   893A      2.012245   894A      2.012576  
     895A      2.019657   896A      2.027830   897A      2.029183  
     898A      2.029797   899A      2.030194   900A      2.030944  
     901A      2.031322   902A      2.031556   903A      2.037446  
     904A      2.040651   905A      2.048406   906A      2.050468  
     907A      2.052499   908A      2.052587   909A      2.057623  
     910A      2.058626   911A      2.060073   912A      2.060628  
     913A      2.063191   914A      2.068775   915A      2.071050  
     916A      2.071520   917A      2.072709   918A      2.076489  
     919A      2.076737   920A      2.082370   921A      2.084264  
     922A      2.085076   923A      2.087704   924A      2.090172  
     925A      2.095094   926A      2.095568   927A      2.096888  
     928A      2.097253   929A      2.100619   930A      2.100780  
     931A      2.108293   932A      2.108535   933A      2.108672  
     934A      2.110086   935A      2.111580   936A      2.112948  
     937A      2.115232   938A      2.117818   939A      2.119379  
     940A      2.119590   941A      2.120402   942A      2.121731  
     943A      2.125984   944A      2.126832   945A      2.127259  
     946A      2.133351   947A      2.134617   948A      2.135758  
     949A      2.135961   950A      2.140195   951A      2.143221  
     952A      2.143247   953A      2.155293   954A      2.156598  
     955A      2.159842   956A      2.160148   957A      2.162812  
     958A      2.163410   959A      2.171403   960A      2.176381  
     961A      2.178276   962A      2.182836   963A      2.190414  
     964A      2.190894   965A      2.191656   966A      2.192525  
     967A      2.193972   968A      2.195770   969A      2.195822  
     970A      2.198655   971A      2.200647   972A      2.216312  
     973A      2.219691   974A      2.220400   975A      2.220483  
     976A      2.227944   977A      2.228246   978A      2.228969  
     979A      2.229192   980A      2.242795   981A      2.243404  
     982A      2.244034   983A      2.244468   984A      2.244835  
     985A      2.247312   986A      2.260153   987A      2.260231  
     988A      2.269944   989A      2.270172   990A      2.270712  
     991A      2.272079   992A      2.272260   993A      2.280726  
     994A      2.281184   995A      2.300389   996A      2.301431  
     997A      2.306688   998A      2.310369   999A      2.312341  
    1000A      2.321118  1001A      2.322412  1002A      2.323952  
    1003A      2.331017  1004A      2.331045  1005A      2.331154  
    1006A      2.333963  1007A      2.346774  1008A      2.349139  
    1009A      2.351076  1010A      2.351688  1011A      2.352464  
    1012A      2.352616  1013A      2.366389  1014A      2.366611  
    1015A      2.374880  1016A      2.380271  1017A      2.391143  
    1018A      2.415917  1019A      2.424031  1020A      2.424405  
    1021A      2.424426  1022A      2.436468  1023A      2.441177  
    1024A      2.441376  1025A      2.448391  1026A      2.451840  
    1027A      2.460018  1028A      2.470414  1029A      2.471347  
    1030A      2.473056  1031A      2.473605  1032A      2.478340  
    1033A      2.485656  1034A      2.485791  1035A      2.502311  
    1036A      2.514031  1037A      2.519626  1038A      2.529844  
    1039A      2.530179  1040A      2.544115  1041A      2.545431  
    1042A      2.545680  1043A      2.554381  1044A      2.554534  
    1045A      2.554829  1046A      2.559846  1047A      2.559897  
    1048A      2.572994  1049A      2.573028  1050A      2.574712  
    1051A      2.575237  1052A      2.581139  1053A      2.586202  
    1054A      2.586383  1055A      2.587532  1056A      2.589823  
    1057A      2.591417  1058A      2.606571  1059A      2.623453  
    1060A      2.623726  1061A      2.626628  1062A      2.631465  
    1063A      2.631958  1064A      2.636299  1065A      2.641182  
    1066A      2.641474  1067A      2.648712  1068A      2.650895  
    1069A      2.651312  1070A      2.653002  1071A      2.656866  
    1072A      2.661349  1073A      2.676579  1074A      2.682224  
    1075A      2.683309  1076A      2.684059  1077A      2.687067  
    1078A      2.702216  1079A      2.702342  1080A      2.713035  
    1081A      2.713043  1082A      2.718723  1083A      2.718748  
    1084A      2.722702  1085A      2.723307  1086A      2.738780  
    1087A      2.740525  1088A      2.749269  1089A      2.752520  
    1090A      2.753209  1091A      2.768408  1092A      2.777940  
    1093A      2.794728  1094A      2.794862  1095A      2.809379  
    1096A      2.816721  1097A      2.827117  1098A      2.828562  
    1099A      2.838938  1100A      2.851789  1101A      2.852682  
    1102A      2.856057  1103A      2.858347  1104A      2.859816  
    1105A      2.859924  1106A      2.868575  1107A      2.879256  
    1108A      2.892538  1109A      2.912088  1110A      2.917164  
    1111A      2.917293  1112A      2.924614  1113A      2.924726  
    1114A      2.933795  1115A      2.933961  1116A      2.949662  
    1117A      2.949733  1118A      2.952404  1119A      2.963232  
    1120A      2.974805  1121A      3.000648  1122A      3.007142  
    1123A      3.008935  1124A      3.011886  1125A      3.013876  
    1126A      3.029402  1127A      3.043539  1128A      3.064231  
    1129A      3.064287  1130A      3.070740  1131A      3.070870  
    1132A      3.109430  1133A      3.110310  1134A      3.128991  
    1135A      3.129723  1136A      3.129851  1137A      3.137467  
    1138A      3.142741  1139A      3.146310  1140A      3.146680  
    1141A      3.146881  1142A      3.149261  1143A      3.149585  
    1144A      3.157864  1145A      3.158441  1146A      3.165963  
    1147A      3.166538  1148A      3.191896  1149A      3.211163  
    1150A      3.219336  1151A      3.237697  1152A      3.274156  
    1153A      3.276983  1154A      3.277157  1155A      3.281976  
    1156A      3.282084  1157A      3.286387  1158A      3.309978  
    1159A      3.321600  1160A      3.408637  1161A      3.416545  
    1162A      3.417000  1163A      3.443128  1164A      3.481606  
    1165A      3.484084  1166A      3.524010  1167A      3.549490  
    1168A      3.570880  1169A      3.577241  1170A      3.579254  
    1171A      3.593904  1172A      3.626544  1173A      3.628521  
    1174A      3.644505  1175A      3.663085  1176A      3.669457  
    1177A      3.757149  1178A      3.769244  1179A      3.782752  
    1180A      3.783826  1181A      3.815570  1182A      3.867744  
    1183A      3.870834  1184A      3.870867  1185A      3.913160  
    1186A      3.913292  1187A      3.961307  1188A      3.976934  
    1189A      4.010918  1190A      4.032851  1191A      4.044807  
    1192A      4.081660  1193A      4.205754  1194A      4.209518  
    1195A      4.348136  1196A      4.360926  1197A      4.487483  
    1198A      4.738484  1199A      4.775647  1200A      4.830651  
    1201A      4.846357  1202A      4.935776  1203A      5.051080  
    1204A      5.056771  1205A      5.066009  1206A      5.110538  
    1207A      5.135059  1208A      5.392041  1209A      5.422052  
    1210A      5.732086  1211A      5.757228  1212A      6.066994  
    1213A     18.197949  1214A     18.454606  1215A     18.471568  
    1216A     18.559655  1217A     18.830738  1218A     25.338680  
    1219A     25.374592  

    Final Occupation by Irrep:
              A 
    DOCC [   171 ]
    NA   [   171 ]
    NB   [   171 ]

  @DF-RHF Final Energy: -2055.89193353612973

   => Energetics <=

    Nuclear Repulsion Energy =           6452.5568002797781446
    One-Electron Energy =              -15636.4354667158277152
    Two-Electron Energy =                7127.9867328999189340
    Total Energy =                      -2055.8919335361297271

Computation Completed


Properties will be evaluated at   0.000000,   0.000000,   0.000000 [a0]

Properties computed using the SCF density matrix


 Multipole Moments:

 ------------------------------------------------------------------------------------
     Multipole            Electronic (a.u.)      Nuclear  (a.u.)        Total (a.u.)
 ------------------------------------------------------------------------------------

 L = 1.  Multiply by 2.5417464519 to convert [e a0] to [Debye]
 Dipole X            :          0.0001043           -0.0000085            0.0000958
 Dipole Y            :         -0.0000380            0.0000167           -0.0000213
 Dipole Z            :       -608.2997682          608.3041468            0.0043786
 Magnitude           :                                                    0.0043797

 ------------------------------------------------------------------------------------

*** tstop() called on d-18-8-4 at Mon Jan 22 20:04:21 2024
Module time:
	user time   =    2472.11 seconds =      41.20 minutes
	system time =      68.79 seconds =       1.15 minutes
	total time  =        380 seconds =       6.33 minutes
Total time:
	user time   =    8556.06 seconds =     142.60 minutes
	system time =     259.62 seconds =       4.33 minutes
	total time  =       1197 seconds =      19.95 minutes
  Constructing Basis Sets for SAPT...

   => Loading Basis Set <=

    Name: (JUN-CC-PVDZ AUX)
    Role: RIFIT
    Keyword: DF_BASIS_SAPT
    atoms 1-2, 4-5, 10, 17-70 entry C          line   100 file /home/gridsan/tfroembgen/.conda/envs/psi4test/share/psi4/basis/jun-cc-pvdz-ri.gbs 
    atoms 3, 6                entry N          line   144 file /home/gridsan/tfroembgen/.conda/envs/psi4test/share/psi4/basis/jun-cc-pvdz-ri.gbs 
    atoms 7-9, 11-16, 71-88   entry H          line    30 file /home/gridsan/tfroembgen/.conda/envs/psi4test/share/psi4/basis/jun-cc-pvdz-ri.gbs 

   => Loading Basis Set <=

    Name: (JUN-CC-PVDZ AUX)
    Role: JKFIT
    Keyword: DF_BASIS_ELST
    atoms 1-2, 4-5, 10, 17-70 entry C          line   146 file /home/gridsan/tfroembgen/.conda/envs/psi4test/share/psi4/basis/jun-cc-pvdz-jkfit.gbs 
    atoms 3, 6                entry N          line   202 file /home/gridsan/tfroembgen/.conda/envs/psi4test/share/psi4/basis/jun-cc-pvdz-jkfit.gbs 
    atoms 7-9, 11-16, 71-88   entry H          line    70 file /home/gridsan/tfroembgen/.conda/envs/psi4test/share/psi4/basis/jun-cc-pvdz-jkfit.gbs 


  //>>>>>>>>>>>>>>>>>>>>>>>>>>>>>>>>>>>//
  //               SSAPT0              //
  //<<<<<<<<<<<<<<<<<<<<<<<<<<<<<<<<<<<//


*** tstart() called on d-18-8-4
*** at Mon Jan 22 20:04:22 2024

        SAPT0  
    Ed Hohenstein
     6 June 2009

      Orbital Information
  --------------------------
    NSO        =      1233
    NMO        =      1219
    NRI        =      4343
    NRI (Elst) =      5440
    NOCC A     =        26
    NOCC B     =       171
    FOCC A     =         7
    FOCC B     =        54
    NVIR A     =      1193
    NVIR B     =      1048

    Elst10,r            =    -0.007227175645 [Eh]
    Exch10              =    -0.000000143863 [Eh]
    Exch10 (S^2)        =    -0.000000143863 [Eh]

    Iter     Energy [mEh]          dE [mEh]         Residual      Time [s]
       1      -0.01967476       0.019674762       1.324543057           642
       2      -0.01867233      -0.001002430       0.347926046          1111
       3      -0.02056942       0.001897089       0.095167232          1404
       4      -0.02067831       0.000108893       0.044093220          1592
       5      -0.02058765      -0.000090661       0.012067544          1871
       6      -0.02059088       0.000003225       0.004245741          2102
       7      -0.02059750       0.000006626       0.001090371          2338
       8      -0.02059784       0.000000340       0.000355667          2719
       9      -0.02059758      -0.000000265       0.000105995          2934
      10      -0.02059751      -0.000000074       0.000032210          3240
      11      -0.02059751       0.000000008       0.000008940          3371
      12      -0.02059752       0.000000009       0.000002591          3550
      13      -0.02059752      -0.000000000       0.000001013          4054
      14      -0.02059752      -0.000000001       0.000000227          4462

    CHF Iterations converged


    Iter     Energy [mEh]          dE [mEh]         Residual      Time [s]
       1      -3.15427107       3.154271066      29.420166227           151
       2      -2.14271248      -1.011558585       3.696202786           284
       3      -2.14442466       0.001712176       1.325041552           322
       4      -2.19548200       0.051057337       0.298888983           358
       5      -2.19780675       0.002324754       0.085346409           386
       6      -2.19679095      -0.001015803       0.041897184           442
       7      -2.19643453      -0.000356416       0.019558551           476
       8      -2.19662163       0.000187105       0.013074379           521
       9      -2.19669671       0.000075076       0.007589441           671
      10      -2.19665471      -0.000042006       0.005148344           694
      11      -2.19663296      -0.000021748       0.002314592           887
      12      -2.19663956       0.000006600       0.001067505           975
      13      -2.19664460       0.000005040       0.000468521          1087
      14      -2.19664358      -0.000001019       0.000266104          1115
      15      -2.19664231      -0.000001268       0.000115918          1139
      16      -2.19664247       0.000000161       0.000054124          1161
      17      -2.19664280       0.000000327       0.000015203          1196
      18      -2.19664277      -0.000000022       0.000005312          1281
      19      -2.19664275      -0.000000020       0.000002797          1347
      20      -2.19664275      -0.000000005       0.000001144          1404
      21      -2.19664276       0.000000005       0.000000539          1492

    CHF Iterations converged

    Ind20,r (A<-B)      =    -0.000020597521 [Eh]
    Ind20,r (B<-A)      =    -0.002196642755 [Eh]
    Ind20,r             =    -0.002217240276 [Eh]
    Exch-Ind20,r (A<-B) =     0.000000030357 [Eh]
    Exch-Ind20,r (B<-A) =     0.000000346909 [Eh]
    Exch-Ind20,r        =     0.000000377266 [Eh]
    Disp20              =    -0.001168018986 [Eh]
    Disp20 (SS)         =    -0.000584009493 [Eh]
    Disp20 (OS)         =    -0.000584009493 [Eh]
    Exch-Disp20         =     0.000000137309 [Eh]
    Exch-Disp20 (SS)    =     0.000000104600 [Eh]
    Exch-Disp20 (OS)    =     0.000000032709 [Eh]

    SAPT Results 
  --------------------------------------------------------------------------------------------------------
    Electrostatics                 -7.22717564 [mEh]      -4.53512119 [kcal/mol]     -18.97494704 [kJ/mol]
      Elst10,r                     -7.22717564 [mEh]      -4.53512119 [kcal/mol]     -18.97494704 [kJ/mol]

    Exchange                       -0.00014386 [mEh]      -0.00009028 [kcal/mol]      -0.00037771 [kJ/mol]
      Exch10                       -0.00014386 [mEh]      -0.00009028 [kcal/mol]      -0.00037771 [kJ/mol]
      Exch10(S^2)                  -0.00014386 [mEh]      -0.00009028 [kcal/mol]      -0.00037771 [kJ/mol]

    Induction                      -2.26068539 [mEh]      -1.41860150 [kcal/mol]      -5.93542867 [kJ/mol]
      Ind20,r                      -2.21724028 [mEh]      -1.39133928 [kcal/mol]      -5.82136354 [kJ/mol]
      Exch-Ind20,r                  0.00037727 [mEh]       0.00023674 [kcal/mol]       0.00099051 [kJ/mol]
      delta HF,r (2)               -0.04382238 [mEh]      -0.02749896 [kcal/mol]      -0.11505564 [kJ/mol]

    Dispersion                     -1.16788168 [mEh]      -0.73285682 [kcal/mol]      -3.06627292 [kJ/mol]
      Disp20                       -1.16801899 [mEh]      -0.73294298 [kcal/mol]      -3.06663343 [kJ/mol]
      Exch-Disp20                   0.00013731 [mEh]       0.00008616 [kcal/mol]       0.00036050 [kJ/mol]
      Disp20 (SS)                  -0.58400949 [mEh]      -0.36647149 [kcal/mol]      -1.53331671 [kJ/mol]
      Disp20 (OS)                  -0.58400949 [mEh]      -0.36647149 [kcal/mol]      -1.53331671 [kJ/mol]
      Exch-Disp20 (SS)              0.00010460 [mEh]       0.00006564 [kcal/mol]       0.00027463 [kJ/mol]
      Exch-Disp20 (OS)              0.00003271 [mEh]       0.00002053 [kcal/mol]       0.00008588 [kJ/mol]

  Total HF                         -9.48800490 [mEh]      -5.95381296 [kcal/mol]     -24.91075342 [kJ/mol]
  Total SAPT0                     -10.65588657 [mEh]      -6.68666978 [kcal/mol]     -27.97702635 [kJ/mol]

  Special recipe for scaled SAPT0 (see Manual):
    Electrostatics sSAPT0          -7.22717564 [mEh]      -4.53512119 [kcal/mol]     -18.97494704 [kJ/mol]
    Exchange sSAPT0                -0.00014386 [mEh]      -0.00009028 [kcal/mol]      -0.00037771 [kJ/mol]
    Induction sSAPT0               -2.26068539 [mEh]      -1.41860150 [kcal/mol]      -5.93542867 [kJ/mol]
    Dispersion sSAPT0              -1.16788168 [mEh]      -0.73285682 [kcal/mol]      -3.06627292 [kJ/mol]
  Total sSAPT0                    -10.65588657 [mEh]      -6.68666978 [kcal/mol]     -27.97702635 [kJ/mol]
  --------------------------------------------------------------------------------------------------------

*** tstop() called on d-18-8-4 at Mon Jan 22 22:21:47 2024
Module time:
	user time   =    8807.68 seconds =     146.79 minutes
	system time =    1015.04 seconds =      16.92 minutes
	total time  =       8245 seconds =     137.42 minutes
Total time:
	user time   =   17365.16 seconds =     289.42 minutes
	system time =    1274.66 seconds =      21.24 minutes
	total time  =       9443 seconds =     157.38 minutes

    Psi4 stopped on: Monday, 22 January 2024 10:21PM
    Psi4 wall time for execution: 2:37:24.51

*** Psi4 exiting successfully. Buy a developer a beer!
