
    -----------------------------------------------------------------------
          Psi4: An Open-Source Ab Initio Electronic Structure Package
                               Psi4 1.9 release

                         Git: Rev {} zzzzzzz 


    D. G. A. Smith, L. A. Burns, A. C. Simmonett, R. M. Parrish,
    M. C. Schieber, R. Galvelis, P. Kraus, H. Kruse, R. Di Remigio,
    A. Alenaizan, A. M. James, S. Lehtola, J. P. Misiewicz, M. Scheurer,
    R. A. Shaw, J. B. Schriber, Y. Xie, Z. L. Glick, D. A. Sirianni,
    J. S. O'Brien, J. M. Waldrop, A. Kumar, E. G. Hohenstein,
    B. P. Pritchard, B. R. Brooks, H. F. Schaefer III, A. Yu. Sokolov,
    K. Patkowski, A. E. DePrince III, U. Bozkaya, R. A. King,
    F. A. Evangelista, J. M. Turney, T. D. Crawford, C. D. Sherrill,
    J. Chem. Phys. 152(18) 184108 (2020). https://doi.org/10.1063/5.0006002

                            Additional Code Authors
    E. T. Seidl, C. L. Janssen, E. F. Valeev, M. L. Leininger,
    J. F. Gonthier, R. M. Richard, H. R. McAlexander, M. Saitow, X. Wang,
    P. Verma, M. H. Lechner, A. Jiang, S. Behnle, A. G. Heide,
    M. F. Herbst, and D. L. Poole

             Previous Authors, Complete List of Code Contributors,
                       and Citations for Specific Modules
    https://github.com/psi4/psi4/blob/master/codemeta.json
    https://github.com/psi4/psi4/graphs/contributors
    http://psicode.org/psi4manual/master/introduction.html#citing-psifour

    -----------------------------------------------------------------------


    Psi4 started on: Friday, 26 January 2024 11:20PM

    Process ID: 179258
    Host:       n2cn0680.ab2021.local
    PSIDATADIR: /opt/software/pc2/EB-SW/software/PSI4/1.9-foss-2022a/share/psi4
    Memory:     500.0 MiB
    Threads:    16
    
  ==> Input File <==

--------------------------------------------------------------------------
memory 64 GB # how much memory is available ! Depends on the nodes/cores !

molecule dimer {
# monomer A
+1 1    # Charge and multiplicity
C  0.680067 -1.215929 6.408042
C -0.680504 -1.215545 6.406014
N -1.085635  0.102779 6.405016
C  0.000108  0.884180 6.401740
C -2.477365  0.570758 6.355610
N  1.085222  0.102779 6.405016
H  1.385146 -2.033368 6.415870
H -1.385302 -2.033214 6.406204
H -0.000009  1.965269 6.399993
C  2.478117  0.567877 6.421908
H  2.490592  1.658130 6.394563
H  2.967028  0.220701 7.335354
H  3.001428  0.176405 5.546425
H -2.857359  0.490799 5.333539
H -3.082679 -0.042306 7.025694
H -2.518128  1.610706 6.682594
--
# monomer B
0 1     # Charge and multiplicity
C   -3.66844126402057      7.80375217008252      0.00190004133558
C   -4.84759871934653      7.13124183134024     -0.00046653359696
C   -4.89495929917518      5.69633040353158     -0.00103944469517
C   -3.65374067877320      4.98073034095895      0.00662099703436
C   -2.40942512149445      7.11398103667468      0.00209438359570
C   -2.42547734410473      5.68112195090346     -0.00491050527438
C   -1.19474401643570      7.78614419430947      0.00356656413763
C   0.03795902893699      7.09942164575698      0.00139585983271
C   0.03033258741920      5.66948955970466     -0.00408752508301
C   -1.20098450790502      4.96927034791531      0.00488220885047
C   1.27795782581485      7.77285944319479      0.00277170839332
C   2.48535808472416      7.08769688523756      0.00049722048857
C   2.48612868491717      5.65477081024076     -0.00644052849921
C   1.25408291964399      4.95607811366431      0.00518741308898
C   3.75171459140595      7.76391215098033      0.00062407186893
C   4.92356605618520      7.07878077698995     -0.00143240883900
C   4.95560727132542      5.64344746336949     -0.00159282164606
C   3.70680153420475      4.94121020833308      0.00349873852374
H   -3.65852113775815      8.89082741913536      0.00358502958574
H   -1.18921332975660      8.87412108735996      0.00753844057883
H   1.28429423888630      8.86083343548850      0.00693053253426
H   3.75354208679975      8.85103527897216      0.00214659618464
H   5.86995870320703      7.61379483465560     -0.00235777588134
H   -5.78823170750226      7.67630221293400     -0.00202638095293
C   -6.09197395869619      4.99326001364347     -0.00291168518608
C   -6.12866148031747      3.58258016879823     -0.00171050815740
C   -3.66457974004527      3.56418217974434     -0.00463560277484
C   -4.89429820469869      2.86108077590057      0.00453338221034
C   -2.43733499489796      2.84761165708481      0.00719617576166
C   -1.20922785759670      3.54788693497833     -0.00648285103018
C   1.24714157216223      3.53468075142962     -0.00729145743546
C   0.01517603956900      2.83311183930540      0.00439272578912
C   2.46764517244071      2.82128997725533      0.00449278391269
C   3.70254947457969      3.52466015442405     -0.00899517692985
C   6.14498038638375      4.92757236613191     -0.00282626685777
C   6.16658835886151      3.51658447594213     -0.00065971342101
C   4.92460995845939      2.80840792535402      0.00587903281610
H   7.08990550964105      5.46688776622306     -0.00658814770723
H   -7.03104175110130      5.54268795285765     -0.00714490013730
C   -7.33969804112295      2.85841153457957     -0.00333767559888
C   -7.36488195805880      1.47032337158330     -0.00157213747140
C   -4.90350460894690      1.44442681216000     -0.00628840166334
C   -6.13225715261081      0.73993935705394      0.00600164231964
C   -3.67687480051673      0.72669714267312      0.00433931473643
C   -2.44565658606518      1.42964113326212     -0.00597039546461
C   -1.22360068130162      0.71532450163492      0.00545886906656
C   0.00763786931376      1.41738314923765      0.00392452278437
C   1.23121980774686      0.70211669058719     -0.01490206287210
C   2.46082110053113      1.40329203612573      0.00460244601878
C   3.68443025419614      0.68719842821222      0.00377365974158
C   4.91870890153864      1.39173456118907     -0.00862816189375
C   7.36980207796101      2.77948220318441     -0.00242013321349
C   7.38016266612146      1.39121750785509     -0.00087345036788
C   6.13979953912259      0.67411862320065      0.00545489144369
H   -8.27919079934664      3.40711804112415     -0.00763522772059
H   8.31511347147953      3.31811809662368     -0.00663070901292
C   -8.59175593758115      0.72483255304480     -0.00123170985383
C   -8.59902460370342     -0.63263980622873      0.00089141472904
C   -6.13981313911873     -0.67413663715361     -0.00609792660607
C   -7.38018411213749     -1.39126618958160      0.00131813493501
C   -4.91868448025621     -1.39175501803000      0.00624257154343
C   -3.68443829568458     -0.68723731573599     -0.00478966852105
C   -2.46081704024768     -1.40334517882457      0.00575341766833
C   -1.23116201232071     -0.70217386488055     -0.00636696112346
C   -0.00756962538737     -1.41741884941102      0.00108956317991
C   1.22364771588843     -0.71527537726392      0.01109518512883
C   2.44567064933149     -1.42964328900682     -0.00065482763106
C   3.67686670284649     -0.72670743155550     -0.00479541202602
C   6.13224884641929     -0.73997883984993     -0.00632338623858
C   4.90351914550401     -1.44445752054090      0.00751768830159
C   8.59901484869081      0.63260386666793     -0.00101133422380
C   8.59174548810050     -0.72485086719319      0.00072504603735
C   7.36486276438985     -1.47033266560598      0.00049486934466
H   -9.52830597181814      1.27684744919284     -0.00270163681798
H   9.54141097460619      1.17457248844457     -0.00206336648518
C   -7.36983790976868     -2.77954514593389      0.00312634335708
C   -4.92459910905015     -2.80843725734101     -0.00460528907921
C   -6.16662249566744     -3.51665219282533      0.00169655107992
C   -3.70251035970491     -3.52468154912026      0.00571878010666
C   -2.46764698511392     -2.82132596280400     -0.00632585824990
C   -0.01513347410770     -2.83314164539971     -0.00604426974092
C   -1.24712184122656     -3.53473217556300      0.00551968366725
C   1.20924506964357     -3.54791467864352      0.00805871345849
C   2.43733602215464     -2.84764173817541     -0.00608104485234
C   4.89430234377080     -2.86112296828604     -0.00526030478103
C   3.66461525504104     -3.56421984553201      0.00761911515957
C   6.12863901474565     -3.58258405771778      0.00096495711699
C   7.33967266469532     -2.85841330737039      0.00248018319869
H   -9.54144911125902     -1.17456346666430      0.00226083090216
H   9.52826186807155     -1.27691907390448      0.00197485379837
H   -8.31516504384864     -3.31814985321231      0.00729857188773
H   8.27915514249207     -3.40714078989363      0.00681973918158
C   -6.14499418870218     -4.92764727278338      0.00302254913999
C   -3.70678334799751     -4.94126171411716     -0.00679841894792
C   -4.95559005800169     -5.64349397349412      0.00116871569699
C   -2.48612132622665     -5.65478557440947      0.00614125209662
C   -1.25405833548005     -4.95612205000132     -0.00503435388927
C   1.20101257386816     -4.96928038819302     -0.00385322963129
C   -0.03033667441341     -5.66952030313900      0.00398997003238
C   3.65375010132847     -4.98074377541453     -0.00309522988330
C   2.42549269587528     -5.68117463552727      0.00628170066869
C   6.09196561781097     -4.99325796338655      0.00325918379042
C   4.89497644461045     -5.69634842095790      0.00202298796027
H   -7.08989238804069     -5.46699984223871      0.00742531082125
H   7.03105520920009     -5.54265853633254      0.00683896355417
C   -4.92354532219813     -7.07882109967734      0.00061394679214
C   -2.48534208823777     -7.08772807792913     -0.00189594564379
C   -3.75168589177895     -7.76394715763627     -0.00170126671874
C   -0.03794895698805     -7.09946487446944     -0.00168022049625
C   -1.27795610040136     -7.77290438466689     -0.00366491325785
C   2.40944432072629     -7.11402201200282     -0.00081701968533
C   1.19474993715296     -7.78618536556242     -0.00296931056689
C   4.84762105249800     -7.13126211057943      0.00168979497423
C   3.66847160587561     -7.80378799294376     -0.00065863938960
H   -5.86994035041618     -7.61383059804164      0.00215798365757
H   5.78824962538815     -7.67633218931421      0.00281691445618
H   -3.75352693944918     -8.85107156923607     -0.00353718114765
H   -1.28430440589466     -8.86087539249706     -0.00809229711623
H   1.18922157469537     -8.87416062058945     -0.00706194725726
H   3.65854661482387     -8.89086063405326     -0.00231318081200

    units angstrom      # Angstroms are the default
    no_reorient         # Geometry fixed, default
    symmetry c1         # C1 symmetry, default
}

set {
    scf_type DF         # Density fitting, faster than exact integrals
    freeze_core True    # Freeze core electrons
    basis jun-cc-pVDZ   # Jun-cc-pVDZ basis set, recommended for sSAPT0 in https://doi.org/10.1063/1.4867135
}

energy('ssapt0')        # Compute sSAPT0 energy, includes also SAPT0
--------------------------------------------------------------------------

  Memory set to  59.605 GiB by Python driver.

Scratch directory: /tmp/
   => Loading Basis Set <=

    Name: JUN-CC-PVDZ
    Role: ORBITAL
    Keyword: BASIS
    atoms 1-2, 4-5, 10, 17-34, 41-53, 56-70, 73-89, 92-104, 109-119, 122-130 entry C          line   164 file /opt/software/pc2/EB-SW/software/PSI4/1.9-foss-2022a/share/psi4/basis/jun-cc-pvdz.gbs 
    atoms 3, 6                                                               entry N          line   198 file /opt/software/pc2/EB-SW/software/PSI4/1.9-foss-2022a/share/psi4/basis/jun-cc-pvdz.gbs 
    atoms 7-9, 11-16, 35-40, 54-55, 71-72, 90-91, 105-108, 120-121, 131-136  entry H          line    36 file /opt/software/pc2/EB-SW/software/PSI4/1.9-foss-2022a/share/psi4/basis/jun-cc-pvdz.gbs 

   => Loading Basis Set <=

    Name: JUN-CC-PVDZ
    Role: ORBITAL
    Keyword: BASIS
    atoms 1-2, 4-5, 10, 17-34, 41-53, 56-70, 73-89, 92-104, 109-119, 122-130 entry C          line   164 file /opt/software/pc2/EB-SW/software/PSI4/1.9-foss-2022a/share/psi4/basis/jun-cc-pvdz.gbs 
    atoms 3, 6                                                               entry N          line   198 file /opt/software/pc2/EB-SW/software/PSI4/1.9-foss-2022a/share/psi4/basis/jun-cc-pvdz.gbs 
    atoms 7-9, 11-16, 35-40, 54-55, 71-72, 90-91, 105-108, 120-121, 131-136  entry H          line    36 file /opt/software/pc2/EB-SW/software/PSI4/1.9-foss-2022a/share/psi4/basis/jun-cc-pvdz.gbs 


  //>>>>>>>>>>>>>>>>>>>>>>>>>>>>>>>>>>>//
  //              Dimer HF             //
  //<<<<<<<<<<<<<<<<<<<<<<<<<<<<<<<<<<<//

   => Libint2 <=

    Primary   basis highest AM E, G, H:  5, 4, 3
    Auxiliary basis highest AM E, G, H:  6, 5, 4
    Onebody   basis highest AM E, G, H:  6, 5, 4
    Solid Harmonics ordering:            gaussian

*** tstart() called on n2cn0680.ab2021.local
*** at Fri Jan 26 23:20:41 2024

   => Loading Basis Set <=

    Name: JUN-CC-PVDZ
    Role: ORBITAL
    Keyword: BASIS
    atoms 1-2, 4-5, 10, 17-34, 41-53, 56-70, 73-89, 92-104, 109-119, 122-130 entry C          line   164 file /opt/software/pc2/EB-SW/software/PSI4/1.9-foss-2022a/share/psi4/basis/jun-cc-pvdz.gbs 
    atoms 3, 6                                                               entry N          line   198 file /opt/software/pc2/EB-SW/software/PSI4/1.9-foss-2022a/share/psi4/basis/jun-cc-pvdz.gbs 
    atoms 7-9, 11-16, 35-40, 54-55, 71-72, 90-91, 105-108, 120-121, 131-136  entry H          line    36 file /opt/software/pc2/EB-SW/software/PSI4/1.9-foss-2022a/share/psi4/basis/jun-cc-pvdz.gbs 


         ---------------------------------------------------------
                                   SCF
               by Justin Turney, Rob Parrish, Andy Simmonett
                          and Daniel G. A. Smith
                              RHF Reference
                       16 Threads,  61035 MiB Core
         ---------------------------------------------------------

  ==> Geometry <==

    Molecular point group: c1
    Full point group: C1

    Geometry (in Angstrom), charge = 1, multiplicity = 1:

       Center              X                  Y                   Z               Mass       
    ------------   -----------------  -----------------  -----------------  -----------------
         C            0.680062820275    -1.215917226251     5.920088325208    12.000000000000
         C           -0.680508179725    -1.215533226251     5.918060325208    12.000000000000
         N           -1.085639179725     0.102790773749     5.917062325208    14.003074004430
         C            0.000103820275     0.884191773749     5.913786325208    12.000000000000
         C           -2.477369179725     0.570769773749     5.867656325208    12.000000000000
         N            1.085217820275     0.102790773749     5.917062325208    14.003074004430
         H            1.385141820275    -2.033356226251     5.927916325208     1.007825032230
         H           -1.385306179725    -2.033202226251     5.918250325208     1.007825032230
         H           -0.000013179725     1.965280773749     5.912039325208     1.007825032230
         C            2.478112820275     0.567888773749     5.933954325208    12.000000000000
         H            2.490587820275     1.658141773750     5.906609325208     1.007825032230
         H            2.967023820275     0.220712773749     6.847400325208     1.007825032230
         H            3.001423820275     0.176416773749     5.058471325208     1.007825032230
         H           -2.857363179725     0.490810773749     4.845585325208     1.007825032230
         H           -3.082683179725    -0.042294226251     6.537740325208     1.007825032230
         H           -2.518132179725     1.610717773749     6.194640325208     1.007825032230
         C           -3.668445443746     7.803763943832    -0.486053633456    12.000000000000
         C           -4.847602899072     7.131253605090    -0.488420208389    12.000000000000
         C           -4.894963478901     5.696342177281    -0.488993119487    12.000000000000
         C           -3.653744858499     4.980742114708    -0.481332677758    12.000000000000
         C           -2.409429301220     7.113992810424    -0.485859291196    12.000000000000
         C           -2.425481523830     5.681133724653    -0.492864180066    12.000000000000
         C           -1.194748196161     7.786155968059    -0.484387110654    12.000000000000
         C            0.037954849212     7.099433419506    -0.486557814959    12.000000000000
         C            0.030328407694     5.669501333454    -0.492041199875    12.000000000000
         C           -1.200988687630     4.969282121665    -0.483071465941    12.000000000000
         C            1.277953646089     7.772871216944    -0.485181966399    12.000000000000
         C            2.485353904999     7.087708658987    -0.487456454303    12.000000000000
         C            2.486124505192     5.654782583990    -0.494394203291    12.000000000000
         C            1.254078739919     4.956089887414    -0.482766261703    12.000000000000
         C            3.751710411681     7.763923924730    -0.487329602923    12.000000000000
         C            4.923561876460     7.078792550739    -0.489386083631    12.000000000000
         C            4.955603091600     5.643459237119    -0.489546496438    12.000000000000
         C            3.706797354479     4.941221982083    -0.484454936268    12.000000000000
         H           -3.658525317484     8.890839192885    -0.484368645206     1.007825032230
         H           -1.189217509482     8.874132861109    -0.480415234213     1.007825032230
         H            1.284290059161     8.860845209238    -0.481023142258     1.007825032230
         H            3.753537907074     8.851047052722    -0.485807078607     1.007825032230
         H            5.869954523482     7.613806608405    -0.490311450673     1.007825032230
         H           -5.788235887228     7.676313986684    -0.489980055745     1.007825032230
         C           -6.091978138422     4.993271787393    -0.490865359978    12.000000000000
         C           -6.128665660043     3.582591942548    -0.489664182949    12.000000000000
         C           -3.664583919771     3.564193953494    -0.492589277567    12.000000000000
         C           -4.894302384424     2.861092549650    -0.483420292582    12.000000000000
         C           -2.437339174623     2.847623430834    -0.480757499030    12.000000000000
         C           -1.209232037322     3.547898708728    -0.494436525822    12.000000000000
         C            1.247137392437     3.534692525179    -0.495245132227    12.000000000000
         C            0.015171859844     2.833123613055    -0.483560949003    12.000000000000
         C            2.467640992715     2.821301751005    -0.483460890879    12.000000000000
         C            3.702545294854     3.524671928174    -0.496948851722    12.000000000000
         C            6.144976206658     4.927584139881    -0.490779941650    12.000000000000
         C            6.166584179136     3.516596249692    -0.488613388213    12.000000000000
         C            4.924605778734     2.808419699104    -0.482074641976    12.000000000000
         H            7.089901329916     5.466899539973    -0.494541822499     1.007825032230
         H           -7.031045930827     5.542699726607    -0.495098574929     1.007825032230
         C           -7.339702220848     2.858423308329    -0.491291350391    12.000000000000
         C           -7.364886137784     1.470335145333    -0.489525812263    12.000000000000
         C           -4.903508788672     1.444438585909    -0.494242076455    12.000000000000
         C           -6.132261332336     0.739951130803    -0.481952032472    12.000000000000
         C           -3.676878980242     0.726708916423    -0.483614360055    12.000000000000
         C           -2.445660765791     1.429652907012    -0.493924070256    12.000000000000
         C           -1.223604861027     0.715336275384    -0.482494805725    12.000000000000
         C            0.007633689588     1.417394922987    -0.484029152008    12.000000000000
         C            1.231215628021     0.702128464337    -0.502855737664    12.000000000000
         C            2.460816920806     1.403303809875    -0.483351228773    12.000000000000
         C            3.684426074471     0.687210201962    -0.484180015050    12.000000000000
         C            4.918704721813     1.391746334939    -0.496581836686    12.000000000000
         C            7.369797898236     2.779493976934    -0.490373808005    12.000000000000
         C            7.380158486396     1.391229281605    -0.488827125160    12.000000000000
         C            6.139795359397     0.674130396950    -0.482498783348    12.000000000000
         H           -8.279194979072     3.407129814874    -0.495588902512     1.007825032230
         H            8.315109291754     3.318129870373    -0.494584383805     1.007825032230
         C           -8.591760117307     0.724844326794    -0.489185384646    12.000000000000
         C           -8.599028783429    -0.632628032479    -0.487062260063    12.000000000000
         C           -6.139817318844    -0.674124863404    -0.494051601398    12.000000000000
         C           -7.380188291863    -1.391254415832    -0.486635539857    12.000000000000
         C           -4.918688659982    -1.391743244281    -0.481711103248    12.000000000000
         C           -3.684442475410    -0.687225541986    -0.492743343313    12.000000000000
         C           -2.460821219973    -1.403333405075    -0.482200257124    12.000000000000
         C           -1.231166192046    -0.702162091131    -0.494320635915    12.000000000000
         C           -0.007573805113    -1.417407075662    -0.486864111612    12.000000000000
         C            1.223643536163    -0.715263603514    -0.476858489663    12.000000000000
         C            2.445666469606    -1.429631515257    -0.488608502423    12.000000000000
         C            3.676862523121    -0.726695657806    -0.492749086818    12.000000000000
         C            6.132244666694    -0.739967066100    -0.494277061030    12.000000000000
         C            4.903514965779    -1.444445746791    -0.480435986490    12.000000000000
         C            8.599010668965     0.632615640417    -0.488965009016    12.000000000000
         C            8.591741308375    -0.724839093444    -0.487228628755    12.000000000000
         C            7.364858584664    -1.470320891856    -0.487458805447    12.000000000000
         H           -9.528310151544     1.276859222942    -0.490655311610     1.007825032230
         H            9.541406794881     1.174584262194    -0.490017041277     1.007825032230
         C           -7.369842089494    -2.779533372184    -0.484827331435    12.000000000000
         C           -4.924603288776    -2.808425483592    -0.492558963871    12.000000000000
         C           -6.166626675393    -3.516640419076    -0.486257123712    12.000000000000
         C           -3.702514539430    -3.524669775371    -0.482234894685    12.000000000000
         C           -2.467651164839    -2.821314189055    -0.494279533042    12.000000000000
         C           -0.015137653833    -2.833129871650    -0.493997944533    12.000000000000
         C           -1.247126020952    -3.534720401814    -0.482433991125    12.000000000000
         C            1.209240889918    -3.547902904894    -0.479894961333    12.000000000000
         C            2.437331842429    -2.847629964426    -0.494034719644    12.000000000000
         C            4.894298164045    -2.861111194537    -0.493213979573    12.000000000000
         C            3.664611075316    -3.564208071783    -0.480334559632    12.000000000000
         C            6.128634835020    -3.582572283968    -0.486988717675    12.000000000000
         C            7.339668484970    -2.858401533621    -0.485473491593    12.000000000000
         H           -9.541453290984    -1.174551692915    -0.485692843890     1.007825032230
         H            9.528257688346    -1.276907300155    -0.485978820994     1.007825032230
         H           -8.315169223574    -3.318138079463    -0.480655102904     1.007825032230
         H            8.279150962767    -3.407129016144    -0.481133935610     1.007825032230
         C           -6.144998368428    -4.927635499034    -0.484931125652    12.000000000000
         C           -3.706787527723    -4.941249940368    -0.494752093740    12.000000000000
         C           -4.955594237727    -5.643482199745    -0.486784959095    12.000000000000
         C           -2.486125505952    -5.654773800660    -0.481812422695    12.000000000000
         C           -1.254062515205    -4.956110276252    -0.492988028681    12.000000000000
         C            1.201008394143    -4.969268614444    -0.491806904423    12.000000000000
         C           -0.030340854139    -5.669508529390    -0.483963704760    12.000000000000
         C            3.653745921603    -4.980732001665    -0.491048904675    12.000000000000
         C            2.425488516150    -5.681162861778    -0.481671974123    12.000000000000
         C            6.091961438086    -4.993246189637    -0.484694491001    12.000000000000
         C            4.894972264885    -5.696336647208    -0.485930686832    12.000000000000
         H           -7.089896567766    -5.466988068489    -0.480528363971     1.007825032230
         H            7.031051029475    -5.542646762583    -0.481114711238     1.007825032230
         C           -4.923549501924    -7.078809325928    -0.487339728000    12.000000000000
         C           -2.485346267963    -7.087716304180    -0.489849620436    12.000000000000
         C           -3.751690071504    -7.763935383887    -0.489654941511    12.000000000000
         C           -0.037953136713    -7.099453100720    -0.489633895288    12.000000000000
         C           -1.277960280127    -7.772892610917    -0.491618588050    12.000000000000
         C            2.409440141001    -7.114010238253    -0.488770694477    12.000000000000
         C            1.194745757428    -7.786173591813    -0.490922985359    12.000000000000
         C            4.847616872773    -7.131250336830    -0.486263879818    12.000000000000
         C            3.668467426150    -7.803776219194    -0.488612314181    12.000000000000
         H           -5.869944530142    -7.613818824292    -0.485795691134     1.007825032230
         H            5.788245445663    -7.676320415565    -0.485136760336     1.007825032230
         H           -3.753531119175    -8.851059795487    -0.491490855940     1.007825032230
         H           -1.284308585620    -8.860863618748    -0.496045971908     1.007825032230
         H            1.189217394970    -8.874148846840    -0.495015622049     1.007825032230
         H            3.658542435098    -8.890848860304    -0.490266855604     1.007825032230

  Running in c1 symmetry.

  Rotational constants: A =      0.00061  B =      0.00061  C =      0.00035 [cm^-1]
  Rotational constants: A =     18.27921  B =     18.16840  C =     10.50436 [MHz]
  Nuclear repulsion = 17816.311942474851094

  Charge       = 1
  Multiplicity = 1
  Electrons    = 652
  Nalpha       = 326
  Nbeta        = 326

  ==> Algorithm <==

  SCF Algorithm Type is DF.
  DIIS enabled.
  MOM disabled.
  Fractional occupation disabled.
  Guess Type is SAD.
  Energy threshold   = 1.00e-08
  Density threshold  = 1.00e-08
  Integral threshold = 1.00e-12

  ==> Primary Basis <==

  Basis Set: JUN-CC-PVDZ
    Blend: JUN-CC-PVDZ
    Number of shells: 923
    Number of basis functions: 2019
    Number of Cartesian functions: 2122
    Spherical Harmonics?: true
    Max angular momentum: 2

   => Loading Basis Set <=

    Name: (JUN-CC-PVDZ AUX)
    Role: JKFIT
    Keyword: DF_BASIS_SCF
    atoms 1-2, 4-5, 10, 17-34, 41-53, 56-70, 73-89, 92-104, 109-119, 122-130 entry C          line   146 file /opt/software/pc2/EB-SW/software/PSI4/1.9-foss-2022a/share/psi4/basis/jun-cc-pvdz-jkfit.gbs 
    atoms 3, 6                                                               entry N          line   202 file /opt/software/pc2/EB-SW/software/PSI4/1.9-foss-2022a/share/psi4/basis/jun-cc-pvdz-jkfit.gbs 
    atoms 7-9, 11-16, 35-40, 54-55, 71-72, 90-91, 105-108, 120-121, 131-136  entry H          line    70 file /opt/software/pc2/EB-SW/software/PSI4/1.9-foss-2022a/share/psi4/basis/jun-cc-pvdz-jkfit.gbs 

  ==> Integral Setup <==

  ==> DiskDFJK: Density-Fitted J/K Matrices <==

    J tasked:                  Yes
    K tasked:                  Yes
    wK tasked:                  No
    OpenMP threads:             16
    Integrals threads:          16
    Memory [MiB]:            45776
    Algorithm:                Disk
    Integral Cache:           SAVE
    Schwarz Cutoff:          1E-12
    Fitting Condition:       1E-10

   => Auxiliary Basis Set <=

  Basis Set: (JUN-CC-PVDZ AUX)
    Blend: JUN-CC-PVDZ-JKFIT
    Number of shells: 3078
    Number of basis functions: 8896
    Number of Cartesian functions: 10198
    Spherical Harmonics?: true
    Max angular momentum: 3

  Minimum eigenvalue in the overlap matrix is 8.9980761471E-11.
  Reciprocal condition number of the overlap matrix is 3.9408957814E-12.
    Using canonical orthogonalization.
  Overall, 38 of 2019 possible MOs eliminated.


  ==> Pre-Iterations <==

  SCF Guess: Superposition of Atomic Densities via on-the-fly atomic UHF (no occupation information).

   -------------------------
    Irrep   Nso     Nmo    
   -------------------------
     A       2019    1981 
   -------------------------
    Total    2019    1981
   -------------------------

  ==> Iterations <==

                           Total Energy        Delta E     RMS |[F,P]|

   @DF-RHF iter SAD: -3967.13467416111598   -3.96713e+03   0.00000e+00 
   @DF-RHF iter   1: -3952.10310811316231    1.50316e+01   7.16066e-04 ADIIS/DIIS
   @DF-RHF iter   2: -3953.49561687713640   -1.39251e+00   2.34056e-04 ADIIS/DIIS
   @DF-RHF iter   3: -3953.62015756475648   -1.24541e-01   1.00094e-04 ADIIS/DIIS
   @DF-RHF iter   4: -3953.64264223800910   -2.24847e-02   4.10572e-05 DIIS
   @DF-RHF iter   5: -3953.64688962713853   -4.24739e-03   1.03297e-05 DIIS
   @DF-RHF iter   6: -3953.64732379279803   -4.34166e-04   4.58921e-06 DIIS
   @DF-RHF iter   7: -3953.64750603064795   -1.82238e-04   2.20789e-06 DIIS
   @DF-RHF iter   8: -3953.64756719328761   -6.11626e-05   1.11531e-06 DIIS
   @DF-RHF iter   9: -3953.64758471726918   -1.75240e-05   3.58059e-07 DIIS
   @DF-RHF iter  10: -3953.64758591989721   -1.20263e-06   1.44350e-07 DIIS
   @DF-RHF iter  11: -3953.64758606968462   -1.49787e-07   6.03629e-08 DIIS
   @DF-RHF iter  12: -3953.64758610257968   -3.28951e-08   2.97668e-08 DIIS
   @DF-RHF iter  13: -3953.64758610983017   -7.25049e-09   1.02555e-08 DIIS
   @DF-RHF iter  14: -3953.64758611086518   -1.03500e-09   4.96166e-09 DIIS
  Energy and wave function converged.


  ==> Post-Iterations <==

    Orbital Energies [Eh]
    ---------------------

    Doubly Occupied:                                                      

       1A    -15.818510     2A    -15.817981     3A    -11.513455  
       4A    -11.443806     5A    -11.442252     6A    -11.433965  
       7A    -11.433674     8A    -11.322307     9A    -11.321862  
      10A    -11.321768    11A    -11.321167    12A    -11.321117  
      13A    -11.320823    14A    -11.320767    15A    -11.320639  
      16A    -11.320438    17A    -11.320172    18A    -11.320136  
      19A    -11.319882    20A    -11.319768    21A    -11.319624  
      22A    -11.319603    23A    -11.319454    24A    -11.319241  
      25A    -11.319044    26A    -11.318901    27A    -11.318756  
      28A    -11.318684    29A    -11.318624    30A    -11.318295  
      31A    -11.318129    32A    -11.317276    33A    -11.317227  
      34A    -11.317159    35A    -11.317091    36A    -11.317042  
      37A    -11.316963    38A    -11.316933    39A    -11.316896  
      40A    -11.316578    41A    -11.316558    42A    -11.316468  
      43A    -11.316301    44A    -11.315639    45A    -11.315586  
      46A    -11.315556    47A    -11.315261    48A    -11.315225  
      49A    -11.315172    50A    -11.315135    51A    -11.315111  
      52A    -11.315059    53A    -11.314877    54A    -11.314630  
      55A    -11.314593    56A    -11.314584    57A    -11.314570  
      58A    -11.314558    59A    -11.314511    60A    -11.314189  
      61A    -11.314140    62A    -11.314133    63A    -11.314027  
      64A    -11.314022    65A    -11.314004    66A    -11.313994  
      67A    -11.313956    68A    -11.313906    69A    -11.313836  
      70A    -11.313803    71A    -11.313558    72A    -11.313523  
      73A    -11.313488    74A    -11.313438    75A    -11.313432  
      76A    -11.313423    77A    -11.313395    78A    -11.312940  
      79A    -11.312929    80A    -11.306780    81A    -11.306742  
      82A    -11.306705    83A    -11.306697    84A    -11.306655  
      85A    -11.306642    86A    -11.306614    87A    -11.306593  
      88A    -11.306275    89A    -11.306254    90A    -11.306110  
      91A    -11.306031    92A    -11.305549    93A    -11.305521  
      94A    -11.305503    95A    -11.305459    96A    -11.304899  
      97A    -11.304891    98A    -11.304081    99A    -11.304053  
     100A    -11.304032   101A    -11.303989   102A    -11.303430  
     103A    -11.303422   104A     -1.562011   105A     -1.417659  
     106A     -1.311085   107A     -1.294891   108A     -1.294719  
     109A     -1.275425   110A     -1.275404   111A     -1.271319  
     112A     -1.255223   113A     -1.250192   114A     -1.243813  
     115A     -1.243668   116A     -1.227710   117A     -1.227701  
     118A     -1.222540   119A     -1.210951   120A     -1.210942  
     121A     -1.208126   122A     -1.198401   123A     -1.198394  
     124A     -1.183182   125A     -1.173295   126A     -1.169957  
     127A     -1.167763   128A     -1.167656   129A     -1.166727  
     130A     -1.165092   131A     -1.142911   132A     -1.142865  
     133A     -1.130419   134A     -1.130406   135A     -1.122516  
     136A     -1.122478   137A     -1.120137   138A     -1.102970  
     139A     -1.100985   140A     -1.100974   141A     -1.094642  
     142A     -1.092184   143A     -1.092152   144A     -1.080576  
     145A     -1.077367   146A     -1.077327   147A     -1.061611  
     148A     -1.060919   149A     -1.057875   150A     -1.055253  
     151A     -1.055234   152A     -1.044168   153A     -1.025492  
     154A     -1.025477   155A     -1.009561   156A     -1.009551  
     157A     -1.006451   158A     -0.980903   159A     -0.961297  
     160A     -0.961212   161A     -0.960345   162A     -0.958551  
     163A     -0.958498   164A     -0.948093   165A     -0.947998  
     166A     -0.945504   167A     -0.945404   168A     -0.944267  
     169A     -0.925616   170A     -0.921448   171A     -0.905337  
     172A     -0.902855   173A     -0.902748   174A     -0.901099  
     175A     -0.900586   176A     -0.897698   177A     -0.888569  
     178A     -0.888544   179A     -0.881118   180A     -0.881107  
     181A     -0.839398   182A     -0.839282   183A     -0.836934  
     184A     -0.836927   185A     -0.836901   186A     -0.836459  
     187A     -0.836433   188A     -0.834309   189A     -0.821364  
     190A     -0.816123   191A     -0.805128   192A     -0.800344  
     193A     -0.797143   194A     -0.786680   195A     -0.781313  
     196A     -0.781201   197A     -0.779292   198A     -0.778782  
     199A     -0.778707   200A     -0.774145   201A     -0.773385  
     202A     -0.770209   203A     -0.768482   204A     -0.768436  
     205A     -0.765840   206A     -0.753099   207A     -0.753078  
     208A     -0.740870   209A     -0.739557   210A     -0.739531  
     211A     -0.736078   212A     -0.736068   213A     -0.732801  
     214A     -0.713978   215A     -0.710102   216A     -0.706932  
     217A     -0.704598   218A     -0.704564   219A     -0.704448  
     220A     -0.704415   221A     -0.703026   222A     -0.701062  
     223A     -0.695463   224A     -0.695405   225A     -0.693832  
     226A     -0.692737   227A     -0.690262   228A     -0.690228  
     229A     -0.683124   230A     -0.675293   231A     -0.668370  
     232A     -0.668334   233A     -0.662630   234A     -0.662602  
     235A     -0.655254   236A     -0.655032   237A     -0.653258  
     238A     -0.653207   239A     -0.653050   240A     -0.652546  
     241A     -0.648977   242A     -0.648744   243A     -0.648712  
     244A     -0.648375   245A     -0.645541   246A     -0.645512  
     247A     -0.642511   248A     -0.630719   249A     -0.630688  
     250A     -0.630290   251A     -0.630242   252A     -0.626991  
     253A     -0.625695   254A     -0.622895   255A     -0.622880  
     256A     -0.620264   257A     -0.620189   258A     -0.613288  
     259A     -0.612962   260A     -0.612863   261A     -0.611230  
     262A     -0.608391   263A     -0.604675   264A     -0.599569  
     265A     -0.598852   266A     -0.590901   267A     -0.590716  
     268A     -0.587163   269A     -0.587101   270A     -0.582693  
     271A     -0.581503   272A     -0.581485   273A     -0.580133  
     274A     -0.571106   275A     -0.570979   276A     -0.569158  
     277A     -0.569150   278A     -0.562776   279A     -0.562767  
     280A     -0.551948   281A     -0.550526   282A     -0.550452  
     283A     -0.549231   284A     -0.549210   285A     -0.545066  
     286A     -0.534544   287A     -0.530877   288A     -0.530870  
     289A     -0.527541   290A     -0.524206   291A     -0.520668  
     292A     -0.520630   293A     -0.513425   294A     -0.507620  
     295A     -0.502138   296A     -0.502021   297A     -0.496397  
     298A     -0.496258   299A     -0.496076   300A     -0.487849  
     301A     -0.487200   302A     -0.461884   303A     -0.461842  
     304A     -0.441630   305A     -0.441584   306A     -0.439187  
     307A     -0.438814   308A     -0.438799   309A     -0.408598  
     310A     -0.408584   311A     -0.404977   312A     -0.394724  
     313A     -0.392530   314A     -0.392487   315A     -0.385851  
     316A     -0.385758   317A     -0.362610   318A     -0.357288  
     319A     -0.357267   320A     -0.354686   321A     -0.340090  
     322A     -0.308782   323A     -0.308633   324A     -0.308606  
     325A     -0.258268   326A     -0.258251  

    Virtual:                                                              

     327A     -0.065520   328A     -0.065344   329A     -0.054839  
     330A     -0.049512   331A     -0.041807   332A     -0.036140  
     333A     -0.019995   334A     -0.019875   335A     -0.018356  
     336A     -0.017186   337A     -0.014308   338A     -0.012537  
     339A     -0.011523   340A     -0.001287   341A      0.000122  
     342A      0.000625   343A      0.004159   344A      0.004321  
     345A      0.004384   346A      0.008264   347A      0.010212  
     348A      0.010371   349A      0.011497   350A      0.012143  
     351A      0.014467   352A      0.014889   353A      0.015183  
     354A      0.015289   355A      0.018887   356A      0.018956  
     357A      0.019732   358A      0.024967   359A      0.025048  
     360A      0.026657   361A      0.027637   362A      0.029961  
     363A      0.030249   364A      0.030310   365A      0.030363  
     366A      0.030778   367A      0.035291   368A      0.036690  
     369A      0.039744   370A      0.040192   371A      0.040471  
     372A      0.041397   373A      0.042889   374A      0.045283  
     375A      0.047288   376A      0.052460   377A      0.052542  
     378A      0.053195   379A      0.054667   380A      0.055065  
     381A      0.056871   382A      0.057440   383A      0.057620  
     384A      0.059373   385A      0.059844   386A      0.060068  
     387A      0.061799   388A      0.061882   389A      0.061961  
     390A      0.062887   391A      0.063853   392A      0.068401  
     393A      0.070565   394A      0.072095   395A      0.072389  
     396A      0.074529   397A      0.074864   398A      0.076369  
     399A      0.078609   400A      0.080351   401A      0.082011  
     402A      0.082357   403A      0.084880   404A      0.085340  
     405A      0.086369   406A      0.087967   407A      0.089695  
     408A      0.089882   409A      0.091249   410A      0.092015  
     411A      0.092976   412A      0.094654   413A      0.096455  
     414A      0.098468   415A      0.099917   416A      0.101480  
     417A      0.102530   418A      0.102918   419A      0.103389  
     420A      0.103815   421A      0.107239   422A      0.109643  
     423A      0.110975   424A      0.111400   425A      0.112518  
     426A      0.112768   427A      0.113598   428A      0.114403  
     429A      0.115684   430A      0.117307   431A      0.118277  
     432A      0.118958   433A      0.119700   434A      0.120723  
     435A      0.121651   436A      0.125098   437A      0.125888  
     438A      0.126127   439A      0.126752   440A      0.130050  
     441A      0.131583   442A      0.131947   443A      0.132925  
     444A      0.136437   445A      0.139448   446A      0.140140  
     447A      0.141023   448A      0.141192   449A      0.142980  
     450A      0.143369   451A      0.146185   452A      0.147206  
     453A      0.148699   454A      0.149686   455A      0.151351  
     456A      0.152558   457A      0.152652   458A      0.153088  
     459A      0.153955   460A      0.155406   461A      0.157026  
     462A      0.157282   463A      0.157475   464A      0.157852  
     465A      0.158281   466A      0.158625   467A      0.159607  
     468A      0.160526   469A      0.161404   470A      0.162451  
     471A      0.162969   472A      0.164287   473A      0.165310  
     474A      0.166796   475A      0.168111   476A      0.168328  
     477A      0.169067   478A      0.169725   479A      0.170875  
     480A      0.171693   481A      0.172606   482A      0.173721  
     483A      0.175000   484A      0.175623   485A      0.175763  
     486A      0.177407   487A      0.179868   488A      0.180093  
     489A      0.180305   490A      0.181547   491A      0.182835  
     492A      0.183914   493A      0.186536   494A      0.187088  
     495A      0.187800   496A      0.189135   497A      0.190515  
     498A      0.190707   499A      0.192173   500A      0.192601  
     501A      0.192978   502A      0.193372   503A      0.194611  
     504A      0.197389   505A      0.197550   506A      0.198963  
     507A      0.199763   508A      0.200768   509A      0.201409  
     510A      0.204384   511A      0.205385   512A      0.208708  
     513A      0.209766   514A      0.209855   515A      0.210013  
     516A      0.212404   517A      0.213105   518A      0.213655  
     519A      0.214541   520A      0.215554   521A      0.216173  
     522A      0.216526   523A      0.217970   524A      0.218229  
     525A      0.219400   526A      0.220248   527A      0.221658  
     528A      0.222147   529A      0.222653   530A      0.225316  
     531A      0.225678   532A      0.226285   533A      0.228345  
     534A      0.228825   535A      0.228946   536A      0.230458  
     537A      0.234156   538A      0.234325   539A      0.235104  
     540A      0.235716   541A      0.236353   542A      0.236620  
     543A      0.237674   544A      0.239650   545A      0.241566  
     546A      0.242100   547A      0.242581   548A      0.243101  
     549A      0.244477   550A      0.245369   551A      0.246715  
     552A      0.248511   553A      0.251338   554A      0.252761  
     555A      0.253966   556A      0.254947   557A      0.255300  
     558A      0.255563   559A      0.256298   560A      0.257215  
     561A      0.257805   562A      0.260405   563A      0.261623  
     564A      0.262531   565A      0.262897   566A      0.263363  
     567A      0.264377   568A      0.265358   569A      0.266466  
     570A      0.267548   571A      0.268294   572A      0.269180  
     573A      0.269356   574A      0.269818   575A      0.270518  
     576A      0.271904   577A      0.273004   578A      0.273746  
     579A      0.274958   580A      0.275848   581A      0.278013  
     582A      0.278335   583A      0.280050   584A      0.280462  
     585A      0.280836   586A      0.281369   587A      0.282841  
     588A      0.283112   589A      0.284174   590A      0.285548  
     591A      0.286737   592A      0.287277   593A      0.289982  
     594A      0.290162   595A      0.290974   596A      0.291851  
     597A      0.292671   598A      0.293353   599A      0.294233  
     600A      0.294775   601A      0.294917   602A      0.296212  
     603A      0.296678   604A      0.297983   605A      0.298079  
     606A      0.298909   607A      0.300814   608A      0.303204  
     609A      0.303267   610A      0.305429   611A      0.307852  
     612A      0.308204   613A      0.309787   614A      0.310929  
     615A      0.311003   616A      0.311594   617A      0.314809  
     618A      0.315668   619A      0.316186   620A      0.316769  
     621A      0.317468   622A      0.317711   623A      0.318019  
     624A      0.318350   625A      0.322121   626A      0.323295  
     627A      0.324579   628A      0.325287   629A      0.327491  
     630A      0.327754   631A      0.328742   632A      0.329381  
     633A      0.330879   634A      0.330886   635A      0.332701  
     636A      0.333893   637A      0.334351   638A      0.335577  
     639A      0.337759   640A      0.338990   641A      0.340532  
     642A      0.342032   643A      0.342407   644A      0.342924  
     645A      0.343196   646A      0.343515   647A      0.344116  
     648A      0.344418   649A      0.344553   650A      0.345400  
     651A      0.346795   652A      0.347870   653A      0.349010  
     654A      0.349457   655A      0.349521   656A      0.351043  
     657A      0.351682   658A      0.352165   659A      0.352426  
     660A      0.353287   661A      0.353517   662A      0.356166  
     663A      0.356878   664A      0.357523   665A      0.357530  
     666A      0.358809   667A      0.359289   668A      0.359965  
     669A      0.360832   670A      0.361829   671A      0.362655  
     672A      0.363444   673A      0.363633   674A      0.365160  
     675A      0.366845   676A      0.367008   677A      0.369740  
     678A      0.369973   679A      0.371963   680A      0.372917  
     681A      0.374236   682A      0.374902   683A      0.375567  
     684A      0.377279   685A      0.377431   686A      0.378354  
     687A      0.379446   688A      0.380324   689A      0.380550  
     690A      0.380876   691A      0.381014   692A      0.382690  
     693A      0.384821   694A      0.385419   695A      0.386517  
     696A      0.387021   697A      0.387783   698A      0.388177  
     699A      0.389229   700A      0.393055   701A      0.398122  
     702A      0.399011   703A      0.399800   704A      0.400180  
     705A      0.400374   706A      0.400881   707A      0.402563  
     708A      0.402966   709A      0.403252   710A      0.403345  
     711A      0.403524   712A      0.405011   713A      0.405299  
     714A      0.407634   715A      0.409610   716A      0.410704  
     717A      0.410942   718A      0.412575   719A      0.413690  
     720A      0.414725   721A      0.415013   722A      0.415722  
     723A      0.416220   724A      0.417169   725A      0.418070  
     726A      0.419256   727A      0.421582   728A      0.422098  
     729A      0.422519   730A      0.422944   731A      0.422959  
     732A      0.423796   733A      0.424679   734A      0.425297  
     735A      0.426994   736A      0.427364   737A      0.429617  
     738A      0.430846   739A      0.432655   740A      0.435301  
     741A      0.436465   742A      0.437165   743A      0.437452  
     744A      0.438971   745A      0.439795   746A      0.441029  
     747A      0.441650   748A      0.442238   749A      0.444487  
     750A      0.444788   751A      0.449357   752A      0.450378  
     753A      0.451316   754A      0.451615   755A      0.452448  
     756A      0.453458   757A      0.454234   758A      0.456142  
     759A      0.456581   760A      0.457589   761A      0.460378  
     762A      0.462445   763A      0.463135   764A      0.463803  
     765A      0.464412   766A      0.465465   767A      0.466292  
     768A      0.466982   769A      0.468163   770A      0.469552  
     771A      0.470613   772A      0.472062   773A      0.473121  
     774A      0.476595   775A      0.477752   776A      0.480228  
     777A      0.480374   778A      0.481286   779A      0.485692  
     780A      0.486972   781A      0.487269   782A      0.488235  
     783A      0.489601   784A      0.491641   785A      0.493258  
     786A      0.493934   787A      0.502676   788A      0.505989  
     789A      0.506450   790A      0.507979   791A      0.509038  
     792A      0.509892   793A      0.510512   794A      0.513458  
     795A      0.514772   796A      0.514946   797A      0.517149  
     798A      0.518098   799A      0.519108   800A      0.520750  
     801A      0.522198   802A      0.522702   803A      0.523940  
     804A      0.524463   805A      0.524883   806A      0.525637  
     807A      0.526113   808A      0.529045   809A      0.531561  
     810A      0.532412   811A      0.534929   812A      0.536468  
     813A      0.536847   814A      0.537908   815A      0.540469  
     816A      0.540945   817A      0.543695   818A      0.544178  
     819A      0.545253   820A      0.549567   821A      0.550489  
     822A      0.551393   823A      0.552197   824A      0.553282  
     825A      0.558811   826A      0.563556   827A      0.565733  
     828A      0.566385   829A      0.567256   830A      0.567587  
     831A      0.574568   832A      0.576297   833A      0.577321  
     834A      0.578145   835A      0.582249   836A      0.585847  
     837A      0.587395   838A      0.587991   839A      0.593099  
     840A      0.600959   841A      0.601457   842A      0.601882  
     843A      0.605532   844A      0.605760   845A      0.606637  
     846A      0.606869   847A      0.607988   848A      0.612461  
     849A      0.614309   850A      0.615087   851A      0.618917  
     852A      0.626506   853A      0.631505   854A      0.631740  
     855A      0.633752   856A      0.633802   857A      0.636149  
     858A      0.636805   859A      0.638121   860A      0.638224  
     861A      0.641900   862A      0.645184   863A      0.645628  
     864A      0.646922   865A      0.647388   866A      0.648846  
     867A      0.652724   868A      0.653288   869A      0.656560  
     870A      0.664311   871A      0.667176   872A      0.668373  
     873A      0.674374   874A      0.677881   875A      0.679531  
     876A      0.680553   877A      0.683767   878A      0.686688  
     879A      0.687437   880A      0.689018   881A      0.689709  
     882A      0.690613   883A      0.691453   884A      0.692425  
     885A      0.696473   886A      0.696995   887A      0.700363  
     888A      0.700847   889A      0.713898   890A      0.717974  
     891A      0.720829   892A      0.723765   893A      0.730344  
     894A      0.730971   895A      0.734760   896A      0.735801  
     897A      0.736091   898A      0.739392   899A      0.741081  
     900A      0.741587   901A      0.746493   902A      0.748000  
     903A      0.749808   904A      0.750733   905A      0.751789  
     906A      0.753892   907A      0.756265   908A      0.757170  
     909A      0.758528   910A      0.760915   911A      0.762862  
     912A      0.764317   913A      0.764874   914A      0.767361  
     915A      0.768953   916A      0.770852   917A      0.771048  
     918A      0.775660   919A      0.776943   920A      0.777538  
     921A      0.781415   922A      0.782282   923A      0.783492  
     924A      0.785687   925A      0.786343   926A      0.788974  
     927A      0.791448   928A      0.792294   929A      0.794848  
     930A      0.795903   931A      0.796344   932A      0.800880  
     933A      0.802327   934A      0.803689   935A      0.804745  
     936A      0.806977   937A      0.808029   938A      0.809165  
     939A      0.810249   940A      0.812345   941A      0.813584  
     942A      0.816370   943A      0.817362   944A      0.817846  
     945A      0.819035   946A      0.821526   947A      0.822698  
     948A      0.823555   949A      0.824771   950A      0.825725  
     951A      0.826318   952A      0.827270   953A      0.828548  
     954A      0.833373   955A      0.834455   956A      0.836814  
     957A      0.837640   958A      0.839131   959A      0.839730  
     960A      0.841848   961A      0.843570   962A      0.844965  
     963A      0.847034   964A      0.848334   965A      0.849612  
     966A      0.853360   967A      0.854514   968A      0.854951  
     969A      0.855513   970A      0.857723   971A      0.858668  
     972A      0.862999   973A      0.864308   974A      0.864799  
     975A      0.866532   976A      0.867883   977A      0.868848  
     978A      0.869513   979A      0.870420   980A      0.870680  
     981A      0.871162   982A      0.874349   983A      0.875510  
     984A      0.877901   985A      0.878123   986A      0.879461  
     987A      0.880688   988A      0.881275   989A      0.882542  
     990A      0.885566   991A      0.886750   992A      0.888287  
     993A      0.891475   994A      0.894064   995A      0.895198  
     996A      0.895767   997A      0.897184   998A      0.898695  
     999A      0.899148  1000A      0.900322  1001A      0.900698  
    1002A      0.901047  1003A      0.903857  1004A      0.904267  
    1005A      0.904421  1006A      0.904933  1007A      0.911484  
    1008A      0.913277  1009A      0.913742  1010A      0.915764  
    1011A      0.916183  1012A      0.917987  1013A      0.920906  
    1014A      0.922986  1015A      0.928614  1016A      0.929946  
    1017A      0.930553  1018A      0.933825  1019A      0.940839  
    1020A      0.940897  1021A      0.941347  1022A      0.941669  
    1023A      0.948026  1024A      0.948467  1025A      0.949758  
    1026A      0.951326  1027A      0.952612  1028A      0.953226  
    1029A      0.953625  1030A      0.956902  1031A      0.959983  
    1032A      0.963001  1033A      0.963594  1034A      0.965629  
    1035A      0.966687  1036A      0.967815  1037A      0.968308  
    1038A      0.969996  1039A      0.970465  1040A      0.976099  
    1041A      0.977533  1042A      0.977764  1043A      0.980449  
    1044A      0.982518  1045A      0.983839  1046A      0.984527  
    1047A      0.986485  1048A      0.991412  1049A      0.991998  
    1050A      0.992301  1051A      0.993975  1052A      0.994238  
    1053A      0.994828  1054A      0.995272  1055A      0.997003  
    1056A      0.998384  1057A      0.999385  1058A      0.999523  
    1059A      1.000486  1060A      1.000977  1061A      1.001808  
    1062A      1.003199  1063A      1.008848  1064A      1.009136  
    1065A      1.010209  1066A      1.011171  1067A      1.012505  
    1068A      1.013591  1069A      1.014684  1070A      1.014854  
    1071A      1.015797  1072A      1.016481  1073A      1.017078  
    1074A      1.017576  1075A      1.017994  1076A      1.018478  
    1077A      1.019476  1078A      1.020223  1079A      1.020521  
    1080A      1.021686  1081A      1.022151  1082A      1.022746  
    1083A      1.023743  1084A      1.024512  1085A      1.025180  
    1086A      1.025395  1087A      1.025883  1088A      1.026043  
    1089A      1.027828  1090A      1.028821  1091A      1.029358  
    1092A      1.030021  1093A      1.030716  1094A      1.030937  
    1095A      1.032317  1096A      1.034614  1097A      1.035767  
    1098A      1.036135  1099A      1.037000  1100A      1.038583  
    1101A      1.039719  1102A      1.040491  1103A      1.043081  
    1104A      1.043557  1105A      1.044223  1106A      1.045504  
    1107A      1.046609  1108A      1.047252  1109A      1.048566  
    1110A      1.049801  1111A      1.050330  1112A      1.050949  
    1113A      1.054915  1114A      1.057222  1115A      1.057491  
    1116A      1.059191  1117A      1.060104  1118A      1.064785  
    1119A      1.066559  1120A      1.067285  1121A      1.070133  
    1122A      1.071400  1123A      1.074660  1124A      1.075644  
    1125A      1.077551  1126A      1.078385  1127A      1.080357  
    1128A      1.080505  1129A      1.080856  1130A      1.083575  
    1131A      1.084265  1132A      1.084755  1133A      1.087660  
    1134A      1.090131  1135A      1.090589  1136A      1.091721  
    1137A      1.092676  1138A      1.094272  1139A      1.096033  
    1140A      1.097389  1141A      1.097893  1142A      1.101995  
    1143A      1.103634  1144A      1.103664  1145A      1.105677  
    1146A      1.109507  1147A      1.109812  1148A      1.113958  
    1149A      1.115766  1150A      1.116662  1151A      1.121335  
    1152A      1.122183  1153A      1.125993  1154A      1.127747  
    1155A      1.130207  1156A      1.132579  1157A      1.133980  
    1158A      1.135040  1159A      1.138625  1160A      1.138957  
    1161A      1.139828  1162A      1.145905  1163A      1.148324  
    1164A      1.148950  1165A      1.149039  1166A      1.151344  
    1167A      1.151850  1168A      1.152799  1169A      1.157339  
    1170A      1.157776  1171A      1.159498  1172A      1.161891  
    1173A      1.163133  1174A      1.164008  1175A      1.165511  
    1176A      1.168349  1177A      1.171250  1178A      1.171884  
    1179A      1.172963  1180A      1.174464  1181A      1.176498  
    1182A      1.180129  1183A      1.181344  1184A      1.182116  
    1185A      1.193564  1186A      1.193788  1187A      1.195351  
    1188A      1.198953  1189A      1.199745  1190A      1.202535  
    1191A      1.208692  1192A      1.208880  1193A      1.209064  
    1194A      1.210803  1195A      1.217291  1196A      1.218442  
    1197A      1.219315  1198A      1.220829  1199A      1.227552  
    1200A      1.232600  1201A      1.232715  1202A      1.237602  
    1203A      1.237770  1204A      1.237881  1205A      1.241488  
    1206A      1.241615  1207A      1.243013  1208A      1.243966  
    1209A      1.250531  1210A      1.251254  1211A      1.252804  
    1212A      1.253063  1213A      1.254558  1214A      1.260112  
    1215A      1.260740  1216A      1.261499  1217A      1.263849  
    1218A      1.266656  1219A      1.266883  1220A      1.267259  
    1221A      1.267642  1222A      1.269369  1223A      1.273824  
    1224A      1.274171  1225A      1.278375  1226A      1.278850  
    1227A      1.280161  1228A      1.282910  1229A      1.283743  
    1230A      1.286533  1231A      1.286740  1232A      1.289244  
    1233A      1.294446  1234A      1.297222  1235A      1.298451  
    1236A      1.302208  1237A      1.302257  1238A      1.304713  
    1239A      1.305241  1240A      1.308090  1241A      1.310562  
    1242A      1.310758  1243A      1.315497  1244A      1.316295  
    1245A      1.316788  1246A      1.317854  1247A      1.320055  
    1248A      1.321623  1249A      1.324379  1250A      1.330427  
    1251A      1.333851  1252A      1.334330  1253A      1.336844  
    1254A      1.339681  1255A      1.341142  1256A      1.342494  
    1257A      1.342824  1258A      1.347817  1259A      1.350702  
    1260A      1.354118  1261A      1.354290  1262A      1.354609  
    1263A      1.357090  1264A      1.357558  1265A      1.358495  
    1266A      1.359776  1267A      1.361566  1268A      1.366096  
    1269A      1.366636  1270A      1.368676  1271A      1.371116  
    1272A      1.371909  1273A      1.373793  1274A      1.374110  
    1275A      1.375577  1276A      1.377191  1277A      1.378203  
    1278A      1.382975  1279A      1.383157  1280A      1.383447  
    1281A      1.385170  1282A      1.386478  1283A      1.387626  
    1284A      1.388237  1285A      1.392601  1286A      1.393822  
    1287A      1.394292  1288A      1.396685  1289A      1.397091  
    1290A      1.398438  1291A      1.399755  1292A      1.406528  
    1293A      1.411044  1294A      1.413641  1295A      1.415756  
    1296A      1.416955  1297A      1.418141  1298A      1.418690  
    1299A      1.419799  1300A      1.425493  1301A      1.430611  
    1302A      1.430843  1303A      1.431736  1304A      1.437271  
    1305A      1.441735  1306A      1.442505  1307A      1.445617  
    1308A      1.449702  1309A      1.451272  1310A      1.451952  
    1311A      1.453000  1312A      1.463703  1313A      1.464206  
    1314A      1.484125  1315A      1.486764  1316A      1.487233  
    1317A      1.489527  1318A      1.491469  1319A      1.498902  
    1320A      1.498932  1321A      1.501617  1322A      1.523052  
    1323A      1.528926  1324A      1.537851  1325A      1.539376  
    1326A      1.541262  1327A      1.544097  1328A      1.547568  
    1329A      1.549165  1330A      1.550278  1331A      1.551328  
    1332A      1.552963  1333A      1.553644  1334A      1.556381  
    1335A      1.557124  1336A      1.557688  1337A      1.559728  
    1338A      1.560073  1339A      1.560534  1340A      1.561421  
    1341A      1.562167  1342A      1.565111  1343A      1.566809  
    1344A      1.567329  1345A      1.569947  1346A      1.572106  
    1347A      1.573058  1348A      1.573808  1349A      1.575943  
    1350A      1.576169  1351A      1.580674  1352A      1.581330  
    1353A      1.582953  1354A      1.583364  1355A      1.583675  
    1356A      1.584366  1357A      1.584772  1358A      1.585393  
    1359A      1.587146  1360A      1.587894  1361A      1.588610  
    1362A      1.589118  1363A      1.591576  1364A      1.597231  
    1365A      1.598374  1366A      1.598433  1367A      1.602364  
    1368A      1.602640  1369A      1.603146  1370A      1.610383  
    1371A      1.610835  1372A      1.613368  1373A      1.613701  
    1374A      1.614089  1375A      1.614875  1376A      1.614903  
    1377A      1.616420  1378A      1.622698  1379A      1.622971  
    1380A      1.623742  1381A      1.624429  1382A      1.629963  
    1383A      1.633933  1384A      1.635060  1385A      1.638917  
    1386A      1.640943  1387A      1.641791  1388A      1.641971  
    1389A      1.642592  1390A      1.644076  1391A      1.646030  
    1392A      1.655412  1393A      1.655626  1394A      1.655952  
    1395A      1.660357  1396A      1.662198  1397A      1.662283  
    1398A      1.665129  1399A      1.666774  1400A      1.667809  
    1401A      1.667872  1402A      1.670414  1403A      1.671448  
    1404A      1.683643  1405A      1.683963  1406A      1.686989  
    1407A      1.691551  1408A      1.693523  1409A      1.693777  
    1410A      1.694090  1411A      1.696271  1412A      1.697025  
    1413A      1.707477  1414A      1.709208  1415A      1.709543  
    1416A      1.711353  1417A      1.714504  1418A      1.725947  
    1419A      1.733242  1420A      1.733986  1421A      1.734539  
    1422A      1.747608  1423A      1.747811  1424A      1.752432  
    1425A      1.755266  1426A      1.763399  1427A      1.766990  
    1428A      1.767833  1429A      1.770007  1430A      1.772753  
    1431A      1.773840  1432A      1.774322  1433A      1.775778  
    1434A      1.776465  1435A      1.777608  1436A      1.778974  
    1437A      1.779517  1438A      1.782199  1439A      1.782613  
    1440A      1.782756  1441A      1.783078  1442A      1.784356  
    1443A      1.789311  1444A      1.790901  1445A      1.798899  
    1446A      1.803336  1447A      1.803746  1448A      1.806323  
    1449A      1.806558  1450A      1.808688  1451A      1.808900  
    1452A      1.811958  1453A      1.812791  1454A      1.816358  
    1455A      1.817004  1456A      1.820184  1457A      1.820475  
    1458A      1.821975  1459A      1.828038  1460A      1.828850  
    1461A      1.829103  1462A      1.829392  1463A      1.830099  
    1464A      1.830660  1465A      1.830822  1466A      1.831516  
    1467A      1.832369  1468A      1.835020  1469A      1.835490  
    1470A      1.836376  1471A      1.838897  1472A      1.849587  
    1473A      1.849890  1474A      1.852285  1475A      1.852594  
    1476A      1.857362  1477A      1.861231  1478A      1.861588  
    1479A      1.862943  1480A      1.863982  1481A      1.866920  
    1482A      1.867737  1483A      1.868071  1484A      1.870239  
    1485A      1.871293  1486A      1.871637  1487A      1.877620  
    1488A      1.882347  1489A      1.882864  1490A      1.883637  
    1491A      1.885226  1492A      1.885824  1493A      1.886262  
    1494A      1.886710  1495A      1.888145  1496A      1.890332  
    1497A      1.890612  1498A      1.892554  1499A      1.894294  
    1500A      1.897857  1501A      1.899176  1502A      1.901029  
    1503A      1.904545  1504A      1.905266  1505A      1.907058  
    1506A      1.907354  1507A      1.907713  1508A      1.912189  
    1509A      1.914016  1510A      1.914677  1511A      1.916553  
    1512A      1.917036  1513A      1.917535  1514A      1.918995  
    1515A      1.919794  1516A      1.926510  1517A      1.927823  
    1518A      1.931151  1519A      1.935922  1520A      1.938312  
    1521A      1.938669  1522A      1.940031  1523A      1.940444  
    1524A      1.941466  1525A      1.953240  1526A      1.953767  
    1527A      1.956463  1528A      1.957763  1529A      1.958986  
    1530A      1.961991  1531A      1.962630  1532A      1.962952  
    1533A      1.964195  1534A      1.964894  1535A      1.965833  
    1536A      1.966243  1537A      1.967296  1538A      1.968703  
    1539A      1.970571  1540A      1.973728  1541A      1.976656  
    1542A      1.978900  1543A      1.980006  1544A      1.981477  
    1545A      1.985583  1546A      1.987436  1547A      1.988300  
    1548A      1.988758  1549A      1.993209  1550A      1.995686  
    1551A      1.998690  1552A      1.999688  1553A      2.002044  
    1554A      2.002295  1555A      2.004557  1556A      2.005410  
    1557A      2.006129  1558A      2.006903  1559A      2.012703  
    1560A      2.014685  1561A      2.015688  1562A      2.016626  
    1563A      2.021964  1564A      2.024057  1565A      2.025741  
    1566A      2.026474  1567A      2.026995  1568A      2.027306  
    1569A      2.028168  1570A      2.029233  1571A      2.029643  
    1572A      2.030509  1573A      2.032603  1574A      2.034508  
    1575A      2.035351  1576A      2.036029  1577A      2.037197  
    1578A      2.037807  1579A      2.038553  1580A      2.040110  
    1581A      2.040771  1582A      2.043403  1583A      2.043635  
    1584A      2.044411  1585A      2.045343  1586A      2.047853  
    1587A      2.047901  1588A      2.049372  1589A      2.052804  
    1590A      2.056330  1591A      2.057785  1592A      2.058205  
    1593A      2.058712  1594A      2.059420  1595A      2.060627  
    1596A      2.061714  1597A      2.063537  1598A      2.064390  
    1599A      2.066243  1600A      2.072079  1601A      2.073069  
    1602A      2.073478  1603A      2.073841  1604A      2.074072  
    1605A      2.074527  1606A      2.075000  1607A      2.076844  
    1608A      2.081497  1609A      2.081857  1610A      2.082951  
    1611A      2.083089  1612A      2.087921  1613A      2.088389  
    1614A      2.090320  1615A      2.091277  1616A      2.091606  
    1617A      2.093074  1618A      2.100559  1619A      2.100892  
    1620A      2.103044  1621A      2.103360  1622A      2.104601  
    1623A      2.105157  1624A      2.105640  1625A      2.106329  
    1626A      2.109630  1627A      2.110042  1628A      2.110545  
    1629A      2.117655  1630A      2.118465  1631A      2.125915  
    1632A      2.127402  1633A      2.127469  1634A      2.128747  
    1635A      2.134354  1636A      2.134734  1637A      2.135882  
    1638A      2.136078  1639A      2.138667  1640A      2.139388  
    1641A      2.142035  1642A      2.143074  1643A      2.144934  
    1644A      2.145346  1645A      2.147003  1646A      2.147566  
    1647A      2.149547  1648A      2.150754  1649A      2.152299  
    1650A      2.155660  1651A      2.156799  1652A      2.159960  
    1653A      2.160174  1654A      2.162690  1655A      2.165446  
    1656A      2.169247  1657A      2.169585  1658A      2.170129  
    1659A      2.170187  1660A      2.172021  1661A      2.174947  
    1662A      2.178833  1663A      2.179116  1664A      2.180625  
    1665A      2.181345  1666A      2.182549  1667A      2.184018  
    1668A      2.184151  1669A      2.188258  1670A      2.192464  
    1671A      2.194618  1672A      2.195244  1673A      2.196131  
    1674A      2.208705  1675A      2.210361  1676A      2.210968  
    1677A      2.212362  1678A      2.213758  1679A      2.217869  
    1680A      2.219449  1681A      2.220936  1682A      2.229476  
    1683A      2.230677  1684A      2.237434  1685A      2.238416  
    1686A      2.241099  1687A      2.241867  1688A      2.243701  
    1689A      2.250454  1690A      2.250902  1691A      2.255259  
    1692A      2.259891  1693A      2.266993  1694A      2.269546  
    1695A      2.271319  1696A      2.271381  1697A      2.273194  
    1698A      2.275207  1699A      2.277085  1700A      2.277504  
    1701A      2.278208  1702A      2.279513  1703A      2.280721  
    1704A      2.284539  1705A      2.287595  1706A      2.288159  
    1707A      2.288464  1708A      2.290528  1709A      2.291147  
    1710A      2.291828  1711A      2.294005  1712A      2.294415  
    1713A      2.311881  1714A      2.315433  1715A      2.316490  
    1716A      2.316871  1717A      2.330506  1718A      2.333866  
    1719A      2.335191  1720A      2.337152  1721A      2.338184  
    1722A      2.340152  1723A      2.342646  1724A      2.350629  
    1725A      2.364655  1726A      2.365693  1727A      2.369264  
    1728A      2.373822  1729A      2.377230  1730A      2.387926  
    1731A      2.389654  1732A      2.397568  1733A      2.398571  
    1734A      2.410701  1735A      2.410804  1736A      2.414172  
    1737A      2.414351  1738A      2.418481  1739A      2.418786  
    1740A      2.438289  1741A      2.438727  1742A      2.440044  
    1743A      2.448814  1744A      2.453582  1745A      2.454899  
    1746A      2.455532  1747A      2.458409  1748A      2.463605  
    1749A      2.477152  1750A      2.484756  1751A      2.485136  
    1752A      2.486782  1753A      2.488750  1754A      2.489422  
    1755A      2.490535  1756A      2.494058  1757A      2.495216  
    1758A      2.496809  1759A      2.497816  1760A      2.501200  
    1761A      2.501430  1762A      2.510021  1763A      2.516846  
    1764A      2.517415  1765A      2.520268  1766A      2.528089  
    1767A      2.531726  1768A      2.532102  1769A      2.532538  
    1770A      2.533015  1771A      2.536855  1772A      2.537138  
    1773A      2.539574  1774A      2.542182  1775A      2.548123  
    1776A      2.548237  1777A      2.559435  1778A      2.559832  
    1779A      2.560018  1780A      2.560450  1781A      2.563897  
    1782A      2.564502  1783A      2.578839  1784A      2.586541  
    1785A      2.587667  1786A      2.589765  1787A      2.590521  
    1788A      2.591379  1789A      2.594002  1790A      2.594786  
    1791A      2.595229  1792A      2.600465  1793A      2.603019  
    1794A      2.603359  1795A      2.610637  1796A      2.611580  
    1797A      2.615060  1798A      2.617790  1799A      2.618205  
    1800A      2.618726  1801A      2.620799  1802A      2.624482  
    1803A      2.625288  1804A      2.630824  1805A      2.631515  
    1806A      2.633056  1807A      2.637066  1808A      2.637241  
    1809A      2.637725  1810A      2.638534  1811A      2.641909  
    1812A      2.643305  1813A      2.649642  1814A      2.653891  
    1815A      2.667951  1816A      2.676091  1817A      2.677052  
    1818A      2.677969  1819A      2.678819  1820A      2.679391  
    1821A      2.679589  1822A      2.691083  1823A      2.696193  
    1824A      2.698990  1825A      2.704399  1826A      2.705029  
    1827A      2.707384  1828A      2.716870  1829A      2.720083  
    1830A      2.725072  1831A      2.725877  1832A      2.726170  
    1833A      2.743850  1834A      2.744748  1835A      2.746278  
    1836A      2.747150  1837A      2.747307  1838A      2.754241  
    1839A      2.754784  1840A      2.756626  1841A      2.759784  
    1842A      2.760081  1843A      2.761817  1844A      2.762744  
    1845A      2.764642  1846A      2.772591  1847A      2.773019  
    1848A      2.785655  1849A      2.786683  1850A      2.787880  
    1851A      2.788066  1852A      2.791637  1853A      2.802500  
    1854A      2.807154  1855A      2.810502  1856A      2.810843  
    1857A      2.816840  1858A      2.817797  1859A      2.820869  
    1860A      2.839564  1861A      2.840481  1862A      2.858139  
    1863A      2.865360  1864A      2.865673  1865A      2.875179  
    1866A      2.877539  1867A      2.882259  1868A      2.882428  
    1869A      2.910001  1870A      2.912162  1871A      2.912833  
    1872A      2.923347  1873A      2.939196  1874A      2.939740  
    1875A      2.941495  1876A      2.975170  1877A      2.975841  
    1878A      2.982819  1879A      2.986128  1880A      2.992169  
    1881A      2.993804  1882A      2.994266  1883A      2.995841  
    1884A      3.003070  1885A      3.003326  1886A      3.012463  
    1887A      3.018886  1888A      3.056194  1889A      3.059775  
    1890A      3.060427  1891A      3.060736  1892A      3.068911  
    1893A      3.073105  1894A      3.073764  1895A      3.077457  
    1896A      3.078881  1897A      3.080717  1898A      3.089239  
    1899A      3.090488  1900A      3.094794  1901A      3.095384  
    1902A      3.096591  1903A      3.097531  1904A      3.101177  
    1905A      3.110070  1906A      3.112300  1907A      3.120720  
    1908A      3.122628  1909A      3.123005  1910A      3.140605  
    1911A      3.141317  1912A      3.167997  1913A      3.199371  
    1914A      3.206618  1915A      3.207027  1916A      3.207629  
    1917A      3.208452  1918A      3.210850  1919A      3.214777  
    1920A      3.217911  1921A      3.221496  1922A      3.221998  
    1923A      3.239852  1924A      3.242387  1925A      3.243022  
    1926A      3.249890  1927A      3.306303  1928A      3.307526  
    1929A      3.314941  1930A      3.360595  1931A      3.374432  
    1932A      3.376458  1933A      3.379065  1934A      3.390271  
    1935A      3.393790  1936A      3.405401  1937A      3.409256  
    1938A      3.409998  1939A      3.415780  1940A      3.418848  
    1941A      3.426245  1942A      3.429925  1943A      3.438273  
    1944A      3.453794  1945A      3.455013  1946A      3.483596  
    1947A      3.519259  1948A      3.520990  1949A      3.528549  
    1950A      3.536048  1951A      3.545132  1952A      3.584991  
    1953A      3.586491  1954A      3.610166  1955A      3.612651  
    1956A      3.650140  1957A      3.692155  1958A      3.695495  
    1959A      3.696298  1960A      3.707181  1961A      3.723800  
    1962A      3.725103  1963A      3.788318  1964A      3.789263  
    1965A      3.817585  1966A      3.820548  1967A      3.850289  
    1968A      3.858425  1969A      3.881839  1970A      3.883966  
    1971A      3.893977  1972A      3.895210  1973A      3.903653  
    1974A      3.908189  1975A      3.915401  1976A      3.969130  
    1977A      3.971622  1978A      4.014762  1979A      4.171910  
    1980A      4.244129  1981A      4.336007  

    Final Occupation by Irrep:
              A 
    DOCC [   326 ]
    NA   [   326 ]
    NB   [   326 ]

  @DF-RHF Final Energy: -3953.64758611086518

   => Energetics <=

    Nuclear Repulsion Energy =          17816.3119424748510937
    One-Electron Energy =              -40843.4575235173469991
    Two-Electron Energy =               19073.4979949316293641
    Total Energy =                      -3953.6475861108665413

Computation Completed


Properties will be evaluated at   0.000000,   0.000000,   0.000000 [a0]

Properties computed using the SCF density matrix


 Multipole Moments:

 ------------------------------------------------------------------------------------
     Multipole            Electronic (a.u.)      Nuclear  (a.u.)        Total (a.u.)
 ------------------------------------------------------------------------------------

 L = 1.  Multiply by 2.5417464519 to convert [e a0] to [Debye]
 Dipole X            :          0.0018285            0.0004804            0.0023089
 Dipole Y            :         -1.5509689            1.8866171            0.3356482
 Dipole Z            :        -28.7462969           38.8119308           10.0656339
 Magnitude           :                                                   10.0712289

 ------------------------------------------------------------------------------------

*** tstop() called on n2cn0680.ab2021.local at Sat Jan 27 00:30:02 2024
Module time:
	user time   =   30708.93 seconds =     511.82 minutes
	system time =    2186.73 seconds =      36.45 minutes
	total time  =       4161 seconds =      69.35 minutes
Total time:
	user time   =   30708.93 seconds =     511.82 minutes
	system time =    2186.73 seconds =      36.45 minutes
	total time  =       4161 seconds =      69.35 minutes

  //>>>>>>>>>>>>>>>>>>>>>>>>>>>>>>>>>>>//
  //            Monomer A HF           //
  //<<<<<<<<<<<<<<<<<<<<<<<<<<<<<<<<<<<//

   => Libint2 <=

    Primary   basis highest AM E, G, H:  5, 4, 3
    Auxiliary basis highest AM E, G, H:  6, 5, 4
    Onebody   basis highest AM E, G, H:  6, 5, 4
    Solid Harmonics ordering:            gaussian

*** tstart() called on n2cn0680.ab2021.local
*** at Sat Jan 27 00:30:02 2024

   => Loading Basis Set <=

    Name: JUN-CC-PVDZ
    Role: ORBITAL
    Keyword: BASIS
    atoms 1-2, 4-5, 10, 17-34, 41-53, 56-70, 73-89, 92-104, 109-119, 122-130 entry C          line   164 file /opt/software/pc2/EB-SW/software/PSI4/1.9-foss-2022a/share/psi4/basis/jun-cc-pvdz.gbs 
    atoms 3, 6                                                               entry N          line   198 file /opt/software/pc2/EB-SW/software/PSI4/1.9-foss-2022a/share/psi4/basis/jun-cc-pvdz.gbs 
    atoms 7-9, 11-16, 35-40, 54-55, 71-72, 90-91, 105-108, 120-121, 131-136  entry H          line    36 file /opt/software/pc2/EB-SW/software/PSI4/1.9-foss-2022a/share/psi4/basis/jun-cc-pvdz.gbs 


         ---------------------------------------------------------
                                   SCF
               by Justin Turney, Rob Parrish, Andy Simmonett
                          and Daniel G. A. Smith
                              RHF Reference
                       16 Threads,  61035 MiB Core
         ---------------------------------------------------------

  ==> Geometry <==

    Molecular point group: c1
    Full point group: C1

    Geometry (in Angstrom), charge = 1, multiplicity = 1:

       Center              X                  Y                   Z               Mass       
    ------------   -----------------  -----------------  -----------------  -----------------
         C            0.680062820275    -1.215917226251     5.920088325208    12.000000000000
         C           -0.680508179725    -1.215533226251     5.918060325208    12.000000000000
[...]
    1579A      2.162480  1580A      2.163206  1581A      2.171624  
    1582A      2.171909  1583A      2.179786  1584A      2.180085  
    1585A      2.181481  1586A      2.181752  1587A      2.182962  
    1588A      2.188470  1589A      2.189240  1590A      2.190907  
    1591A      2.191648  1592A      2.192913  1593A      2.194924  
    1594A      2.197107  1595A      2.197782  1596A      2.199925  
    1597A      2.200692  1598A      2.201195  1599A      2.201448  
    1600A      2.203149  1601A      2.203944  1602A      2.205538  
    1603A      2.206931  1604A      2.210825  1605A      2.213755  
    1606A      2.213947  1607A      2.219664  1608A      2.220208  
    1609A      2.222303  1610A      2.222782  1611A      2.224498  
    1612A      2.224780  1613A      2.225077  1614A      2.228797  
    1615A      2.231930  1616A      2.232150  1617A      2.232480  
    1618A      2.235525  1619A      2.238874  1620A      2.239109  
    1621A      2.239854  1622A      2.241617  1623A      2.247610  
    1624A      2.247978  1625A      2.248585  1626A      2.250361  
    1627A      2.260735  1628A      2.262033  1629A      2.263606  
    1630A      2.265011  1631A      2.266697  1632A      2.269602  
    1633A      2.271318  1634A      2.275784  1635A      2.281503  
    1636A      2.282878  1637A      2.284367  1638A      2.290427  
    1639A      2.291051  1640A      2.294060  1641A      2.296470  
    1642A      2.296826  1643A      2.303856  1644A      2.304234  
    1645A      2.309179  1646A      2.311287  1647A      2.316340  
    1648A      2.324288  1649A      2.324901  1650A      2.325251  
    1651A      2.327009  1652A      2.327927  1653A      2.329941  
    1654A      2.330622  1655A      2.331194  1656A      2.333049  
    1657A      2.334504  1658A      2.335207  1659A      2.339585  
    1660A      2.341324  1661A      2.342244  1662A      2.342392  
    1663A      2.343492  1664A      2.345039  1665A      2.345835  
    1666A      2.346346  1667A      2.349087  1668A      2.349439  
    1669A      2.358229  1670A      2.368285  1671A      2.372771  
    1672A      2.373122  1673A      2.383724  1674A      2.388066  
    1675A      2.390507  1676A      2.392118  1677A      2.392907  
    1678A      2.395717  1679A      2.397538  1680A      2.418387  
    1681A      2.419637  1682A      2.423754  1683A      2.427541  
    1684A      2.432075  1685A      2.442007  1686A      2.443305  
    1687A      2.452245  1688A      2.453084  1689A      2.455125  
    1690A      2.457770  1691A      2.464372  1692A      2.464466  
    1693A      2.467789  1694A      2.468031  1695A      2.469984  
    1696A      2.471923  1697A      2.472187  1698A      2.483400  
    1699A      2.489700  1700A      2.491197  1701A      2.491919  
    1702A      2.494838  1703A      2.501879  1704A      2.506746  
    1705A      2.507643  1706A      2.511488  1707A      2.515353  
    1708A      2.518333  1709A      2.539182  1710A      2.539409  
    1711A      2.540408  1712A      2.542348  1713A      2.543036  
    1714A      2.545276  1715A      2.547714  1716A      2.548752  
    1717A      2.549349  1718A      2.551400  1719A      2.556559  
    1720A      2.556724  1721A      2.564245  1722A      2.571156  
    1723A      2.571752  1724A      2.579930  1725A      2.582871  
    1726A      2.583981  1727A      2.584795  1728A      2.585410  
    1729A      2.586268  1730A      2.588834  1731A      2.588906  
    1732A      2.593211  1733A      2.593612  1734A      2.601388  
    1735A      2.601527  1736A      2.612970  1737A      2.613199  
    1738A      2.613424  1739A      2.613899  1740A      2.617405  
    1741A      2.618002  1742A      2.632870  1743A      2.640617  
    1744A      2.641516  1745A      2.643439  1746A      2.643619  
    1747A      2.645495  1748A      2.647270  1749A      2.648830  
    1750A      2.649267  1751A      2.652944  1752A      2.654822  
    1753A      2.655866  1754A      2.656369  1755A      2.660826  
    1756A      2.666019  1757A      2.666182  1758A      2.667579  
    1759A      2.670488  1760A      2.670659  1761A      2.673214  
    1762A      2.673662  1763A      2.677048  1764A      2.677862  
    1765A      2.684629  1766A      2.685728  1767A      2.687106  
    1768A      2.690833  1769A      2.691386  1770A      2.691479  
    1771A      2.691992  1772A      2.692517  1773A      2.696175  
    1774A      2.697368  1775A      2.704330  1776A      2.720837  
    1777A      2.730735  1778A      2.730949  1779A      2.731343  
    1780A      2.731668  1781A      2.732139  1782A      2.744854  
    1783A      2.752800  1784A      2.758778  1785A      2.760584  
    1786A      2.761362  1787A      2.773091  1788A      2.775876  
    1789A      2.778487  1790A      2.779858  1791A      2.781208  
    1792A      2.799278  1793A      2.799880  1794A      2.801954  
    1795A      2.802213  1796A      2.802243  1797A      2.810399  
    1798A      2.812867  1799A      2.815457  1800A      2.815527  
    1801A      2.816305  1802A      2.816825  1803A      2.825789  
    1804A      2.828223  1805A      2.828587  1806A      2.838969  
    1807A      2.840142  1808A      2.842039  1809A      2.842197  
    1810A      2.845634  1811A      2.846595  1812A      2.861485  
    1813A      2.865174  1814A      2.865608  1815A      2.870278  
    1816A      2.871645  1817A      2.875060  1818A      2.882337  
    1819A      2.895921  1820A      2.896808  1821A      2.900410  
    1822A      2.914504  1823A      2.917679  1824A      2.917952  
    1825A      2.924150  1826A      2.927442  1827A      2.929382  
    1828A      2.930263  1829A      2.935238  1830A      2.935475  
    1831A      2.956205  1832A      2.963412  1833A      2.964985  
    1834A      2.965614  1835A      2.976371  1836A      2.983259  
    1837A      2.992567  1838A      2.993631  1839A      3.009236  
    1840A      3.029220  1841A      3.030193  1842A      3.031999  
    1843A      3.035891  1844A      3.039067  1845A      3.046949  
    1846A      3.047432  1847A      3.048017  1848A      3.050208  
    1849A      3.057666  1850A      3.057856  1851A      3.063789  
    1852A      3.072908  1853A      3.108635  1854A      3.113026  
    1855A      3.113343  1856A      3.122639  1857A      3.127531  
    1858A      3.128099  1859A      3.132796  1860A      3.134490  
    1861A      3.142226  1862A      3.143214  1863A      3.148240  
    1864A      3.149135  1865A      3.149594  1866A      3.150418  
    1867A      3.153627  1868A      3.156104  1869A      3.162272  
    1870A      3.167832  1871A      3.173195  1872A      3.175130  
    1873A      3.175560  1874A      3.193249  1875A      3.193947  
    1876A      3.220205  1877A      3.252842  1878A      3.259542  
    1879A      3.261350  1880A      3.261688  1881A      3.262138  
    1882A      3.264559  1883A      3.268283  1884A      3.271348  
    1885A      3.274913  1886A      3.275644  1887A      3.291812  
    1888A      3.293249  1889A      3.296846  1890A      3.297581  
    1891A      3.303601  1892A      3.310409  1893A      3.323973  
    1894A      3.361413  1895A      3.362596  1896A      3.370282  
    1897A      3.402772  1898A      3.416011  1899A      3.430187  
    1900A      3.432425  1901A      3.436959  1902A      3.446899  
    1903A      3.450489  1904A      3.461806  1905A      3.464768  
    1906A      3.465707  1907A      3.471229  1908A      3.474309  
    1909A      3.481717  1910A      3.486277  1911A      3.494141  
    1912A      3.509167  1913A      3.528040  1914A      3.539567  
    1915A      3.574363  1916A      3.576066  1917A      3.578425  
    1918A      3.583670  1919A      3.590063  1920A      3.640151  
    1921A      3.641939  1922A      3.647014  1923A      3.664961  
    1924A      3.667169  1925A      3.705167  1926A      3.748101  
    1927A      3.749320  1928A      3.750724  1929A      3.759918  
    1930A      3.763270  1931A      3.778730  1932A      3.779935  
    1933A      3.819283  1934A      3.842036  1935A      3.843435  
    1936A      3.870050  1937A      3.871502  1938A      3.874637  
    1939A      3.904708  1940A      3.913320  1941A      3.937955  
    1942A      3.940358  1943A      3.948278  1944A      3.949347  
    1945A      3.958786  1946A      3.960875  1947A      3.965068  
    1948A      3.971156  1949A      4.024674  1950A      4.027452  
    1951A      4.071334  1952A      4.212917  1953A      4.213021  
    1954A      4.229623  1955A      4.301949  1956A      4.360318  
    1957A      4.379017  1958A      4.395482  1959A      4.489231  
    1960A      4.738882  1961A      4.781183  1962A      4.833928  
    1963A      4.852876  1964A      4.941823  1965A      5.052816  
    1966A      5.060742  1967A      5.069318  1968A      5.114676  
    1969A      5.129305  1970A      5.392910  1971A      5.425057  
    1972A      5.738583  1973A      5.753616  1974A      6.069319  
    1975A     18.204028  1976A     18.456321  1977A     18.474521  
    1978A     18.562010  1979A     18.837440  1980A     25.345349  
    1981A     25.378809  

    Final Occupation by Irrep:
              A 
    DOCC [   300 ]
    NA   [   300 ]
    NB   [   300 ]

  @DF-RHF Final Energy: -3650.33795675494821

   => Energetics <=

    Nuclear Repulsion Energy =          15611.4211649754324753
    One-Electron Energy =              -36072.0889439989769016
    Two-Electron Energy =               16810.3298222685953078
    Total Energy =                      -3650.3379567549491185

Computation Completed


Properties will be evaluated at   0.000000,   0.000000,   0.000000 [a0]

Properties computed using the SCF density matrix


 Multipole Moments:

 ------------------------------------------------------------------------------------
     Multipole            Electronic (a.u.)      Nuclear  (a.u.)        Total (a.u.)
 ------------------------------------------------------------------------------------

 L = 1.  Multiply by 2.5417464519 to convert [e a0] to [Debye]
 Dipole X            :         -0.0009023            0.0002112           -0.0006911
 Dipole Y            :          0.0041674           -0.0044281           -0.0002607
 Dipole Z            :        553.2489537         -553.2558925           -0.0069387
 Magnitude           :                                                    0.0069780

 ------------------------------------------------------------------------------------

*** tstop() called on n2cn0680.ab2021.local at Sat Jan 27 02:08:56 2024
Module time:
	user time   =   20579.26 seconds =     342.99 minutes
	system time =    2310.11 seconds =      38.50 minutes
	total time  =       3833 seconds =      63.88 minutes
Total time:
	user time   =   57484.52 seconds =     958.08 minutes
	system time =    4992.35 seconds =      83.21 minutes
	total time  =      10095 seconds =     168.25 minutes
  Constructing Basis Sets for SAPT...

   => Loading Basis Set <=

    Name: (JUN-CC-PVDZ AUX)
    Role: RIFIT
    Keyword: DF_BASIS_SAPT
    atoms 1-2, 4-5, 10, 17-34, 41-53, 56-70, 73-89, 92-104, 109-119, 122-130 entry C          line   100 file /opt/software/pc2/EB-SW/software/PSI4/1.9-foss-2022a/share/psi4/basis/jun-cc-pvdz-ri.gbs 
    atoms 3, 6                                                               entry N          line   144 file /opt/software/pc2/EB-SW/software/PSI4/1.9-foss-2022a/share/psi4/basis/jun-cc-pvdz-ri.gbs 
    atoms 7-9, 11-16, 35-40, 54-55, 71-72, 90-91, 105-108, 120-121, 131-136  entry H          line    30 file /opt/software/pc2/EB-SW/software/PSI4/1.9-foss-2022a/share/psi4/basis/jun-cc-pvdz-ri.gbs 

   => Loading Basis Set <=

    Name: (JUN-CC-PVDZ AUX)
    Role: JKFIT
    Keyword: DF_BASIS_ELST
    atoms 1-2, 4-5, 10, 17-34, 41-53, 56-70, 73-89, 92-104, 109-119, 122-130 entry C          line   146 file /opt/software/pc2/EB-SW/software/PSI4/1.9-foss-2022a/share/psi4/basis/jun-cc-pvdz-jkfit.gbs 
    atoms 3, 6                                                               entry N          line   202 file /opt/software/pc2/EB-SW/software/PSI4/1.9-foss-2022a/share/psi4/basis/jun-cc-pvdz-jkfit.gbs 
    atoms 7-9, 11-16, 35-40, 54-55, 71-72, 90-91, 105-108, 120-121, 131-136  entry H          line    70 file /opt/software/pc2/EB-SW/software/PSI4/1.9-foss-2022a/share/psi4/basis/jun-cc-pvdz-jkfit.gbs 


  //>>>>>>>>>>>>>>>>>>>>>>>>>>>>>>>>>>>//
  //               SSAPT0              //
  //<<<<<<<<<<<<<<<<<<<<<<<<<<<<<<<<<<<//


*** tstart() called on n2cn0680.ab2021.local
*** at Sat Jan 27 02:08:58 2024

        SAPT0  
    Ed Hohenstein
     6 June 2009

      Orbital Information
  --------------------------
    NSO        =      2019
    NMO        =      1981
    NRI        =      7157
    NRI (Elst) =      8896
    NOCC A     =        26
    NOCC B     =       300
    FOCC A     =         7
    FOCC B     =        96
    NVIR A     =      1955
    NVIR B     =      1681

    Elst10,r            =    -0.008867118419 [Eh]
    Exch10              =    -0.000000575856 [Eh]
    Exch10 (S^2)        =    -0.000000575855 [Eh]

    Iter     Energy [mEh]          dE [mEh]         Residual      Time [s]
       1      -0.01330777       0.013307773       0.988119347           427
       2      -0.01216169      -0.001146083       0.205619712           791
       3      -0.01313037       0.000968676       0.035186084          1091
       4      -0.01311950      -0.000010864       0.014380729          1366
       5      -0.01310281      -0.000016692       0.002888406          1672
       6      -0.01310347       0.000000654       0.001391888          1949
       7      -0.01310412       0.000000655       0.000591030          2314
       8      -0.01310409      -0.000000030       0.000230330          2621
       9      -0.01310401      -0.000000080       0.000077232          2879
      10      -0.01310400      -0.000000010       0.000017552          3108
      11      -0.01310401       0.000000008       0.000005970          3346
      12      -0.01310401       0.000000001       0.000001962          3577
      13      -0.01310401      -0.000000001       0.000000784          3943

    CHF Iterations converged


    Iter     Energy [mEh]          dE [mEh]         Residual      Time [s]
       1      -5.10877782       5.108777821      39.122098900           382
       2      -3.29880854      -1.809969280       4.537607472           787
       3      -3.28590025      -0.012908295       1.553517036          1096
       4      -3.34544824       0.059547994       0.480965149          1483
       5      -3.35317968       0.007731437       0.166596786          1848
       6      -3.35255817      -0.000621506       0.110503710          2344
       7      -3.35077001      -0.001788164       0.050914717          2735
       8      -3.35093876       0.000168758       0.030296382          3085
       9      -3.35140526       0.000466492       0.018782685          3418
      10      -3.35126430      -0.000140953       0.014104734          3807
      11      -3.35118843      -0.000075870       0.005978163          4451
      12      -3.35119362       0.000005186       0.002883969          4780
      13      -3.35121088       0.000017259       0.001273219          5402
      14      -3.35121553       0.000004653       0.000688433          5858
      15      -3.35121244      -0.000003092       0.000465237          6312
      16      -3.35120934      -0.000003095       0.000196358          6797
      17      -3.35121110       0.000001759       0.000073213          7417
      18      -3.35121136       0.000000261       0.000030834          8080
      19      -3.35121119      -0.000000170       0.000020036          8646
      20      -3.35121110      -0.000000098       0.000009053          9099
      21      -3.35121114       0.000000041       0.000004265          9527
      22      -3.35121115       0.000000018       0.000001786         10117
      23      -3.35121115      -0.000000004       0.000000636         10804

    CHF Iterations converged

    Ind20,r (A<-B)      =    -0.000013104008 [Eh]
    Ind20,r (B<-A)      =    -0.003351211151 [Eh]
    Ind20,r             =    -0.003364315159 [Eh]
    Exch-Ind20,r (A<-B) =     0.000000198117 [Eh]
    Exch-Ind20,r (B<-A) =     0.000000884845 [Eh]
    Exch-Ind20,r        =     0.000001082961 [Eh]
    Disp20              =    -0.002226560223 [Eh]
    Disp20 (SS)         =    -0.001113280112 [Eh]
    Disp20 (OS)         =    -0.001113280112 [Eh]
    Exch-Disp20         =     0.000000490522 [Eh]
    Exch-Disp20 (SS)    =     0.000000376748 [Eh]
    Exch-Disp20 (OS)    =     0.000000113774 [Eh]

    SAPT Results 
  --------------------------------------------------------------------------------------------------------
    Electrostatics                 -8.86711842 [mEh]      -5.56420081 [kcal/mol]     -23.28061620 [kJ/mol]
      Elst10,r                     -8.86711842 [mEh]      -5.56420081 [kcal/mol]     -23.28061620 [kJ/mol]

    Exchange                       -0.00057586 [mEh]      -0.00036135 [kcal/mol]      -0.00151191 [kJ/mol]
      Exch10                       -0.00057586 [mEh]      -0.00036135 [kcal/mol]      -0.00151191 [kJ/mol]
      Exch10(S^2)                  -0.00057586 [mEh]      -0.00036135 [kcal/mol]      -0.00151191 [kJ/mol]

    Induction                      -3.41679005 [mEh]      -2.14406812 [kcal/mol]      -8.97078103 [kJ/mol]
      Ind20,r                      -3.36431516 [mEh]      -2.11113964 [kcal/mol]      -8.83300823 [kJ/mol]
      Exch-Ind20,r                  0.00108296 [mEh]       0.00067957 [kcal/mol]       0.00284331 [kJ/mol]
      delta HF,r (2)               -0.05355785 [mEh]      -0.03360806 [kcal/mol]      -0.14061611 [kJ/mol]

    Dispersion                     -2.22606970 [mEh]      -1.39687983 [kcal/mol]      -5.84454520 [kJ/mol]
      Disp20                       -2.22656022 [mEh]      -1.39718763 [kcal/mol]      -5.84583306 [kJ/mol]
      Exch-Disp20                   0.00049052 [mEh]       0.00030781 [kcal/mol]       0.00128787 [kJ/mol]
      Disp20 (SS)                  -1.11328011 [mEh]      -0.69859382 [kcal/mol]      -2.92291653 [kJ/mol]
      Disp20 (OS)                  -1.11328011 [mEh]      -0.69859382 [kcal/mol]      -2.92291653 [kJ/mol]
      Exch-Disp20 (SS)              0.00037675 [mEh]       0.00023641 [kcal/mol]       0.00098915 [kJ/mol]
      Exch-Disp20 (OS)              0.00011377 [mEh]       0.00007139 [kcal/mol]       0.00029871 [kJ/mol]

  Total HF                        -12.28448432 [mEh]      -7.70863029 [kcal/mol]     -32.25290914 [kJ/mol]
  Total SAPT0                     -14.51055402 [mEh]      -9.10551012 [kcal/mol]     -38.09745433 [kJ/mol]

  Special recipe for scaled SAPT0 (see Manual):
    Electrostatics sSAPT0          -8.86711842 [mEh]      -5.56420081 [kcal/mol]     -23.28061620 [kJ/mol]
    Exchange sSAPT0                -0.00057586 [mEh]      -0.00036135 [kcal/mol]      -0.00151191 [kJ/mol]
    Induction sSAPT0               -3.41679005 [mEh]      -2.14406812 [kcal/mol]      -8.97078103 [kJ/mol]
    Dispersion sSAPT0              -2.22606970 [mEh]      -1.39687983 [kcal/mol]      -5.84454520 [kJ/mol]
  Total sSAPT0                    -14.51055402 [mEh]      -9.10551012 [kcal/mol]     -38.09745433 [kJ/mol]
  --------------------------------------------------------------------------------------------------------

*** tstop() called on n2cn0680.ab2021.local at Sat Jan 27 19:50:46 2024
Module time:
	user time   =   75350.50 seconds =    1255.84 minutes
	system time =    3938.79 seconds =      65.65 minutes
	total time  =      63708 seconds =    1061.80 minutes
Total time:
	user time   =  132836.57 seconds =    2213.94 minutes
	system time =    8931.14 seconds =     148.85 minutes
	total time  =      73805 seconds =    1230.08 minutes

    Psi4 stopped on: Saturday, 27 January 2024 07:50PM
    Psi4 wall time for execution: 20:30:06.40

*** Psi4 exiting successfully. Buy a developer a beer!
