
    -----------------------------------------------------------------------
          Psi4: An Open-Source Ab Initio Electronic Structure Package
                               Psi4 1.9 release

                         Git: Rev {} zzzzzzz 


    D. G. A. Smith, L. A. Burns, A. C. Simmonett, R. M. Parrish,
    M. C. Schieber, R. Galvelis, P. Kraus, H. Kruse, R. Di Remigio,
    A. Alenaizan, A. M. James, S. Lehtola, J. P. Misiewicz, M. Scheurer,
    R. A. Shaw, J. B. Schriber, Y. Xie, Z. L. Glick, D. A. Sirianni,
    J. S. O'Brien, J. M. Waldrop, A. Kumar, E. G. Hohenstein,
    B. P. Pritchard, B. R. Brooks, H. F. Schaefer III, A. Yu. Sokolov,
    K. Patkowski, A. E. DePrince III, U. Bozkaya, R. A. King,
    F. A. Evangelista, J. M. Turney, T. D. Crawford, C. D. Sherrill,
    J. Chem. Phys. 152(18) 184108 (2020). https://doi.org/10.1063/5.0006002

                            Additional Code Authors
    E. T. Seidl, C. L. Janssen, E. F. Valeev, M. L. Leininger,
    J. F. Gonthier, R. M. Richard, H. R. McAlexander, M. Saitow, X. Wang,
    P. Verma, M. H. Lechner, A. Jiang, S. Behnle, A. G. Heide,
    M. F. Herbst, and D. L. Poole

             Previous Authors, Complete List of Code Contributors,
                       and Citations for Specific Modules
    https://github.com/psi4/psi4/blob/master/codemeta.json
    https://github.com/psi4/psi4/graphs/contributors
    http://psicode.org/psi4manual/master/introduction.html#citing-psifour

    -----------------------------------------------------------------------


    Psi4 started on: Monday, 22 January 2024 04:09PM

    Process ID: 1102675
    Host:       d-3-8-3
    PSIDATADIR: /home/gridsan/tfroembgen/.conda/envs/psi4test/share/psi4
    Memory:     500.0 MiB
    Threads:    12
    
  ==> Input File <==

--------------------------------------------------------------------------
memory 32 GB # how much memory is available ! Depends on the nodes/cores !

molecule dimer {
# monomer A
+1 1    # Charge and multiplicity
C  0.680067 -1.215929 2.008042
C -0.680504 -1.215545 2.006014
N -1.085635  0.102779 2.005016
C  0.000108  0.884180 2.001740
C -2.477365  0.570758 1.955610
N  1.085222  0.102779 2.005016
H  1.385146 -2.033368 2.015870
H -1.385302 -2.033214 2.006204
H -0.000009  1.965269 1.999993
C  2.478117  0.567877 2.021908
H  2.490592  1.658130 1.994563
H  2.967028  0.220701 2.935354
H  3.001428  0.176405 1.146425
H -2.857359  0.490799 0.933539
H -3.082679 -0.042306 2.625694
H -2.518128  1.610706 2.282594
--
# monomer B
0 1     # Charge and multiplicity
C   1.22531237526482      0.70753866091955      0.00613762728373
C   1.22532433589282     -0.70753852257020     -0.00619318228664
C   -0.00000567409046      1.41496628609039     -0.00672680580738
C   2.45644923379077      1.41832825917820      0.00902448468363
C   0.00001130712078     -1.41497612663474      0.00347275151708
C   -1.22530046906674      0.70754574598412      0.00838914760619
C   2.45643823516184     -1.41832293188077     -0.00843833914343
C   -0.00000085313587      2.83680140328112     -0.00913035594137
C   3.68182717731192      0.70931832800114     -0.00808954934571
C   2.45512052870677      2.83422403348893     -0.00819210630633
C   3.68182158506039     -0.70933346742900      0.00798293467272
C   -1.22531311884624     -0.70752714354401     -0.00512042085974
C   1.22670006104402      3.54346985599427      0.00816696660346
C   0.00000526469929     -2.83678176723568      0.00832091913869
C   -2.45643555300670      1.41831729028492      0.00842454345199
C   2.45512389762097     -2.83422965658853      0.00783102630520
C   -1.22671388474763      3.54346943575023      0.00827029982280
C   4.91451777504333      1.42717324448953     -0.00160886631602
C   3.69315067131765      3.54279566454522     -0.00155906667985
C   -2.45643712022637     -1.41831290883911     -0.00846337726810
C   1.22670532178455     -3.54347386990643     -0.00780316414624
C   -2.45512491866593      2.83421703463423     -0.00818572995999
C   4.91452486062398     -1.42718653794377      0.00136387641845
C   1.22142509354026      4.97013443726031      0.00150231067809
C   4.89300870916237      2.82518837202648     -0.00039219795739
C   -1.22669652864725     -3.54347062507680     -0.00753595973677
C   -3.68181849668397      0.70932533873199     -0.00807686886569
C   3.69314758099218     -3.54280096939050      0.00148176697923
C   -1.22143177215231      4.97012866986289      0.00168580605083
C   6.13477145276790      0.68054831910577     -0.00083909176631
C   3.65678936045204      4.97295361556775     -0.00065042889723
C   -2.45512642789169     -2.83421472106065      0.00758666850712
C   -3.68181869921921     -0.70932533146830      0.00810055625144
C   4.89301309775526     -2.82519973363176      0.00021895393805
C   -0.00000059327114      5.65044773803267      0.00045449734393
C   6.13477559217374     -0.68055448207492      0.00042622874941
C   2.47813196269732      5.65357712333155      0.00063835075260
C   1.22142288457925     -4.97012668293268     -0.00129718634452
C   -3.69316190412301      3.54279732619245     -0.00139355922051
C   -1.22142804110313     -4.97011793159564     -0.00140994817719
C   -4.91452132810043      1.42717581899491     -0.00153192130862
C   3.65678749952045     -4.97295485423912      0.00080007163680
C   -2.47813805026426      5.65357479452875      0.00092287576113
C   -3.69314125872231     -3.54278984697859      0.00136564082345
C   -4.91451200321153     -1.42718062802730      0.00139857359209
C   -0.00000552908399     -5.65043791501335      0.00005899322272
C   -4.89302000425900      2.82518897091939     -0.00040227981744
C   2.47812647313991     -5.65357317188818     -0.00029052915548
C   -3.65679823041642      4.97295655404175     -0.00047374852278
C   -4.89299899901461     -2.82519139505969      0.00006491824035
C   -2.47812801824129     -5.65356579800621     -0.00056571680280
C   -6.13477002348955      0.68054913825639     -0.00086464346868
C   -3.65678835334731     -4.97294365097028      0.00058578382008
C   -6.13476456307132     -0.68055354348201      0.00040575295444
H   5.83528897565761      3.36927626695423      0.00396712770529
H   7.07385965258860      1.22821762089947     -0.00037744837300
H   4.60066374401555      5.51238117445323     -0.00014522814529
H   5.83528386714679     -3.36930568472863     -0.00423551337640
H   -0.00001167146422      6.73853104613662     -0.00389474766392
H   7.07386165167227     -1.22822657074368     -0.00008250934481
H   2.47331421164041      6.74068466339473      0.00017162982210
H   4.60066897122302     -5.51237575717576      0.00039007446835
H   -2.47331820069565      6.74068209160650      0.00047297644710
H   -0.00000978838621     -6.73852780445195      0.00458867820736
H   -5.83530143450167      3.36927132229595      0.00410314985360
H   2.47330840367253     -6.74068500242887      0.00027980126949
H   -4.60067436136587      5.51237839860371      0.00002010017831
H   -5.83527902699321     -3.36928859177951     -0.00451481925734
H   -2.47329986759855     -6.74067870613986     -0.00016951527498
H   -7.07385728692578      1.22822084484047     -0.00046143985387
H   -4.60067330624313     -5.51236229778631      0.00021776644566
H   -7.07385645456741     -1.22822025997701     -0.00017736581114

    units angstrom      # Angstroms are the default
    no_reorient         # Geometry fixed, default
    symmetry c1         # C1 symmetry, default
}

set {
    scf_type DF         # Density fitting, faster than exact integrals
    freeze_core True    # Freeze core electrons
    basis jun-cc-pVDZ   # Jun-cc-pVDZ basis set, recommended for sSAPT0 in https://doi.org/10.1063/1.4867135
}

energy('ssapt0')        # Compute sSAPT0 energy, includes also SAPT0
--------------------------------------------------------------------------

  Memory set to  29.802 GiB by Python driver.

Scratch directory: /state/partition1/slurm_tmp/24798230.4294967291.0/
   => Loading Basis Set <=

    Name: JUN-CC-PVDZ
    Role: ORBITAL
    Keyword: BASIS
    atoms 1-2, 4-5, 10, 17-70 entry C          line   164 file /home/gridsan/tfroembgen/.conda/envs/psi4test/share/psi4/basis/jun-cc-pvdz.gbs 
    atoms 3, 6                entry N          line   198 file /home/gridsan/tfroembgen/.conda/envs/psi4test/share/psi4/basis/jun-cc-pvdz.gbs 
    atoms 7-9, 11-16, 71-88   entry H          line    36 file /home/gridsan/tfroembgen/.conda/envs/psi4test/share/psi4/basis/jun-cc-pvdz.gbs 

   => Loading Basis Set <=

    Name: JUN-CC-PVDZ
    Role: ORBITAL
    Keyword: BASIS
    atoms 1-2, 4-5, 10, 17-70 entry C          line   164 file /home/gridsan/tfroembgen/.conda/envs/psi4test/share/psi4/basis/jun-cc-pvdz.gbs 
    atoms 3, 6                entry N          line   198 file /home/gridsan/tfroembgen/.conda/envs/psi4test/share/psi4/basis/jun-cc-pvdz.gbs 
    atoms 7-9, 11-16, 71-88   entry H          line    36 file /home/gridsan/tfroembgen/.conda/envs/psi4test/share/psi4/basis/jun-cc-pvdz.gbs 


  //>>>>>>>>>>>>>>>>>>>>>>>>>>>>>>>>>>>//
  //              Dimer HF             //
  //<<<<<<<<<<<<<<<<<<<<<<<<<<<<<<<<<<<//

   => Libint2 <=

    Primary   basis highest AM E, G, H:  7, 7, 4
    Auxiliary basis highest AM E, G, H:  7, 7, 5
    Onebody   basis highest AM E, G, H:  7, 7, 5
    Solid Harmonics ordering:            gaussian

*** tstart() called on d-3-8-3
*** at Mon Jan 22 16:09:05 2024

   => Loading Basis Set <=

    Name: JUN-CC-PVDZ
    Role: ORBITAL
    Keyword: BASIS
    atoms 1-2, 4-5, 10, 17-70 entry C          line   164 file /home/gridsan/tfroembgen/.conda/envs/psi4test/share/psi4/basis/jun-cc-pvdz.gbs 
    atoms 3, 6                entry N          line   198 file /home/gridsan/tfroembgen/.conda/envs/psi4test/share/psi4/basis/jun-cc-pvdz.gbs 
    atoms 7-9, 11-16, 71-88   entry H          line    36 file /home/gridsan/tfroembgen/.conda/envs/psi4test/share/psi4/basis/jun-cc-pvdz.gbs 


         ---------------------------------------------------------
                                   SCF
               by Justin Turney, Rob Parrish, Andy Simmonett
                          and Daniel G. A. Smith
                              RHF Reference
                       12 Threads,  30517 MiB Core
         ---------------------------------------------------------

  ==> Geometry <==

    Molecular point group: c1
    Full point group: C1

    Geometry (in Angstrom), charge = 1, multiplicity = 1:

       Center              X                  Y                   Z               Mass       
    ------------   -----------------  -----------------  -----------------  -----------------
         C            0.680066520158    -1.215933861162     1.753656451385    12.000000000000
         C           -0.680504479842    -1.215549861162     1.751628451385    12.000000000000
         N           -1.085635479842     0.102774138838     1.750630451385    14.003074004430
         C            0.000107520158     0.884175138838     1.747354451385    12.000000000000
         C           -2.477365479842     0.570753138838     1.701224451385    12.000000000000
         N            1.085221520158     0.102774138838     1.750630451385    14.003074004430
         H            1.385145520158    -2.033372861162     1.761484451385     1.007825032230
         H           -1.385302479842    -2.033218861162     1.751818451385     1.007825032230
         H           -0.000009479842     1.965264138838     1.745607451385     1.007825032230
         C            2.478116520158     0.567872138838     1.767522451385    12.000000000000
         H            2.490591520158     1.658125138838     1.740177451385     1.007825032230
         H            2.967027520158     0.220696138838     2.680968451385     1.007825032230
         H            3.001427520158     0.176400138838     0.892039451385     1.007825032230
         H           -2.857359479842     0.490794138838     0.679153451385     1.007825032230
         H           -3.082679479842    -0.042310861162     2.371308451385     1.007825032230
         H           -2.518128479842     1.610701138838     2.028208451385     1.007825032230
         C            1.225311895423     0.707533799757    -0.248247921331    12.000000000000
         C            1.225323856051    -0.707543383733    -0.260578730901    12.000000000000
         C           -0.000006153932     1.414961424928    -0.261112354422    12.000000000000
         C            2.456448753949     1.418323398016    -0.245361063931    12.000000000000
         C            0.000010827279    -1.414980987797    -0.250912797098    12.000000000000
         C           -1.225300948908     0.707540884822    -0.245996401009    12.000000000000
         C            2.456437755320    -1.418327793043    -0.262823887758    12.000000000000
         C           -0.000001332978     2.836796542119    -0.263515904556    12.000000000000
         C            3.681826697470     0.709313466839    -0.262475097960    12.000000000000
         C            2.455120048865     2.834219172327    -0.262577654921    12.000000000000
         C            3.681821105219    -0.709338328591    -0.246402613942    12.000000000000
         C           -1.225313598688    -0.707532004706    -0.259505969474    12.000000000000
         C            1.226699581202     3.543464994832    -0.246218582011    12.000000000000
         C            0.000004784858    -2.836786628398    -0.246064629476    12.000000000000
         C           -2.456436032848     1.418312429123    -0.245961005163    12.000000000000
         C            2.455123417779    -2.834234517751    -0.246554522310    12.000000000000
         C           -1.226714364589     3.543464574588    -0.246115248792    12.000000000000
         C            4.914517295202     1.427168383327    -0.255994414931    12.000000000000
         C            3.693150191476     3.542790803383    -0.255944615295    12.000000000000
         C           -2.456437600068    -1.418317770001    -0.262848925883    12.000000000000
         C            1.226704841943    -3.543478731069    -0.262188712761    12.000000000000
         C           -2.455125398508     2.834212173472    -0.262571278575    12.000000000000
         C            4.914524380782    -1.427191399106    -0.253021672196    12.000000000000
         C            1.221424613699     4.970129576098    -0.252883237937    12.000000000000
         C            4.893008229321     2.825183510864    -0.254777746572    12.000000000000
         C           -1.226697008489    -3.543475486239    -0.261921508352    12.000000000000
         C           -3.681818976526     0.709320477570    -0.262462417480    12.000000000000
         C            3.693147101150    -3.542805830553    -0.252903781636    12.000000000000
         C           -1.221432251994     4.970123808701    -0.252699742564    12.000000000000
         C            6.134770972926     0.680543457943    -0.255224640381    12.000000000000
         C            3.656788880610     4.972948754405    -0.255035977512    12.000000000000
         C           -2.455126907733    -2.834219582223    -0.246798880108    12.000000000000
         C           -3.681819179061    -0.709330192631    -0.246284992363    12.000000000000
         C            4.893012617914    -2.825204594794    -0.254166594677    12.000000000000
         C           -0.000001073113     5.650442876870    -0.253931051271    12.000000000000
         C            6.134775112332    -0.680559343237    -0.253959319865    12.000000000000
         C            2.478131482856     5.653572262169    -0.253747197862    12.000000000000
         C            1.221422404738    -4.970131544095    -0.255682734959    12.000000000000
         C           -3.693162383965     3.542792465030    -0.255779107835    12.000000000000
         C           -1.221428520945    -4.970122792758    -0.255795496792    12.000000000000
         C           -4.914521807942     1.427170957833    -0.255917469923    12.000000000000
         C            3.656787019679    -4.972959715401    -0.253585476978    12.000000000000
         C           -2.478138530106     5.653569933366    -0.253462672854    12.000000000000
         C           -3.693141738564    -3.542794708141    -0.253019907791    12.000000000000
         C           -4.914512483053    -1.427185489190    -0.252986975023    12.000000000000
         C           -0.000006008926    -5.650442776176    -0.254326555392    12.000000000000
         C           -4.893020484101     2.825184109757    -0.254787828432    12.000000000000
         C            2.478125993298    -5.653578033051    -0.254676077770    12.000000000000
         C           -3.656798710258     4.972951692879    -0.254859297138    12.000000000000
         C           -4.892999478856    -2.825196256222    -0.254320630374    12.000000000000
         C           -2.478128498083    -5.653570659169    -0.254951265418    12.000000000000
         C           -6.134770503331     0.680544277094    -0.255250192083    12.000000000000
         C           -3.656788833189    -4.972948512133    -0.253799764795    12.000000000000
         C           -6.134765042913    -0.680558404644    -0.253979795660    12.000000000000
         H            5.835288495816     3.369271405792    -0.250418420909     1.007825032230
         H            7.073859172747     1.228212759737    -0.254762996988     1.007825032230
         H            4.600663264174     5.512376313291    -0.254530776760     1.007825032230
         H            5.835283387305    -3.369310545891    -0.258621061991     1.007825032230
         H           -0.000012151306     6.738526184974    -0.258280296279     1.007825032230
         H            7.073861171831    -1.228231431906    -0.254468057960     1.007825032230
         H            2.473313731799     6.740679802232    -0.254213918793     1.007825032230
         H            4.600668491381    -5.512380618338    -0.253995474146     1.007825032230
         H           -2.473318680537     6.740677230444    -0.253912572168     1.007825032230
         H           -0.000010268228    -6.738532665614    -0.249796870407     1.007825032230
         H           -5.835301914343     3.369266461134    -0.250282398761     1.007825032230
         H            2.473307923831    -6.740689863591    -0.254105747345     1.007825032230
         H           -4.600674841208     5.512373537441    -0.254365448436     1.007825032230
         H           -5.835279506835    -3.369293452942    -0.258900367872     1.007825032230
         H           -2.473300347440    -6.740683567302    -0.254555063890     1.007825032230
         H           -7.073857766768     1.228215983678    -0.254846988469     1.007825032230
         H           -4.600673786085    -5.512367158949    -0.254167782169     1.007825032230
         H           -7.073856934409    -1.228225121139    -0.254562914426     1.007825032230

  Running in c1 symmetry.

  Rotational constants: A =      0.00210  B =      0.00206  C =      0.00109 [cm^-1]
  Rotational constants: A =     63.05315  B =     61.73109  C =     32.56832 [MHz]
  Nuclear repulsion = 8808.750054933287174

  Charge       = 1
  Multiplicity = 1
  Electrons    = 394
  Nalpha       = 197
  Nbeta        = 197

  ==> Algorithm <==

  SCF Algorithm Type is DF.
  DIIS enabled.
  MOM disabled.
  Fractional occupation disabled.
  Guess Type is SAD.
  Energy threshold   = 1.00e-08
  Density threshold  = 1.00e-08
  Integral threshold = 1.00e-12

  ==> Primary Basis <==

  Basis Set: JUN-CC-PVDZ
    Blend: JUN-CC-PVDZ
    Number of shells: 569
    Number of basis functions: 1233
    Number of Cartesian functions: 1294
    Spherical Harmonics?: true
    Max angular momentum: 2

   => Loading Basis Set <=

    Name: (JUN-CC-PVDZ AUX)
    Role: JKFIT
    Keyword: DF_BASIS_SCF
    atoms 1-2, 4-5, 10, 17-70 entry C          line   146 file /home/gridsan/tfroembgen/.conda/envs/psi4test/share/psi4/basis/jun-cc-pvdz-jkfit.gbs 
    atoms 3, 6                entry N          line   202 file /home/gridsan/tfroembgen/.conda/envs/psi4test/share/psi4/basis/jun-cc-pvdz-jkfit.gbs 
    atoms 7-9, 11-16, 71-88   entry H          line    70 file /home/gridsan/tfroembgen/.conda/envs/psi4test/share/psi4/basis/jun-cc-pvdz-jkfit.gbs 

  ==> Integral Setup <==

  ==> DiskDFJK: Density-Fitted J/K Matrices <==

    J tasked:                  Yes
    K tasked:                  Yes
    wK tasked:                  No
    OpenMP threads:             12
    Integrals threads:          12
    Memory [MiB]:            22888
    Algorithm:                Disk
    Integral Cache:           SAVE
    Schwarz Cutoff:          1E-12
    Fitting Condition:       1E-10

   => Auxiliary Basis Set <=

  Basis Set: (JUN-CC-PVDZ AUX)
    Blend: JUN-CC-PVDZ-JKFIT
    Number of shells: 1890
    Number of basis functions: 5440
    Number of Cartesian functions: 6226
    Spherical Harmonics?: true
    Max angular momentum: 3

  Minimum eigenvalue in the overlap matrix is 1.7332950840E-10.
  Reciprocal condition number of the overlap matrix is 5.9101796145E-12.
    Using canonical orthogonalization.
  Overall, 15 of 1233 possible MOs eliminated.


  ==> Pre-Iterations <==

  SCF Guess: Superposition of Atomic Densities via on-the-fly atomic UHF (no occupation information).

   -------------------------
    Irrep   Nso     Nmo    
   -------------------------
     A       1233    1218 
   -------------------------
    Total    1233    1218
   -------------------------

  ==> Iterations <==

                           Total Energy        Delta E     RMS |[F,P]|

   @DF-RHF iter SAD: -2371.82790428003409   -2.37183e+03   0.00000e+00 
   @DF-RHF iter   1: -2357.29953807382299    1.45284e+01   9.83027e-04 DIIS/ADIIS
   @DF-RHF iter   2: -2358.23968594433563   -9.40148e-01   3.80748e-04 DIIS/ADIIS
   @DF-RHF iter   3: -2358.35895962672839   -1.19274e-01   1.53719e-04 DIIS/ADIIS
   @DF-RHF iter   4: -2358.38031485915462   -2.13552e-02   6.74149e-05 DIIS
   @DF-RHF iter   5: -2358.38450815678016   -4.19330e-03   1.81215e-05 DIIS
   @DF-RHF iter   6: -2358.38511084211814   -6.02685e-04   1.11564e-05 DIIS
   @DF-RHF iter   7: -2358.38540918183162   -2.98340e-04   5.05201e-06 DIIS
   @DF-RHF iter   8: -2358.38553527396743   -1.26092e-04   3.03774e-06 DIIS
   @DF-RHF iter   9: -2358.38558006974472   -4.47958e-05   1.62798e-06 DIIS
   @DF-RHF iter  10: -2358.38558989505873   -9.82531e-06   9.05352e-07 DIIS
   @DF-RHF iter  11: -2358.38559518373768   -5.28868e-06   6.54678e-07 DIIS
   @DF-RHF iter  12: -2358.38559828723101   -3.10349e-06   4.73253e-07 DIIS
   @DF-RHF iter  13: -2358.38560075016312   -2.46293e-06   2.98136e-07 DIIS
   @DF-RHF iter  14: -2358.38560170696928   -9.56806e-07   1.71468e-07 DIIS
   @DF-RHF iter  15: -2358.38560201615655   -3.09187e-07   8.79860e-08 DIIS
   @DF-RHF iter  16: -2358.38560206888633   -5.27298e-08   5.75921e-08 DIIS
   @DF-RHF iter  17: -2358.38560208325043   -1.43641e-08   3.12176e-08 DIIS
   @DF-RHF iter  18: -2358.38560208818080   -4.93037e-09   1.96095e-08 DIIS
   @DF-RHF iter  19: -2358.38560209019306   -2.01226e-09   1.10703e-08 DIIS
   @DF-RHF iter  20: -2358.38560209085199   -6.58929e-10   6.94668e-09 DIIS
  Energy and wave function converged.


  ==> Post-Iterations <==

    Orbital Energies [Eh]
    ---------------------

    Doubly Occupied:                                                      

       1A    -15.744341     2A    -15.743203     3A    -11.495526  
       4A    -11.401040     5A    -11.393902     6A    -11.392290  
       7A    -11.382886     8A    -11.380616     9A    -11.378970  
      10A    -11.366082    11A    -11.365851    12A    -11.364566  
      13A    -11.364189    14A    -11.363878    15A    -11.360349  
      16A    -11.359978    17A    -11.359612    18A    -11.359109  
      19A    -11.358359    20A    -11.358072    21A    -11.358052  
      22A    -11.358015    23A    -11.357296    24A    -11.356985  
      25A    -11.356703    26A    -11.356270    27A    -11.356118  
      28A    -11.355867    29A    -11.355830    30A    -11.355582  
      31A    -11.355490    32A    -11.355023    33A    -11.354753  
      34A    -11.353901    35A    -11.353785    36A    -11.353376  
      37A    -11.352075    38A    -11.351222    39A    -11.350115  
      40A    -11.349689    41A    -11.348909    42A    -11.348545  
      43A    -11.347565    44A    -11.346775    45A    -11.346067  
      46A    -11.344260    47A    -11.344072    48A    -11.343806  
      49A    -11.343631    50A    -11.343454    51A    -11.341659  
      52A    -11.341482    53A    -11.339963    54A    -11.339814  
      55A    -11.339677    56A    -11.339526    57A    -11.338446  
      58A    -11.338056    59A    -11.336923    60A    -11.336290  
      61A    -11.334003    62A     -1.544615    63A     -1.410835  
      64A     -1.370299    65A     -1.337761    66A     -1.330904  
      67A     -1.304116    68A     -1.292210    69A     -1.288366  
      70A     -1.262116    71A     -1.257717    72A     -1.250724  
      73A     -1.242537    74A     -1.218918    75A     -1.211761  
      76A     -1.208164    77A     -1.190501    78A     -1.185260  
      79A     -1.183179    80A     -1.160766    81A     -1.159886  
      82A     -1.156193    83A     -1.142825    84A     -1.131987  
      85A     -1.122709    86A     -1.112854    87A     -1.112443  
      88A     -1.105500    89A     -1.099104    90A     -1.092544  
      91A     -1.063371    92A     -1.057442    93A     -1.047405  
      94A     -1.019376    95A     -1.008772    96A     -0.996284  
      97A     -0.993294    98A     -0.986725    99A     -0.986081  
     100A     -0.984649   101A     -0.963382   102A     -0.957383  
     103A     -0.951414   104A     -0.928970   105A     -0.924267  
     106A     -0.918563   107A     -0.915223   108A     -0.914364  
     109A     -0.900344   110A     -0.889383   111A     -0.870730  
     112A     -0.855268   113A     -0.853001   114A     -0.850326  
     115A     -0.839878   116A     -0.832664   117A     -0.831649  
     118A     -0.827573   119A     -0.816164   120A     -0.804890  
     121A     -0.799529   122A     -0.794085   123A     -0.794014  
     124A     -0.786341   125A     -0.776044   126A     -0.771791  
     127A     -0.761209   128A     -0.756383   129A     -0.752059  
     130A     -0.745404   131A     -0.744180   132A     -0.741981  
     133A     -0.735250   134A     -0.733881   135A     -0.731787  
     136A     -0.728334   137A     -0.727524   138A     -0.725566  
     139A     -0.709556   140A     -0.703550   141A     -0.700335  
     142A     -0.695917   143A     -0.695111   144A     -0.694262  
     145A     -0.693663   146A     -0.691892   147A     -0.688922  
     148A     -0.678926   149A     -0.675475   150A     -0.669851  
     151A     -0.668221   152A     -0.667132   153A     -0.659894  
     154A     -0.658898   155A     -0.658414   156A     -0.650866  
     157A     -0.648346   158A     -0.648270   159A     -0.637809  
     160A     -0.632685   161A     -0.631646   162A     -0.626455  
     163A     -0.625845   164A     -0.618723   165A     -0.617470  
     166A     -0.609601   167A     -0.599554   168A     -0.596926  
     169A     -0.592478   170A     -0.587484   171A     -0.583543  
     172A     -0.579782   173A     -0.579414   174A     -0.577748  
     175A     -0.571118   176A     -0.563041   177A     -0.553264  
     178A     -0.552626   179A     -0.532767   180A     -0.532552  
     181A     -0.515459   182A     -0.495369   183A     -0.494012  
     184A     -0.488378   185A     -0.467877   186A     -0.465032  
     187A     -0.462842   188A     -0.435530   189A     -0.421603  
     190A     -0.405869   191A     -0.400028   192A     -0.397437  
     193A     -0.382469   194A     -0.374376   195A     -0.362644  
     196A     -0.305606   197A     -0.303324  

    Virtual:                                                              

     198A     -0.096833   199A     -0.096394   200A     -0.047308  
     201A     -0.044669   202A     -0.035411   203A     -0.032599  
     204A     -0.023348   205A     -0.020355   206A     -0.019431  
     207A     -0.013132   208A     -0.012737   209A     -0.012559  
     210A     -0.011142   211A     -0.004419   212A     -0.003954  
     213A     -0.003602   214A     -0.001601   215A      0.000041  
     216A      0.000604   217A      0.006867   218A      0.011888  
     219A      0.012068   220A      0.012663   221A      0.012931  
     222A      0.016733   223A      0.018248   224A      0.019821  
     225A      0.026245   226A      0.027699   227A      0.027770  
     228A      0.028291   229A      0.029482   230A      0.030862  
     231A      0.032159   232A      0.035564   233A      0.038729  
     234A      0.042061   235A      0.044346   236A      0.047596  
     237A      0.053202   238A      0.054720   239A      0.055140  
     240A      0.057953   241A      0.059879   242A      0.060157  
     243A      0.061789   244A      0.062847   245A      0.064130  
     246A      0.066885   247A      0.069313   248A      0.069601  
     249A      0.075268   250A      0.076138   251A      0.076658  
     252A      0.078277   253A      0.079145   254A      0.079894  
     255A      0.086911   256A      0.088850   257A      0.091849  
     258A      0.092293   259A      0.093963   260A      0.095891  
     261A      0.096710   262A      0.098310   263A      0.099362  
     264A      0.100268   265A      0.103036   266A      0.103177  
     267A      0.110505   268A      0.112877   269A      0.113484  
     270A      0.113927   271A      0.116733   272A      0.117235  
     273A      0.117737   274A      0.119647   275A      0.121943  
     276A      0.126085   277A      0.130148   278A      0.131639  
     279A      0.131799   280A      0.134351   281A      0.137288  
     282A      0.138980   283A      0.141593   284A      0.141725  
     285A      0.142918   286A      0.143224   287A      0.144211  
     288A      0.144954   289A      0.145280   290A      0.146281  
     291A      0.149002   292A      0.150444   293A      0.151401  
     294A      0.151648   295A      0.153489   296A      0.158948  
     297A      0.159664   298A      0.159966   299A      0.162108  
     300A      0.162206   301A      0.164445   302A      0.165648  
     303A      0.167799   304A      0.169088   305A      0.174095  
     306A      0.175131   307A      0.176209   308A      0.178191  
     309A      0.178905   310A      0.179627   311A      0.179734  
     312A      0.181360   313A      0.183020   314A      0.184369  
     315A      0.186747   316A      0.186890   317A      0.189167  
     318A      0.190188   319A      0.190451   320A      0.191565  
     321A      0.195234   322A      0.196109   323A      0.198723  
     324A      0.199204   325A      0.199991   326A      0.200716  
     327A      0.202763   328A      0.203910   329A      0.210449  
     330A      0.211415   331A      0.212321   332A      0.213489  
     333A      0.214951   334A      0.216951   335A      0.219073  
     336A      0.222136   337A      0.222648   338A      0.224023  
     339A      0.226305   340A      0.228714   341A      0.230404  
     342A      0.230734   343A      0.231013   344A      0.232784  
     345A      0.233243   346A      0.236440   347A      0.237612  
     348A      0.237775   349A      0.238984   350A      0.240180  
     351A      0.240427   352A      0.240906   353A      0.241650  
     354A      0.242080   355A      0.244304   356A      0.244817  
     357A      0.248625   358A      0.249238   359A      0.249946  
     360A      0.250353   361A      0.252448   362A      0.253785  
     363A      0.254634   364A      0.259734   365A      0.262733  
     366A      0.263042   367A      0.266165   368A      0.266906  
     369A      0.269104   370A      0.271044   371A      0.272225  
     372A      0.273146   373A      0.273307   374A      0.273967  
     375A      0.275525   376A      0.278213   377A      0.278416  
     378A      0.279508   379A      0.281317   380A      0.282404  
     381A      0.284888   382A      0.285544   383A      0.286476  
     384A      0.289370   385A      0.289888   386A      0.290807  
     387A      0.291756   388A      0.292551   389A      0.294185  
     390A      0.294898   391A      0.296705   392A      0.301179  
     393A      0.302286   394A      0.304801   395A      0.304953  
     396A      0.306345   397A      0.307372   398A      0.309120  
     399A      0.310733   400A      0.311673   401A      0.313857  
     402A      0.315975   403A      0.316877   404A      0.319340  
     405A      0.320822   406A      0.322109   407A      0.323268  
     408A      0.324513   409A      0.325110   410A      0.325321  
     411A      0.325717   412A      0.327998   413A      0.328572  
     414A      0.329085   415A      0.329789   416A      0.331153  
     417A      0.331269   418A      0.331727   419A      0.332488  
     420A      0.337322   421A      0.342044   422A      0.343342  
     423A      0.345934   424A      0.347006   425A      0.350777  
     426A      0.351580   427A      0.352691   428A      0.354084  
     429A      0.355434   430A      0.356477   431A      0.357391  
     432A      0.360241   433A      0.361048   434A      0.363371  
     435A      0.364940   436A      0.366131   437A      0.367702  
     438A      0.369042   439A      0.369831   440A      0.370847  
     441A      0.372427   442A      0.373565   443A      0.374813  
     444A      0.378577   445A      0.379127   446A      0.382751  
     447A      0.383033   448A      0.384318   449A      0.389088  
     450A      0.390218   451A      0.393897   452A      0.395475  
     453A      0.397631   454A      0.400545   455A      0.401454  
     456A      0.403296   457A      0.404623   458A      0.406080  
     459A      0.407953   460A      0.408639   461A      0.409573  
     462A      0.412886   463A      0.415363   464A      0.416553  
     465A      0.417178   466A      0.420066   467A      0.422096  
     468A      0.426054   469A      0.426458   470A      0.428046  
     471A      0.429037   472A      0.431826   473A      0.432317  
     474A      0.439693   475A      0.441858   476A      0.443845  
     477A      0.447846   478A      0.450492   479A      0.452151  
     480A      0.454334   481A      0.454689   482A      0.456730  
     483A      0.457529   484A      0.459670   485A      0.462744  
     486A      0.465035   487A      0.465709   488A      0.466667  
     489A      0.468433   490A      0.471537   491A      0.472996  
     492A      0.474526   493A      0.475398   494A      0.477022  
     495A      0.479180   496A      0.479907   497A      0.484797  
     498A      0.489962   499A      0.493010   500A      0.499010  
     501A      0.505043   502A      0.507617   503A      0.509927  
     504A      0.511121   505A      0.516204   506A      0.518693  
     507A      0.520554   508A      0.522454   509A      0.526978  
     510A      0.531159   511A      0.532348   512A      0.535162  
     513A      0.536707   514A      0.539979   515A      0.542823  
     516A      0.546398   517A      0.555094   518A      0.556398  
     519A      0.557244   520A      0.561603   521A      0.567013  
     522A      0.568226   523A      0.570317   524A      0.576240  
     525A      0.582201   526A      0.584319   527A      0.584955  
     528A      0.590434   529A      0.599797   530A      0.617334  
     531A      0.618444   532A      0.621771   533A      0.630138  
     534A      0.645958   535A      0.648226   536A      0.649157  
     537A      0.650077   538A      0.652100   539A      0.653599  
     540A      0.657481   541A      0.662530   542A      0.667708  
     543A      0.684780   544A      0.693255   545A      0.695852  
     546A      0.705680   547A      0.707130   548A      0.717727  
     549A      0.723813   550A      0.728330   551A      0.732345  
     552A      0.734081   553A      0.738996   554A      0.750525  
     555A      0.758482   556A      0.765402   557A      0.767282  
     558A      0.768503   559A      0.770307   560A      0.770635  
     561A      0.774940   562A      0.778270   563A      0.783814  
     564A      0.786699   565A      0.790911   566A      0.791796  
     567A      0.792808   568A      0.794281   569A      0.795255  
     570A      0.798507   571A      0.801066   572A      0.801856  
     573A      0.805877   574A      0.806046   575A      0.810150  
     576A      0.811646   577A      0.814162   578A      0.818132  
     579A      0.818686   580A      0.819795   581A      0.825137  
     582A      0.825919   583A      0.827676   584A      0.829045  
     585A      0.829585   586A      0.832656   587A      0.835311  
     588A      0.836743   589A      0.840566   590A      0.842066  
     591A      0.846694   592A      0.847708   593A      0.850237  
     594A      0.855356   595A      0.856155   596A      0.857237  
     597A      0.859023   598A      0.859629   599A      0.862249  
     600A      0.864206   601A      0.866985   602A      0.868641  
     603A      0.869342   604A      0.870822   605A      0.872846  
     606A      0.879149   607A      0.879508   608A      0.881955  
     609A      0.883899   610A      0.885752   611A      0.887067  
     612A      0.890374   613A      0.892401   614A      0.894267  
     615A      0.896426   616A      0.897608   617A      0.900850  
     618A      0.904502   619A      0.908087   620A      0.908424  
     621A      0.911682   622A      0.915929   623A      0.917916  
     624A      0.920635   625A      0.920917   626A      0.923034  
     627A      0.927175   628A      0.930544   629A      0.932556  
     630A      0.933577   631A      0.934613   632A      0.937371  
     633A      0.938877   634A      0.941423   635A      0.943839  
     636A      0.946083   637A      0.947334   638A      0.947704  
     639A      0.951038   640A      0.951638   641A      0.953447  
     642A      0.954559   643A      0.955981   644A      0.956783  
     645A      0.958623   646A      0.959151   647A      0.963365  
     648A      0.964638   649A      0.967339   650A      0.970709  
     651A      0.972272   652A      0.973355   653A      0.975990  
     654A      0.980014   655A      0.981868   656A      0.984093  
     657A      0.986501   658A      0.986758   659A      0.991638  
     660A      0.992709   661A      0.995749   662A      0.996508  
     663A      0.999025   664A      1.001908   665A      1.002235  
     666A      1.003200   667A      1.006713   668A      1.010389  
     669A      1.012257   670A      1.014988   671A      1.017659  
     672A      1.019694   673A      1.022026   674A      1.025097  
     675A      1.026811   676A      1.031377   677A      1.034226  
     678A      1.036724   679A      1.038752   680A      1.040945  
     681A      1.042215   682A      1.043846   683A      1.049429  
     684A      1.050960   685A      1.052397   686A      1.057067  
     687A      1.059949   688A      1.062692   689A      1.070616  
     690A      1.073984   691A      1.075481   692A      1.077604  
     693A      1.084870   694A      1.089714   695A      1.092253  
     696A      1.096236   697A      1.101128   698A      1.108004  
     699A      1.110114   700A      1.116169   701A      1.117980  
     702A      1.119807   703A      1.121708   704A      1.124865  
     705A      1.125327   706A      1.129592   707A      1.131896  
     708A      1.133462   709A      1.138663   710A      1.142312  
     711A      1.144654   712A      1.150754   713A      1.155538  
     714A      1.155760   715A      1.157509   716A      1.157983  
     717A      1.158786   718A      1.164914   719A      1.165411  
     720A      1.166664   721A      1.166989   722A      1.169260  
     723A      1.172666   724A      1.181230   725A      1.182951  
     726A      1.184199   727A      1.188386   728A      1.190972  
     729A      1.192952   730A      1.193686   731A      1.194615  
     732A      1.201623   733A      1.205782   734A      1.207082  
     735A      1.208553   736A      1.210271   737A      1.212863  
     738A      1.218366   739A      1.220763   740A      1.226318  
     741A      1.228649   742A      1.231906   743A      1.233861  
     744A      1.235021   745A      1.238686   746A      1.242073  
     747A      1.243252   748A      1.248149   749A      1.248526  
     750A      1.251180   751A      1.252563   752A      1.254176  
     753A      1.256557   754A      1.260375   755A      1.267896  
     756A      1.271134   757A      1.274618   758A      1.278377  
     759A      1.280870   760A      1.282033   761A      1.287392  
     762A      1.290782   763A      1.293989   764A      1.297355  
     765A      1.298920   766A      1.300960   767A      1.311119  
     768A      1.313092   769A      1.321075   770A      1.321731  
     771A      1.324375   772A      1.325083   773A      1.327915  
     774A      1.329112   775A      1.334010   776A      1.335521  
     777A      1.342579   778A      1.343453   779A      1.347945  
     780A      1.348333   781A      1.351731   782A      1.353579  
     783A      1.357543   784A      1.361348   785A      1.369497  
     786A      1.371365   787A      1.373930   788A      1.374571  
     789A      1.375501   790A      1.382361   791A      1.383393  
     792A      1.391609   793A      1.398722   794A      1.403886  
     795A      1.411180   796A      1.413947   797A      1.417374  
     798A      1.418488   799A      1.421951   800A      1.430667  
     801A      1.434551   802A      1.449057   803A      1.461717  
     804A      1.476358   805A      1.478022   806A      1.487869  
     807A      1.490836   808A      1.498051   809A      1.500991  
     810A      1.501667   811A      1.509670   812A      1.517776  
     813A      1.523005   814A      1.528991   815A      1.531876  
     816A      1.535500   817A      1.543642   818A      1.545522  
     819A      1.547848   820A      1.551319   821A      1.556022  
     822A      1.559319   823A      1.564887   824A      1.566496  
     825A      1.569622   826A      1.574137   827A      1.575920  
     828A      1.581318   829A      1.582936   830A      1.585177  
     831A      1.590780   832A      1.593749   833A      1.594953  
     834A      1.595390   835A      1.599016   836A      1.603846  
     837A      1.607649   838A      1.609626   839A      1.613848  
     840A      1.617973   841A      1.619695   842A      1.626295  
     843A      1.635709   844A      1.646772   845A      1.650945  
     846A      1.655187   847A      1.655774   848A      1.660046  
     849A      1.661966   850A      1.666124   851A      1.670651  
     852A      1.672173   853A      1.673886   854A      1.678579  
     855A      1.683856   856A      1.686540   857A      1.694533  
     858A      1.697079   859A      1.698433   860A      1.701531  
     861A      1.710889   862A      1.716158   863A      1.720192  
     864A      1.723486   865A      1.727930   866A      1.730465  
     867A      1.739229   868A      1.743039   869A      1.746891  
     870A      1.750951   871A      1.751824   872A      1.758390  
     873A      1.764765   874A      1.766028   875A      1.767976  
     876A      1.772415   877A      1.774746   878A      1.778771  
     879A      1.780530   880A      1.787112   881A      1.788921  
     882A      1.791792   883A      1.795474   884A      1.796495  
     885A      1.798474   886A      1.801976   887A      1.805018  
     888A      1.806468   889A      1.810806   890A      1.814742  
     891A      1.818991   892A      1.822074   893A      1.824606  
     894A      1.826922   895A      1.828986   896A      1.835554  
     897A      1.838591   898A      1.841722   899A      1.845128  
     900A      1.850560   901A      1.854761   902A      1.857855  
     903A      1.859909   904A      1.862977   905A      1.865073  
     906A      1.868241   907A      1.869177   908A      1.872488  
     909A      1.875979   910A      1.881875   911A      1.882705  
     912A      1.886839   913A      1.892639   914A      1.895236  
     915A      1.896763   916A      1.903506   917A      1.905756  
     918A      1.908190   919A      1.909605   920A      1.912927  
     921A      1.915803   922A      1.919632   923A      1.921910  
     924A      1.924921   925A      1.928408   926A      1.933184  
     927A      1.935299   928A      1.937174   929A      1.939103  
     930A      1.943680   931A      1.946055   932A      1.947547  
     933A      1.951234   934A      1.956785   935A      1.958070  
     936A      1.960571   937A      1.962054   938A      1.965444  
     939A      1.970261   940A      1.974701   941A      1.976518  
     942A      1.978924   943A      1.983801   944A      1.985380  
     945A      1.988391   946A      1.995309   947A      1.995826  
     948A      2.000538   949A      2.001476   950A      2.003612  
     951A      2.005739   952A      2.007463   953A      2.009758  
     954A      2.012320   955A      2.013638   956A      2.014804  
     957A      2.017080   958A      2.018561   959A      2.021558  
     960A      2.027051   961A      2.027538   962A      2.028873  
     963A      2.032395   964A      2.034219   965A      2.036598  
     966A      2.039262   967A      2.040473   968A      2.043507  
     969A      2.046436   970A      2.049133   971A      2.050977  
     972A      2.052760   973A      2.054554   974A      2.058157  
     975A      2.059631   976A      2.065824   977A      2.067166  
     978A      2.071634   979A      2.073909   980A      2.081305  
     981A      2.082723   982A      2.086368   983A      2.087788  
     984A      2.089339   985A      2.096800   986A      2.101956  
     987A      2.102645   988A      2.105009   989A      2.108006  
     990A      2.111492   991A      2.114489   992A      2.120431  
     993A      2.125987   994A      2.131461   995A      2.135663  
     996A      2.138326   997A      2.141016   998A      2.150959  
     999A      2.152410  1000A      2.154942  1001A      2.156276  
    1002A      2.158179  1003A      2.159798  1004A      2.160042  
    1005A      2.166584  1006A      2.168490  1007A      2.168930  
    1008A      2.173906  1009A      2.175352  1010A      2.179284  
    1011A      2.180834  1012A      2.184360  1013A      2.187649  
    1014A      2.188640  1015A      2.195284  1016A      2.196148  
    1017A      2.202650  1018A      2.209195  1019A      2.215660  
    1020A      2.222492  1021A      2.223010  1022A      2.234604  
    1023A      2.234992  1024A      2.247691  1025A      2.252271  
    1026A      2.255392  1027A      2.260018  1028A      2.261923  
    1029A      2.265009  1030A      2.267389  1031A      2.277971  
    1032A      2.279204  1033A      2.280315  1034A      2.290111  
    1035A      2.295394  1036A      2.299110  1037A      2.305306  
    1038A      2.307646  1039A      2.308572  1040A      2.311336  
    1041A      2.315405  1042A      2.325825  1043A      2.329610  
    1044A      2.332953  1045A      2.334917  1046A      2.343951  
    1047A      2.358264  1048A      2.366897  1049A      2.369345  
    1050A      2.375458  1051A      2.377834  1052A      2.383570  
    1053A      2.395389  1054A      2.401274  1055A      2.402372  
    1056A      2.405067  1057A      2.413218  1058A      2.417784  
    1059A      2.423208  1060A      2.426820  1061A      2.432544  
    1062A      2.436213  1063A      2.439880  1064A      2.442056  
    1065A      2.448017  1066A      2.454392  1067A      2.458040  
    1068A      2.461817  1069A      2.462694  1070A      2.469995  
    1071A      2.472234  1072A      2.475554  1073A      2.478086  
    1074A      2.482130  1075A      2.487457  1076A      2.495003  
    1077A      2.498682  1078A      2.500341  1079A      2.506606  
    1080A      2.510454  1081A      2.513088  1082A      2.517635  
    1083A      2.522388  1084A      2.523662  1085A      2.534320  
    1086A      2.539785  1087A      2.548893  1088A      2.554182  
    1089A      2.557535  1090A      2.560342  1091A      2.565472  
    1092A      2.566260  1093A      2.578830  1094A      2.582203  
    1095A      2.588935  1096A      2.592165  1097A      2.597602  
    1098A      2.601397  1099A      2.606154  1100A      2.607015  
    1101A      2.612771  1102A      2.616707  1103A      2.618393  
    1104A      2.628156  1105A      2.630498  1106A      2.634701  
    1107A      2.637241  1108A      2.645560  1109A      2.657510  
    1110A      2.669092  1111A      2.677430  1112A      2.683328  
    1113A      2.685648  1114A      2.697648  1115A      2.701992  
    1116A      2.711342  1117A      2.718493  1118A      2.724532  
    1119A      2.738494  1120A      2.741851  1121A      2.745456  
    1122A      2.751016  1123A      2.752589  1124A      2.763185  
    1125A      2.770936  1126A      2.777312  1127A      2.780332  
    1128A      2.791083  1129A      2.794912  1130A      2.796334  
    1131A      2.801832  1132A      2.812884  1133A      2.821256  
    1134A      2.831372  1135A      2.832836  1136A      2.847818  
    1137A      2.855100  1138A      2.861584  1139A      2.870399  
    1140A      2.875131  1141A      2.881153  1142A      2.899822  
    1143A      2.908937  1144A      2.910527  1145A      2.921434  
    1146A      2.926697  1147A      2.937218  1148A      2.954878  
    1149A      2.959091  1150A      2.961256  1151A      2.963716  
    1152A      2.977564  1153A      2.982774  1154A      2.996393  
    1155A      3.002957  1156A      3.014249  1157A      3.023754  
    1158A      3.025077  1159A      3.032705  1160A      3.042037  
    1161A      3.045323  1162A      3.051969  1163A      3.052987  
    1164A      3.059863  1165A      3.061888  1166A      3.063985  
    1167A      3.069209  1168A      3.078404  1169A      3.098462  
    1170A      3.103339  1171A      3.107551  1172A      3.114035  
    1173A      3.131647  1174A      3.136161  1175A      3.149747  
    1176A      3.157465  1177A      3.166067  1178A      3.184080  
    1179A      3.188720  1180A      3.195522  1181A      3.214596  
    1182A      3.225566  1183A      3.242366  1184A      3.254599  
    1185A      3.261633  1186A      3.266587  1187A      3.304527  
    1188A      3.320608  1189A      3.329675  1190A      3.353598  
    1191A      3.377236  1192A      3.388723  1193A      3.396374  
    1194A      3.418173  1195A      3.445093  1196A      3.477511  
    1197A      3.561679  1198A      3.573976  1199A      3.586312  
    1200A      3.595210  1201A      3.597414  1202A      3.606858  
    1203A      3.617622  1204A      3.743660  1205A      3.759463  
    1206A      3.781849  1207A      3.783300  1208A      3.812960  
    1209A      3.827699  1210A      3.837407  1211A      3.910320  
    1212A      3.925105  1213A      4.049250  1214A      4.170483  
    1215A      4.292034  1216A      4.363231  1217A      4.406391  
    1218A      4.785924  

    Final Occupation by Irrep:
              A 
    DOCC [   197 ]
    NA   [   197 ]
    NB   [   197 ]

  @DF-RHF Final Energy: -2358.38560209085199

   => Energetics <=

    Nuclear Repulsion Energy =           8808.7500549332871742
    One-Electron Energy =              -20709.8897240548903937
    Two-Electron Energy =                9542.7540670307516848
    Total Energy =                      -2358.3856020908515347

Computation Completed


Properties will be evaluated at   0.000000,   0.000000,   0.000000 [a0]

Properties computed using the SCF density matrix


 Multipole Moments:

 ------------------------------------------------------------------------------------
     Multipole            Electronic (a.u.)      Nuclear  (a.u.)        Total (a.u.)
 ------------------------------------------------------------------------------------

 L = 1.  Multiply by 2.5417464519 to convert [e a0] to [Debye]
 Dipole X            :          0.0502834            0.0006313            0.0509147
 Dipole Y            :         -2.1474824            1.8864948           -0.2609876
 Dipole Z            :         -8.8187896           10.3694728            1.5506833
 Magnitude           :                                                    1.5733167

 ------------------------------------------------------------------------------------

*** tstop() called on d-3-8-3 at Mon Jan 22 16:39:31 2024
Module time:
	user time   =    5700.23 seconds =      95.00 minutes
	system time =     354.00 seconds =       5.90 minutes
	total time  =       1826 seconds =      30.43 minutes
Total time:
	user time   =    5700.23 seconds =      95.00 minutes
	system time =     354.00 seconds =       5.90 minutes
	total time  =       1826 seconds =      30.43 minutes

  //>>>>>>>>>>>>>>>>>>>>>>>>>>>>>>>>>>>//
  //            Monomer A HF           //
  //<<<<<<<<<<<<<<<<<<<<<<<<<<<<<<<<<<<//

   => Libint2 <=

    Primary   basis highest AM E, G, H:  7, 7, 4
    Auxiliary basis highest AM E, G, H:  7, 7, 5
    Onebody   basis highest AM E, G, H:  7, 7, 5
    Solid Harmonics ordering:            gaussian

*** tstart() called on d-3-8-3
*** at Mon Jan 22 16:39:31 2024

   => Loading Basis Set <=

    Name: JUN-CC-PVDZ
    Role: ORBITAL
    Keyword: BASIS
    atoms 1-2, 4-5, 10, 17-70 entry C          line   164 file /home/gridsan/tfroembgen/.conda/envs/psi4test/share/psi4/basis/jun-cc-pvdz.gbs 
    atoms 3, 6                entry N          line   198 file /home/gridsan/tfroembgen/.conda/envs/psi4test/share/psi4/basis/jun-cc-pvdz.gbs 
    atoms 7-9, 11-16, 71-88   entry H          line    36 file /home/gridsan/tfroembgen/.conda/envs/psi4test/share/psi4/basis/jun-cc-pvdz.gbs 


         ---------------------------------------------------------
                                   SCF
               by Justin Turney, Rob Parrish, Andy Simmonett
                          and Daniel G. A. Smith
                              RHF Reference
                       12 Threads,  30517 MiB Core
         ---------------------------------------------------------

  ==> Geometry <==

    Molecular point group: c1
    Full point group: C1

    Geometry (in Angstrom), charge = 1, multiplicity = 1:

       Center              X                  Y                   Z               Mass       
    ------------   -----------------  -----------------  -----------------  -----------------
         C            0.680066520158    -1.215933861162     1.753656451385    12.000000000000
         C           -0.680504479842    -1.215549861162     1.751628451385    12.000000000000
         N           -1.085635479842     0.102774138838     1.750630451385    14.003074004430
         C            0.000107520158     0.884175138838     1.747354451385    12.000000000000
         C           -2.477365479842     0.570753138838     1.701224451385    12.000000000000
         N            1.085221520158     0.102774138838     1.750630451385    14.003074004430
         H            1.385145520158    -2.033372861162     1.761484451385     1.007825032230
         H           -1.385302479842    -2.033218861162     1.751818451385     1.007825032230
         H           -0.000009479842     1.965264138838     1.745607451385     1.007825032230
         C            2.478116520158     0.567872138838     1.767522451385    12.000000000000
         H            2.490591520158     1.658125138838     1.740177451385     1.007825032230
         H            2.967027520158     0.220696138838     2.680968451385     1.007825032230
         H            3.001427520158     0.176400138838     0.892039451385     1.007825032230
         H           -2.857359479842     0.490794138838     0.679153451385     1.007825032230
         H           -3.082679479842    -0.042310861162     2.371308451385     1.007825032230
         H           -2.518128479842     1.610701138838     2.028208451385     1.007825032230
      Gh(C)           1.225311895423     0.707533799757    -0.248247921331    12.000000000000
      Gh(C)           1.225323856051    -0.707543383733    -0.260578730901    12.000000000000
      Gh(C)          -0.000006153932     1.414961424928    -0.261112354422    12.000000000000
      Gh(C)           2.456448753949     1.418323398016    -0.245361063931    12.000000000000
      Gh(C)           0.000010827279    -1.414980987797    -0.250912797098    12.000000000000
      Gh(C)          -1.225300948908     0.707540884822    -0.245996401009    12.000000000000
      Gh(C)           2.456437755320    -1.418327793043    -0.262823887758    12.000000000000
      Gh(C)          -0.000001332978     2.836796542119    -0.263515904556    12.000000000000
      Gh(C)           3.681826697470     0.709313466839    -0.262475097960    12.000000000000
      Gh(C)           2.455120048865     2.834219172327    -0.262577654921    12.000000000000
      Gh(C)           3.681821105219    -0.709338328591    -0.246402613942    12.000000000000
      Gh(C)          -1.225313598688    -0.707532004706    -0.259505969474    12.000000000000
      Gh(C)           1.226699581202     3.543464994832    -0.246218582011    12.000000000000
      Gh(C)           0.000004784858    -2.836786628398    -0.246064629476    12.000000000000
      Gh(C)          -2.456436032848     1.418312429123    -0.245961005163    12.000000000000
      Gh(C)           2.455123417779    -2.834234517751    -0.246554522310    12.000000000000
      Gh(C)          -1.226714364589     3.543464574588    -0.246115248792    12.000000000000
      Gh(C)           4.914517295202     1.427168383327    -0.255994414931    12.000000000000
      Gh(C)           3.693150191476     3.542790803383    -0.255944615295    12.000000000000
      Gh(C)          -2.456437600068    -1.418317770001    -0.262848925883    12.000000000000
      Gh(C)           1.226704841943    -3.543478731069    -0.262188712761    12.000000000000
      Gh(C)          -2.455125398508     2.834212173472    -0.262571278575    12.000000000000
      Gh(C)           4.914524380782    -1.427191399106    -0.253021672196    12.000000000000
      Gh(C)           1.221424613699     4.970129576098    -0.252883237937    12.000000000000
      Gh(C)           4.893008229321     2.825183510864    -0.254777746572    12.000000000000
      Gh(C)          -1.226697008489    -3.543475486239    -0.261921508352    12.000000000000
      Gh(C)          -3.681818976526     0.709320477570    -0.262462417480    12.000000000000
      Gh(C)           3.693147101150    -3.542805830553    -0.252903781636    12.000000000000
      Gh(C)          -1.221432251994     4.970123808701    -0.252699742564    12.000000000000
      Gh(C)           6.134770972926     0.680543457943    -0.255224640381    12.000000000000
      Gh(C)           3.656788880610     4.972948754405    -0.255035977512    12.000000000000
      Gh(C)          -2.455126907733    -2.834219582223    -0.246798880108    12.000000000000
      Gh(C)          -3.681819179061    -0.709330192631    -0.246284992363    12.000000000000
      Gh(C)           4.893012617914    -2.825204594794    -0.254166594677    12.000000000000
      Gh(C)          -0.000001073113     5.650442876870    -0.253931051271    12.000000000000
      Gh(C)           6.134775112332    -0.680559343237    -0.253959319865    12.000000000000
      Gh(C)           2.478131482856     5.653572262169    -0.253747197862    12.000000000000
      Gh(C)           1.221422404738    -4.970131544095    -0.255682734959    12.000000000000
      Gh(C)          -3.693162383965     3.542792465030    -0.255779107835    12.000000000000
      Gh(C)          -1.221428520945    -4.970122792758    -0.255795496792    12.000000000000
      Gh(C)          -4.914521807942     1.427170957833    -0.255917469923    12.000000000000
      Gh(C)           3.656787019679    -4.972959715401    -0.253585476978    12.000000000000
      Gh(C)          -2.478138530106     5.653569933366    -0.253462672854    12.000000000000
      Gh(C)          -3.693141738564    -3.542794708141    -0.253019907791    12.000000000000
      Gh(C)          -4.914512483053    -1.427185489190    -0.252986975023    12.000000000000
      Gh(C)          -0.000006008926    -5.650442776176    -0.254326555392    12.000000000000
      Gh(C)          -4.893020484101     2.825184109757    -0.254787828432    12.000000000000
      Gh(C)           2.478125993298    -5.653578033051    -0.254676077770    12.000000000000
      Gh(C)          -3.656798710258     4.972951692879    -0.254859297138    12.000000000000
      Gh(C)          -4.892999478856    -2.825196256222    -0.254320630374    12.000000000000
      Gh(C)          -2.478128498083    -5.653570659169    -0.254951265418    12.000000000000
      Gh(C)          -6.134770503331     0.680544277094    -0.255250192083    12.000000000000
      Gh(C)          -3.656788833189    -4.972948512133    -0.253799764795    12.000000000000
      Gh(C)          -6.134765042913    -0.680558404644    -0.253979795660    12.000000000000
      Gh(H)           5.835288495816     3.369271405792    -0.250418420909     1.007825032230
      Gh(H)           7.073859172747     1.228212759737    -0.254762996988     1.007825032230
      Gh(H)           4.600663264174     5.512376313291    -0.254530776760     1.007825032230
      Gh(H)           5.835283387305    -3.369310545891    -0.258621061991     1.007825032230
      Gh(H)          -0.000012151306     6.738526184974    -0.258280296279     1.007825032230
      Gh(H)           7.073861171831    -1.228231431906    -0.254468057960     1.007825032230
      Gh(H)           2.473313731799     6.740679802232    -0.254213918793     1.007825032230
      Gh(H)           4.600668491381    -5.512380618338    -0.253995474146     1.007825032230
      Gh(H)          -2.473318680537     6.740677230444    -0.253912572168     1.007825032230
      Gh(H)          -0.000010268228    -6.738532665614    -0.249796870407     1.007825032230
      Gh(H)          -5.835301914343     3.369266461134    -0.250282398761     1.007825032230
      Gh(H)           2.473307923831    -6.740689863591    -0.254105747345     1.007825032230
      Gh(H)          -4.600674841208     5.512373537441    -0.254365448436     1.007825032230
      Gh(H)          -5.835279506835    -3.369293452942    -0.258900367872     1.007825032230
      Gh(H)          -2.473300347440    -6.740683567302    -0.254555063890     1.007825032230
      Gh(H)          -7.073857766768     1.228215983678    -0.254846988469     1.007825032230
      Gh(H)          -4.600673786085    -5.512367158949    -0.254167782169     1.007825032230
      Gh(H)          -7.073856934409    -1.228225121139    -0.254562914426     1.007825032230

  Running in c1 symmetry.

  Rotational constants: A =      0.00210  B =      0.00206  C =      0.00109 [cm^-1]
  Rotational constants: A =     63.05315  B =     61.73109  C =     32.56832 [MHz]
  Nuclear repulsion =  306.774908447733026

  Charge       = 1
  Multiplicity = 1
  Electrons    = 52
  Nalpha       = 26
  Nbeta        = 26

  ==> Algorithm <==

  SCF Algorithm Type is DF.
  DIIS enabled.
  MOM disabled.
  Fractional occupation disabled.
  Guess Type is SAD.
  Energy threshold   = 1.00e-08
  Density threshold  = 1.00e-08
  Integral threshold = 1.00e-12

  ==> Primary Basis <==

  Basis Set: JUN-CC-PVDZ
    Blend: JUN-CC-PVDZ
    Number of shells: 569
    Number of basis functions: 1233
    Number of Cartesian functions: 1294
    Spherical Harmonics?: true
    Max angular momentum: 2

   => Loading Basis Set <=

    Name: (JUN-CC-PVDZ AUX)
    Role: JKFIT
    Keyword: DF_BASIS_SCF
    atoms 1-2, 4-5, 10, 17-70 entry C          line   146 file /home/gridsan/tfroembgen/.conda/envs/psi4test/share/psi4/basis/jun-cc-pvdz-jkfit.gbs 
    atoms 3, 6                entry N          line   202 file /home/gridsan/tfroembgen/.conda/envs/psi4test/share/psi4/basis/jun-cc-pvdz-jkfit.gbs 
    atoms 7-9, 11-16, 71-88   entry H          line    70 file /home/gridsan/tfroembgen/.conda/envs/psi4test/share/psi4/basis/jun-cc-pvdz-jkfit.gbs 

  ==> Integral Setup <==

  ==> DiskDFJK: Density-Fitted J/K Matrices <==

    J tasked:                  Yes
    K tasked:                  Yes
    wK tasked:                  No
    OpenMP threads:             12
    Integrals threads:          12
    Memory [MiB]:            22888
    Algorithm:                Disk
    Integral Cache:           LOAD
    Schwarz Cutoff:          1E-12
    Fitting Condition:       1E-10

   => Auxiliary Basis Set <=

  Basis Set: (JUN-CC-PVDZ AUX)
    Blend: JUN-CC-PVDZ-JKFIT
    Number of shells: 1890
    Number of basis functions: 5440
    Number of Cartesian functions: 6226
    Spherical Harmonics?: true
    Max angular momentum: 3

  Minimum eigenvalue in the overlap matrix is 1.7332950840E-10.
  Reciprocal condition number of the overlap matrix is 5.9101796145E-12.
    Using canonical orthogonalization.
  Overall, 15 of 1233 possible MOs eliminated.


  ==> Pre-Iterations <==

  SCF Guess: Superposition of Atomic Densities via on-the-fly atomic UHF (no occupation information).

   -------------------------
    Irrep   Nso     Nmo    
   -------------------------
     A       1233    1218 
   -------------------------
    Total    1233    1218
   -------------------------

  ==> Iterations <==

                           Total Energy        Delta E     RMS |[F,P]|

   @DF-RHF iter SAD:  -303.36543237260196   -3.03365e+02   0.00000e+00 
   @DF-RHF iter   1:  -303.17417136764738    1.91261e-01   3.47661e-04 DIIS/ADIIS
   @DF-RHF iter   2:  -303.28876322210709   -1.14592e-01   1.16954e-04 DIIS/ADIIS
   @DF-RHF iter   3:  -303.30039354863794   -1.16303e-02   4.58747e-05 DIIS
   @DF-RHF iter   4:  -303.30234555693028   -1.95201e-03   1.01906e-05 DIIS
   @DF-RHF iter   5:  -303.30245821125840   -1.12654e-04   2.48610e-06 DIIS
   @DF-RHF iter   6:  -303.30246822795635   -1.00167e-05   6.78446e-07 DIIS
   @DF-RHF iter   7:  -303.30246938795676   -1.16000e-06   3.52208e-07 DIIS
   @DF-RHF iter   8:  -303.30246967849467   -2.90538e-07   1.43065e-07 DIIS
   @DF-RHF iter   9:  -303.30246973598616   -5.74915e-08   3.53475e-08 DIIS
   @DF-RHF iter  10:  -303.30246973907748   -3.09132e-09   1.31636e-08 DIIS
   @DF-RHF iter  11:  -303.30246973933356   -2.56080e-10   3.19773e-09 DIIS
  Energy and wave function converged.


  ==> Post-Iterations <==

    Orbital Energies [Eh]
    ---------------------

    Doubly Occupied:                                                      

       1A    -15.834767     2A    -15.834217     3A    -11.528619  
       4A    -11.459398     5A    -11.457831     6A    -11.448864  
       7A    -11.448637     8A     -1.576789     9A     -1.432519  
      10A     -1.237516    11A     -1.188322    12A     -1.118092  
      13A     -1.021332    14A     -0.995924    15A     -0.916106  
      16A     -0.849838    17A     -0.815362    18A     -0.812010  
      19A     -0.789117    20A     -0.785803    21A     -0.780876  
      22A     -0.729082    23A     -0.725169    24A     -0.716816  
      25A     -0.595281    26A     -0.523317  

    Virtual:                                                              

      27A     -0.081084    28A     -0.071760    29A     -0.064564  
      30A     -0.064325    31A     -0.046545    32A     -0.045275  
      33A     -0.044663    34A     -0.040203    35A     -0.034610  
      36A     -0.029136    37A     -0.024522    38A     -0.024180  
      39A     -0.020394    40A     -0.017884    41A     -0.016978  
      42A     -0.013533    43A     -0.009128    44A     -0.004897  
      45A     -0.000094    46A      0.000121    47A      0.003511  
      48A      0.003791    49A      0.006336    50A      0.007085  
      51A      0.011658    52A      0.012140    53A      0.013602  
      54A      0.019857    55A      0.024155    56A      0.024229  
      57A      0.028342    58A      0.028915    59A      0.031384  
      60A      0.031956    61A      0.032613    62A      0.035351  
      63A      0.036802    64A      0.040456    65A      0.040961  
      66A      0.043969    67A      0.046190    68A      0.048633  
      69A      0.052817    70A      0.055284    71A      0.056662  
      72A      0.057676    73A      0.058763    74A      0.060165  
      75A      0.060554    76A      0.061854    77A      0.061957  
      78A      0.063404    79A      0.064937    80A      0.067102  
      81A      0.068711    82A      0.074040    83A      0.075078  
      84A      0.076075    85A      0.080572    86A      0.080684  
      87A      0.081157    88A      0.082717    89A      0.083995  
      90A      0.085769    91A      0.088293    92A      0.089753  
      93A      0.091991    94A      0.093381    95A      0.093457  
      96A      0.094401    97A      0.095417    98A      0.100047  
      99A      0.101115   100A      0.103806   101A      0.104812  
     102A      0.106560   103A      0.107396   104A      0.107927  
     105A      0.109484   106A      0.111244   107A      0.111970  
     108A      0.113048   109A      0.119007   110A      0.120499  
     111A      0.122623   112A      0.124310   113A      0.126103  
     114A      0.127631   115A      0.127967   116A      0.130283  
     117A      0.132114   118A      0.132904   119A      0.133969  
     120A      0.135535   121A      0.135903   122A      0.137091  
     123A      0.138661   124A      0.140559   125A      0.141015  
     126A      0.144951   127A      0.147359   128A      0.148332  
     129A      0.149187   130A      0.151720   131A      0.152367  
     132A      0.153161   133A      0.154255   134A      0.157045  
     135A      0.158869   136A      0.160724   137A      0.163005  
     138A      0.164446   139A      0.164749   140A      0.165817  
     141A      0.166257   142A      0.167322   143A      0.170017  
     144A      0.171074   145A      0.172690   146A      0.173699  
     147A      0.177389   148A      0.177507   149A      0.178060  
     150A      0.181704   151A      0.182806   152A      0.184557  
     153A      0.186924   154A      0.190425   155A      0.191219  
     156A      0.192087   157A      0.193816   158A      0.195884  
     159A      0.196394   160A      0.199102   161A      0.200348  
     162A      0.202231   163A      0.204617   164A      0.205489  
     165A      0.206157   166A      0.206838   167A      0.212515  
     168A      0.213136   169A      0.214432   170A      0.216894  
     171A      0.217720   172A      0.218436   173A      0.219168  
     174A      0.220490   175A      0.221259   176A      0.222022  
     177A      0.224840   178A      0.225931   179A      0.227705  
     180A      0.232271   181A      0.232633   182A      0.234546  
     183A      0.237492   184A      0.239183   185A      0.240979  
     186A      0.243809   187A      0.245224   188A      0.247880  
     189A      0.249194   190A      0.252543   191A      0.253346  
     192A      0.256303   193A      0.257251   194A      0.258146  
     195A      0.260143   196A      0.262718   197A      0.264267  
     198A      0.265441   199A      0.265904   200A      0.268354  
     201A      0.269549   202A      0.271770   203A      0.273104  
     204A      0.273736   205A      0.276978   206A      0.277725  
     207A      0.279217   208A      0.280352   209A      0.284252  
     210A      0.284927   211A      0.288351   212A      0.289509  
     213A      0.290648   214A      0.292863   215A      0.295993  
     216A      0.298152   217A      0.298825   218A      0.300244  
     219A      0.304331   220A      0.306761   221A      0.307302  
     222A      0.308132   223A      0.309405   224A      0.311833  
     225A      0.315240   226A      0.316271   227A      0.319390  
     228A      0.321234   229A      0.324677   230A      0.325824  
     231A      0.328683   232A      0.330212   233A      0.332861  
     234A      0.334075   235A      0.337962   236A      0.338566  
     237A      0.342320   238A      0.343704   239A      0.347378  
     240A      0.350254   241A      0.352487   242A      0.353154  
     243A      0.354646   244A      0.358321   245A      0.360396  
     246A      0.361234   247A      0.364727   248A      0.365069  
     249A      0.367236   250A      0.368356   251A      0.368699  
     252A      0.371233   253A      0.373987   254A      0.374789  
     255A      0.376196   256A      0.378471   257A      0.379883  
     258A      0.382520   259A      0.383976   260A      0.385082  
     261A      0.386195   262A      0.386908   263A      0.387732  
     264A      0.390492   265A      0.394625   266A      0.397822  
     267A      0.399248   268A      0.400584   269A      0.402938  
     270A      0.404334   271A      0.405274   272A      0.408106  
     273A      0.408771   274A      0.413036   275A      0.413728  
     276A      0.414951   277A      0.418632   278A      0.421990  
     279A      0.424099   280A      0.425160   281A      0.426595  
     282A      0.430722   283A      0.434396   284A      0.436151  
     285A      0.438045   286A      0.440727   287A      0.441427  
     288A      0.442309   289A      0.443239   290A      0.447190  
     291A      0.449154   292A      0.449779   293A      0.450863  
     294A      0.452672   295A      0.453839   296A      0.456973  
     297A      0.458957   298A      0.460625   299A      0.461257  
     300A      0.462698   301A      0.466925   302A      0.469472  
     303A      0.476127   304A      0.477077   305A      0.479535  
     306A      0.481453   307A      0.484512   308A      0.485921  
     309A      0.488600   310A      0.489695   311A      0.491623  
     312A      0.491870   313A      0.496291   314A      0.498228  
     315A      0.501129   316A      0.503650   317A      0.505028  
     318A      0.505545   319A      0.508031   320A      0.512437  
     321A      0.514061   322A      0.515058   323A      0.517133  
     324A      0.519672   325A      0.523832   326A      0.525819  
     327A      0.527594   328A      0.530544   329A      0.534062  
     330A      0.536077   331A      0.537845   332A      0.538782  
     333A      0.543114   334A      0.544354   335A      0.547644  
     336A      0.548172   337A      0.550022   338A      0.551193  
     339A      0.555026   340A      0.555858   341A      0.559312  
     342A      0.561157   343A      0.564075   344A      0.565160  
     345A      0.566567   346A      0.568676   347A      0.570683  
     348A      0.573551   349A      0.574051   350A      0.576749  
     351A      0.578034   352A      0.580058   353A      0.582500  
     354A      0.587323   355A      0.587939   356A      0.590101  
     357A      0.592373   358A      0.593117   359A      0.595699  
     360A      0.599076   361A      0.600487   362A      0.605545  
     363A      0.607174   364A      0.609338   365A      0.610480  
     366A      0.613003   367A      0.619143   368A      0.624067  
     369A      0.628199   370A      0.628895   371A      0.632409  
     372A      0.637403   373A      0.640504   374A      0.645180  
     375A      0.648402   376A      0.649208   377A      0.653368  
     378A      0.654623   379A      0.657334   380A      0.658885  
     381A      0.662475   382A      0.664836   383A      0.666166  
     384A      0.668264   385A      0.668769   386A      0.669457  
     387A      0.670663   388A      0.674174   389A      0.675677  
     390A      0.679137   391A      0.679662   392A      0.687946  
     393A      0.689936   394A      0.693021   395A      0.696725  
     396A      0.698837   397A      0.700242   398A      0.705305  
     399A      0.710450   400A      0.711045   401A      0.713665  
     402A      0.715429   403A      0.718132   404A      0.726034  
     405A      0.729168   406A      0.736170   407A      0.743955  
     408A      0.751695   409A      0.753405   410A      0.760722  
     411A      0.761051   412A      0.761707   413A      0.767493  
     414A      0.771764   415A      0.773814   416A      0.775188  
     417A      0.777332   418A      0.789192   419A      0.792370  
     420A      0.798598   421A      0.799500   422A      0.802913  
     423A      0.805646   424A      0.807857   425A      0.811917  
     426A      0.822089   427A      0.828240   428A      0.829932  
     429A      0.834894   430A      0.843825   431A      0.850356  
     432A      0.854246   433A      0.862562   434A      0.865548  
     435A      0.869845   436A      0.875725   437A      0.878153  
     438A      0.883841   439A      0.890706   440A      0.894412  
     441A      0.895710   442A      0.905159   443A      0.908864  
     444A      0.910493   445A      0.910864   446A      0.922025  
     447A      0.924401   448A      0.930175   449A      0.935540  
     450A      0.950375   451A      0.955539   452A      0.957249  
     453A      0.961681   454A      0.966633   455A      0.971859  
     456A      0.974942   457A      0.979778   458A      0.987480  
     459A      0.993579   460A      0.999302   461A      1.001794  
     462A      1.007476   463A      1.009350   464A      1.014886  
     465A      1.024430   466A      1.026975   467A      1.039990  
     468A      1.043125   469A      1.048429   470A      1.057144  
     471A      1.058261   472A      1.065067   473A      1.067855  
     474A      1.071705   475A      1.083300   476A      1.085600  
     477A      1.090913   478A      1.091359   479A      1.094930  
     480A      1.096852   481A      1.104916   482A      1.109257  
     483A      1.117365   484A      1.119802   485A      1.124923  
     486A      1.138731   487A      1.142987   488A      1.150280  
     489A      1.173501   490A      1.183490   491A      1.189248  
     492A      1.192195   493A      1.199131   494A      1.202441  
     495A      1.203748   496A      1.209817   497A      1.221945  
     498A      1.223033   499A      1.225865   500A      1.228585  
     501A      1.239661   502A      1.242421   503A      1.250079  
     504A      1.266464   505A      1.283960   506A      1.287463  
     507A      1.291229   508A      1.303198   509A      1.307100  
     510A      1.318294   511A      1.333524   512A      1.338658  
     513A      1.344671   514A      1.351496   515A      1.354788  
     516A      1.358408   517A      1.367824   518A      1.372820  
     519A      1.378543   520A      1.400574   521A      1.402536  
     522A      1.428920   523A      1.431726   524A      1.438961  
     525A      1.444354   526A      1.449825   527A      1.459747  
     528A      1.469719   529A      1.472286   530A      1.473494  
     531A      1.500405   532A      1.505124   533A      1.528407  
     534A      1.530818   535A      1.537111   536A      1.545744  
     537A      1.548168   538A      1.561985   539A      1.563434  
     540A      1.576222   541A      1.582197   542A      1.587057  
     543A      1.588543   544A      1.592195   545A      1.600812  
     546A      1.610004   547A      1.610513   548A      1.620818  
     549A      1.626151   550A      1.633055   551A      1.636056  
     552A      1.642331   553A      1.645114   554A      1.650963  
     555A      1.664966   556A      1.666255   557A      1.668098  
     558A      1.672117   559A      1.675943   560A      1.678513  
     561A      1.683393   562A      1.686538   563A      1.688779  
     564A      1.691579   565A      1.698002   566A      1.704832  
     567A      1.709204   568A      1.711190   569A      1.714299  
     570A      1.716466   571A      1.722036   572A      1.726785  
     573A      1.730472   574A      1.732937   575A      1.734811  
     576A      1.739561   577A      1.742084   578A      1.745899  
     579A      1.748561   580A      1.751177   581A      1.756577  
     582A      1.761500   583A      1.763324   584A      1.766935  
     585A      1.770508   586A      1.774198   587A      1.777804  
     588A      1.778392   589A      1.781338   590A      1.783387  
     591A      1.784646   592A      1.788724   593A      1.789978  
[...]
     829A      1.847894   830A      1.849523   831A      1.849831  
     832A      1.859578   833A      1.864377   834A      1.869859  
     835A      1.870072   836A      1.872352   837A      1.874022  
     838A      1.876607   839A      1.878916   840A      1.884888  
     841A      1.888588   842A      1.896394   843A      1.897148  
     844A      1.899743   845A      1.902198   846A      1.907738  
     847A      1.910906   848A      1.912649   849A      1.914674  
     850A      1.915625   851A      1.918099   852A      1.920573  
     853A      1.925836   854A      1.928060   855A      1.929585  
     856A      1.936669   857A      1.939644   858A      1.944218  
     859A      1.945052   860A      1.950341   861A      1.950645  
     862A      1.951098   863A      1.955858   864A      1.958412  
     865A      1.960166   866A      1.960728   867A      1.965548  
     868A      1.968463   869A      1.982094   870A      1.987461  
     871A      1.990597   872A      1.992763   873A      1.996971  
     874A      1.997947   875A      2.008011   876A      2.009234  
     877A      2.014844   878A      2.016299   879A      2.018137  
     880A      2.021330   881A      2.026789   882A      2.028724  
     883A      2.029660   884A      2.035388   885A      2.037129  
     886A      2.038279   887A      2.041673   888A      2.044641  
     889A      2.050524   890A      2.054192   891A      2.054898  
     892A      2.057608   893A      2.060091   894A      2.063299  
     895A      2.067029   896A      2.070506   897A      2.072912  
     898A      2.076408   899A      2.080069   900A      2.082609  
     901A      2.083914   902A      2.088355   903A      2.092346  
     904A      2.093941   905A      2.094941   906A      2.097299  
     907A      2.098807   908A      2.101492   909A      2.103218  
     910A      2.103514   911A      2.105928   912A      2.107350  
     913A      2.110957   914A      2.112952   915A      2.114395  
     916A      2.117944   917A      2.119660   918A      2.120301  
     919A      2.123228   920A      2.123525   921A      2.126827  
     922A      2.130381   923A      2.131941   924A      2.133250  
     925A      2.134597   926A      2.139109   927A      2.139360  
     928A      2.140050   929A      2.142763   930A      2.144300  
     931A      2.152884   932A      2.155885   933A      2.159017  
     934A      2.160975   935A      2.166417   936A      2.169955  
     937A      2.173236   938A      2.175999   939A      2.176939  
     940A      2.178799   941A      2.190516   942A      2.194008  
     943A      2.195116   944A      2.197330   945A      2.201173  
     946A      2.205276   947A      2.208838   948A      2.212873  
     949A      2.216268   950A      2.222706   951A      2.233908  
     952A      2.237761   953A      2.240639   954A      2.242210  
     955A      2.243411   956A      2.245075   957A      2.248289  
     958A      2.249844   959A      2.251939   960A      2.253887  
     961A      2.258151   962A      2.262707   963A      2.263436  
     964A      2.263921   965A      2.269051   966A      2.272862  
     967A      2.276091   968A      2.280094   969A      2.283626  
     970A      2.286267   971A      2.294126   972A      2.300267  
     973A      2.302722   974A      2.308845   975A      2.312566  
     976A      2.318925   977A      2.327515   978A      2.331328  
     979A      2.335026   980A      2.340481   981A      2.347428  
     982A      2.348549   983A      2.353090   984A      2.356320  
     985A      2.363288   986A      2.365472   987A      2.366810  
     988A      2.377577   989A      2.385746   990A      2.388925  
     991A      2.398594   992A      2.403398   993A      2.409213  
     994A      2.415637   995A      2.416858   996A      2.419528  
     997A      2.424907   998A      2.429798   999A      2.434931  
    1000A      2.440867  1001A      2.447543  1002A      2.452567  
    1003A      2.473194  1004A      2.477477  1005A      2.489617  
    1006A      2.491800  1007A      2.496497  1008A      2.498959  
    1009A      2.509614  1010A      2.512335  1011A      2.517123  
    1012A      2.521841  1013A      2.527991  1014A      2.528873  
    1015A      2.531081  1016A      2.536527  1017A      2.536697  
    1018A      2.543352  1019A      2.545547  1020A      2.549847  
    1021A      2.553252  1022A      2.555948  1023A      2.558442  
    1024A      2.561033  1025A      2.565549  1026A      2.566926  
    1027A      2.570648  1028A      2.573792  1029A      2.576393  
    1030A      2.580217  1031A      2.588781  1032A      2.595800  
    1033A      2.599400  1034A      2.601415  1035A      2.606837  
    1036A      2.607554  1037A      2.608912  1038A      2.619783  
    1039A      2.622353  1040A      2.627623  1041A      2.634283  
    1042A      2.635252  1043A      2.645680  1044A      2.648751  
    1045A      2.649270  1046A      2.651865  1047A      2.658289  
    1048A      2.659858  1049A      2.667802  1050A      2.673829  
    1051A      2.675214  1052A      2.681119  1053A      2.686393  
    1054A      2.693179  1055A      2.697748  1056A      2.703307  
    1057A      2.705094  1058A      2.707502  1059A      2.709748  
    1060A      2.716871  1061A      2.718185  1062A      2.724044  
    1063A      2.726538  1064A      2.736302  1065A      2.738701  
    1066A      2.745177  1067A      2.749016  1068A      2.758490  
    1069A      2.759830  1070A      2.769978  1071A      2.782406  
    1072A      2.788546  1073A      2.797381  1074A      2.799256  
    1075A      2.814881  1076A      2.826240  1077A      2.829939  
    1078A      2.832207  1079A      2.841326  1080A      2.845191  
    1081A      2.850671  1082A      2.855520  1083A      2.866879  
    1084A      2.871258  1085A      2.875079  1086A      2.882466  
    1087A      2.893527  1088A      2.899324  1089A      2.907301  
    1090A      2.914404  1091A      2.921708  1092A      2.927619  
    1093A      2.932300  1094A      2.938922  1095A      2.948550  
    1096A      2.950399  1097A      2.960270  1098A      2.970672  
    1099A      2.977625  1100A      2.990230  1101A      2.995235  
    1102A      3.001539  1103A      3.016057  1104A      3.021773  
    1105A      3.023371  1106A      3.043676  1107A      3.051144  
    1108A      3.059352  1109A      3.060107  1110A      3.067038  
    1111A      3.086447  1112A      3.088964  1113A      3.098168  
    1114A      3.104767  1115A      3.118245  1116A      3.120233  
    1117A      3.126521  1118A      3.129283  1119A      3.139799  
    1120A      3.145067  1121A      3.147940  1122A      3.150138  
    1123A      3.153664  1124A      3.158878  1125A      3.163102  
    1126A      3.169701  1127A      3.172616  1128A      3.181396  
    1129A      3.186820  1130A      3.195004  1131A      3.197990  
    1132A      3.214266  1133A      3.220675  1134A      3.240165  
    1135A      3.250909  1136A      3.263553  1137A      3.279332  
    1138A      3.287307  1139A      3.288925  1140A      3.301829  
    1141A      3.307931  1142A      3.320689  1143A      3.338974  
    1144A      3.358558  1145A      3.383241  1146A      3.414527  
    1147A      3.420451  1148A      3.430006  1149A      3.436728  
    1150A      3.456244  1151A      3.470767  1152A      3.493689  
    1153A      3.509211  1154A      3.529843  1155A      3.545547  
    1156A      3.556741  1157A      3.584834  1158A      3.598420  
    1159A      3.616512  1160A      3.635335  1161A      3.661742  
    1162A      3.665172  1163A      3.670895  1164A      3.693332  
    1165A      3.706886  1166A      3.713397  1167A      3.719262  
    1168A      3.736250  1169A      3.757167  1170A      3.797051  
    1171A      3.820756  1172A      3.833810  1173A      3.858229  
    1174A      3.882310  1175A      3.884501  1176A      3.898943  
    1177A      3.918887  1178A      3.930756  1179A      3.942951  
    1180A      3.979332  1181A      4.014724  1182A      4.026093  
    1183A      4.054495  1184A      4.082537  1185A      4.141547  
    1186A      4.198334  1187A      4.301072  1188A      4.316093  
    1189A      4.479128  1190A      4.515451  1191A      4.569313  
    1192A      4.577612  1193A      4.737412  1194A      4.874503  
    1195A      4.953266  1196A      5.016512  1197A      5.099321  
    1198A      5.115120  1199A      5.158881  1200A      5.184015  
    1201A      5.246190  1202A      5.267814  1203A      5.324663  
    1204A      5.340688  1205A      5.413689  1206A      5.480323  
    1207A      5.532721  1208A      5.572084  1209A      5.874942  
    1210A      5.945502  1211A      6.133497  1212A     18.288356  
    1213A     18.586650  1214A     18.639185  1215A     18.760089  
    1216A     19.181153  1217A     25.395952  1218A     25.441217  

    Final Occupation by Irrep:
              A 
    DOCC [   171 ]
    NA   [   171 ]
    NB   [   171 ]

  @DF-RHF Final Energy: -2055.89907597298543

   => Energetics <=

    Nuclear Repulsion Energy =           6452.5568002797772351
    One-Electron Energy =              -15636.5916580784451071
    Two-Electron Energy =                7128.1357818256828978
    Total Energy =                      -2055.8990759729849742

Computation Completed


Properties will be evaluated at   0.000000,   0.000000,   0.000000 [a0]

Properties computed using the SCF density matrix


 Multipole Moments:

 ------------------------------------------------------------------------------------
     Multipole            Electronic (a.u.)      Nuclear  (a.u.)        Total (a.u.)
 ------------------------------------------------------------------------------------

 L = 1.  Multiply by 2.5417464519 to convert [e a0] to [Debye]
 Dipole X            :         -0.0003607           -0.0000085           -0.0003692
 Dipole Y            :          0.0003415           -0.0028843           -0.0025428
 Dipole Z            :        164.4123422         -164.4073468            0.0049954
 Magnitude           :                                                    0.0056174

 ------------------------------------------------------------------------------------

*** tstop() called on d-3-8-3 at Mon Jan 22 17:09:06 2024
Module time:
	user time   =    3066.74 seconds =      51.11 minutes
	system time =     201.23 seconds =       3.35 minutes
	total time  =        800 seconds =      13.33 minutes
Total time:
	user time   =   10442.46 seconds =     174.04 minutes
	system time =     746.86 seconds =      12.45 minutes
	total time  =       3601 seconds =      60.02 minutes
  Constructing Basis Sets for SAPT...

   => Loading Basis Set <=

    Name: (JUN-CC-PVDZ AUX)
    Role: RIFIT
    Keyword: DF_BASIS_SAPT
    atoms 1-2, 4-5, 10, 17-70 entry C          line   100 file /home/gridsan/tfroembgen/.conda/envs/psi4test/share/psi4/basis/jun-cc-pvdz-ri.gbs 
    atoms 3, 6                entry N          line   144 file /home/gridsan/tfroembgen/.conda/envs/psi4test/share/psi4/basis/jun-cc-pvdz-ri.gbs 
    atoms 7-9, 11-16, 71-88   entry H          line    30 file /home/gridsan/tfroembgen/.conda/envs/psi4test/share/psi4/basis/jun-cc-pvdz-ri.gbs 

   => Loading Basis Set <=

    Name: (JUN-CC-PVDZ AUX)
    Role: JKFIT
    Keyword: DF_BASIS_ELST
    atoms 1-2, 4-5, 10, 17-70 entry C          line   146 file /home/gridsan/tfroembgen/.conda/envs/psi4test/share/psi4/basis/jun-cc-pvdz-jkfit.gbs 
    atoms 3, 6                entry N          line   202 file /home/gridsan/tfroembgen/.conda/envs/psi4test/share/psi4/basis/jun-cc-pvdz-jkfit.gbs 
    atoms 7-9, 11-16, 71-88   entry H          line    70 file /home/gridsan/tfroembgen/.conda/envs/psi4test/share/psi4/basis/jun-cc-pvdz-jkfit.gbs 


  //>>>>>>>>>>>>>>>>>>>>>>>>>>>>>>>>>>>//
  //               SSAPT0              //
  //<<<<<<<<<<<<<<<<<<<<<<<<<<<<<<<<<<<//


*** tstart() called on d-3-8-3
*** at Mon Jan 22 17:09:07 2024

        SAPT0  
    Ed Hohenstein
     6 June 2009

      Orbital Information
  --------------------------
    NSO        =      1233
    NMO        =      1218
    NRI        =      4343
    NRI (Elst) =      5440
    NOCC A     =        26
    NOCC B     =       171
    FOCC A     =         7
    FOCC B     =        54
    NVIR A     =      1192
    NVIR B     =      1047

    Elst10,r            =    -0.573394338078 [Eh]
    Exch10              =     1.533087572955 [Eh]
    Exch10 (S^2)        =     1.347647902648 [Eh]

    Iter     Energy [mEh]          dE [mEh]         Residual      Time [s]
       1    -365.27644416     365.276444161     123.781882019           568
       2    -429.22065675      63.944212586      44.474732537          1127
       3    -450.89884663      21.678189887      10.465786559          1723
       4    -450.72684397      -0.172002666       3.539005101          2064
       5    -449.63902126      -1.087822703       0.671481846          2287
       6    -449.66882550       0.029804237       0.359664860          2551
       7    -449.72009857       0.051273069       0.117672793          2811
       8    -449.71203744      -0.008061128       0.045182657          3076
       9    -449.70920545      -0.002831993       0.014628099          3383
      10    -449.71008164       0.000876189       0.004257487          3622
      11    -449.71026686       0.000185219       0.001312999          3902
      12    -449.71022223      -0.000044624       0.000462632          4152
      13    -449.71019924      -0.000022993       0.000148776          4372
      14    -449.71020476       0.000005522       0.000067160          4609
      15    -449.71020845       0.000003686       0.000025946          4806
      16    -449.71020682      -0.000001630       0.000007394          4986
      17    -449.71020686       0.000000044       0.000002243          5201
      18    -449.71020697       0.000000105       0.000000762          5373

    CHF Iterations converged


    Iter     Energy [mEh]          dE [mEh]         Residual      Time [s]
       1    -427.80965091     427.809650906     185.747607360           273
       2    -433.67264919       5.862998287      58.818425763           490
       3    -479.47013634      45.797487148      22.741578487           608
       4    -486.24051481       6.770378468       6.238386754           635
       5    -484.91755682      -1.322957989       2.657395914           661
       6    -484.37696904      -0.540587777       1.090944543           684
       7    -484.51348015       0.136511108       0.655596309           748
       8    -484.62856811       0.115087955       0.236416267           806
       9    -484.61142221      -0.017145901       0.129617310           827
      10    -484.59708210      -0.014340103       0.066544336           847
      11    -484.59762804       0.000545938       0.036325970           875
      12    -484.60152770       0.003899656       0.017662426           908
      13    -484.60158619       0.000058490       0.008415651           929
      14    -484.60073111      -0.000855079       0.004409085           963
      15    -484.60057689      -0.000154215       0.002014011          1057
      16    -484.60077690       0.000200011       0.000896266          1076
      17    -484.60081234       0.000035435       0.000446619          1094
      18    -484.60078523      -0.000027112       0.000273178          1112
      19    -484.60076780      -0.000017422       0.000166022          1129
      20    -484.60077707       0.000009265       0.000096372          1147
      21    -484.60078268       0.000005615       0.000042353          1166
      22    -484.60078037      -0.000002313       0.000023575          1183
      23    -484.60077896      -0.000001416       0.000011969          1201
      24    -484.60077941       0.000000450       0.000006351          1223
      25    -484.60077979       0.000000386       0.000002887          1242
      26    -484.60077974      -0.000000052       0.000001217          1261
      27    -484.60077966      -0.000000083       0.000000497          1439

    CHF Iterations converged

    Ind20,r (A<-B)      =    -0.449710206968 [Eh]
    Ind20,r (B<-A)      =    -0.484600779656 [Eh]
    Ind20,r             =    -0.934310986624 [Eh]
    Exch-Ind20,r (A<-B) =     0.312140788570 [Eh]
    Exch-Ind20,r (B<-A) =     0.324078754012 [Eh]
    Exch-Ind20,r        =     0.636219542582 [Eh]
    Disp20              =    -0.358187226618 [Eh]
    Disp20 (SS)         =    -0.179093613309 [Eh]
    Disp20 (OS)         =    -0.179093613309 [Eh]
    Exch-Disp20         =     0.078705553886 [Eh]
    Exch-Disp20 (SS)    =     0.045160949800 [Eh]
    Exch-Disp20 (OS)    =     0.033544604086 [Eh]

    SAPT Results 
  --------------------------------------------------------------------------------------------------------
    Electrostatics               -573.39433808 [mEh]    -359.81037935 [kcal/mol]   -1505.44662722 [kJ/mol]
      Elst10,r                   -573.39433808 [mEh]    -359.81037935 [kcal/mol]   -1505.44662722 [kJ/mol]

    Exchange                     1533.08757296 [mEh]     962.02697616 [kcal/mol]    4025.12086825 [kJ/mol]
      Exch10                     1533.08757296 [mEh]     962.02697616 [kcal/mol]    4025.12086825 [kJ/mol]
      Exch10(S^2)                1347.64790265 [mEh]     845.66182623 [kcal/mol]    3538.24908094 [kJ/mol]

    Induction                    -143.74961341 [mEh]     -90.20424427 [kcal/mol]    -377.41455801 [kJ/mol]
      Ind20,r                    -934.31098662 [mEh]    -586.28899556 [kcal/mol]   -2453.03315743 [kJ/mol]
      Exch-Ind20,r                636.21954258 [mEh]     399.23379037 [kcal/mol]    1670.39417892 [kJ/mol]
      delta HF,r (2)              154.34183063 [mEh]      96.85096092 [kcal/mol]     405.22442050 [kJ/mol]

    Dispersion                   -279.48167273 [mEh]    -175.37739739 [kcal/mol]    -733.77903067 [kJ/mol]
      Disp20                     -358.18722662 [mEh]    -224.76587809 [kcal/mol]    -940.42043393 [kJ/mol]
      Exch-Disp20                  78.70555389 [mEh]      49.38848070 [kcal/mol]     206.64140326 [kJ/mol]
      Disp20 (SS)                -179.09361331 [mEh]    -112.38293904 [kcal/mol]    -470.21021696 [kJ/mol]
      Disp20 (OS)                -179.09361331 [mEh]    -112.38293904 [kcal/mol]    -470.21021696 [kJ/mol]
      Exch-Disp20 (SS)             45.16094980 [mEh]      28.33892384 [kcal/mol]     118.57005736 [kJ/mol]
      Exch-Disp20 (OS)             33.54460409 [mEh]      21.04955686 [kcal/mol]      88.07134589 [kJ/mol]

  Total HF                        815.94362147 [mEh]     512.01235254 [kcal/mol]    2142.25968302 [kJ/mol]
  Total SAPT0                     536.46194873 [mEh]     336.63495515 [kcal/mol]    1408.48065236 [kJ/mol]

  Special recipe for scaled SAPT0 (see Manual):
    Electrostatics sSAPT0        -573.39433808 [mEh]    -359.81037935 [kcal/mol]   -1505.44662722 [kJ/mol]
    Exchange sSAPT0              1533.08757296 [mEh]     962.02697616 [kcal/mol]    4025.12086825 [kJ/mol]
    Induction sSAPT0              156.68351474 [mEh]      98.32038988 [kcal/mol]     411.37251127 [kJ/mol]
    Dispersion sSAPT0            -242.31564092 [mEh]    -152.05536032 [kcal/mol]    -636.19962760 [kJ/mol]
  Total sSAPT0                    874.06110869 [mEh]     548.48162636 [kcal/mol]    2294.84712471 [kJ/mol]
  --------------------------------------------------------------------------------------------------------

*** tstop() called on d-3-8-3 at Mon Jan 22 19:41:30 2024
Module time:
	user time   =    9045.07 seconds =     150.75 minutes
	system time =    1534.34 seconds =      25.57 minutes
	total time  =       9143 seconds =     152.38 minutes
Total time:
	user time   =   19488.93 seconds =     324.82 minutes
	system time =    2281.23 seconds =      38.02 minutes
	total time  =      12745 seconds =     212.42 minutes

    Psi4 stopped on: Monday, 22 January 2024 07:41PM
    Psi4 wall time for execution: 3:32:26.76

*** Psi4 exiting successfully. Buy a developer a beer!
