
    -----------------------------------------------------------------------
          Psi4: An Open-Source Ab Initio Electronic Structure Package
                               Psi4 1.9 release

                         Git: Rev {} zzzzzzz 


    D. G. A. Smith, L. A. Burns, A. C. Simmonett, R. M. Parrish,
    M. C. Schieber, R. Galvelis, P. Kraus, H. Kruse, R. Di Remigio,
    A. Alenaizan, A. M. James, S. Lehtola, J. P. Misiewicz, M. Scheurer,
    R. A. Shaw, J. B. Schriber, Y. Xie, Z. L. Glick, D. A. Sirianni,
    J. S. O'Brien, J. M. Waldrop, A. Kumar, E. G. Hohenstein,
    B. P. Pritchard, B. R. Brooks, H. F. Schaefer III, A. Yu. Sokolov,
    K. Patkowski, A. E. DePrince III, U. Bozkaya, R. A. King,
    F. A. Evangelista, J. M. Turney, T. D. Crawford, C. D. Sherrill,
    J. Chem. Phys. 152(18) 184108 (2020). https://doi.org/10.1063/5.0006002

                            Additional Code Authors
    E. T. Seidl, C. L. Janssen, E. F. Valeev, M. L. Leininger,
    J. F. Gonthier, R. M. Richard, H. R. McAlexander, M. Saitow, X. Wang,
    P. Verma, M. H. Lechner, A. Jiang, S. Behnle, A. G. Heide,
    M. F. Herbst, and D. L. Poole

             Previous Authors, Complete List of Code Contributors,
                       and Citations for Specific Modules
    https://github.com/psi4/psi4/blob/master/codemeta.json
    https://github.com/psi4/psi4/graphs/contributors
    http://psicode.org/psi4manual/master/introduction.html#citing-psifour

    -----------------------------------------------------------------------


    Psi4 started on: Saturday, 27 January 2024 10:41AM

    Process ID: 954920
    Host:       n2cn1038
    PSIDATADIR: /opt/software/pc2/EB-SW/software/PSI4/1.9-foss-2022a/share/psi4
    Memory:     500.0 MiB
    Threads:    16
    
  ==> Input File <==

--------------------------------------------------------------------------
memory 64 GB # how much memory is available ! Depends on the nodes/cores !

molecule dimer {
# monomer A
-1 1    # Charge and multiplicity
B -1.977592e-04  2.742729e-04 -6.199966
F  1.123153e-16  1.430594e-17 -4.787181
F  1.147860e+00  6.757812e-01 -6.671107
F  1.191806e-02 -1.332011e+00 -6.670905
F -1.159666e+00  6.560735e-01 -6.670826
--
# monomer B
0 1     # Charge and multiplicity
C   -3.66844126402057      7.80375217008252      0.00190004133558
C   -4.84759871934653      7.13124183134024     -0.00046653359696
C   -4.89495929917518      5.69633040353158     -0.00103944469517
C   -3.65374067877320      4.98073034095895      0.00662099703436
C   -2.40942512149445      7.11398103667468      0.00209438359570
C   -2.42547734410473      5.68112195090346     -0.00491050527438
C   -1.19474401643570      7.78614419430947      0.00356656413763
C   0.03795902893699      7.09942164575698      0.00139585983271
C   0.03033258741920      5.66948955970466     -0.00408752508301
C   -1.20098450790502      4.96927034791531      0.00488220885047
C   1.27795782581485      7.77285944319479      0.00277170839332
C   2.48535808472416      7.08769688523756      0.00049722048857
C   2.48612868491717      5.65477081024076     -0.00644052849921
C   1.25408291964399      4.95607811366431      0.00518741308898
C   3.75171459140595      7.76391215098033      0.00062407186893
C   4.92356605618520      7.07878077698995     -0.00143240883900
C   4.95560727132542      5.64344746336949     -0.00159282164606
C   3.70680153420475      4.94121020833308      0.00349873852374
H   -3.65852113775815      8.89082741913536      0.00358502958574
H   -1.18921332975660      8.87412108735996      0.00753844057883
H   1.28429423888630      8.86083343548850      0.00693053253426
H   3.75354208679975      8.85103527897216      0.00214659618464
H   5.86995870320703      7.61379483465560     -0.00235777588134
H   -5.78823170750226      7.67630221293400     -0.00202638095293
C   -6.09197395869619      4.99326001364347     -0.00291168518608
C   -6.12866148031747      3.58258016879823     -0.00171050815740
C   -3.66457974004527      3.56418217974434     -0.00463560277484
C   -4.89429820469869      2.86108077590057      0.00453338221034
C   -2.43733499489796      2.84761165708481      0.00719617576166
C   -1.20922785759670      3.54788693497833     -0.00648285103018
C   1.24714157216223      3.53468075142962     -0.00729145743546
C   0.01517603956900      2.83311183930540      0.00439272578912
C   2.46764517244071      2.82128997725533      0.00449278391269
C   3.70254947457969      3.52466015442405     -0.00899517692985
C   6.14498038638375      4.92757236613191     -0.00282626685777
C   6.16658835886151      3.51658447594213     -0.00065971342101
C   4.92460995845939      2.80840792535402      0.00587903281610
H   7.08990550964105      5.46688776622306     -0.00658814770723
H   -7.03104175110130      5.54268795285765     -0.00714490013730
C   -7.33969804112295      2.85841153457957     -0.00333767559888
C   -7.36488195805880      1.47032337158330     -0.00157213747140
C   -4.90350460894690      1.44442681216000     -0.00628840166334
C   -6.13225715261081      0.73993935705394      0.00600164231964
C   -3.67687480051673      0.72669714267312      0.00433931473643
C   -2.44565658606518      1.42964113326212     -0.00597039546461
C   -1.22360068130162      0.71532450163492      0.00545886906656
C   0.00763786931376      1.41738314923765      0.00392452278437
C   1.23121980774686      0.70211669058719     -0.01490206287210
C   2.46082110053113      1.40329203612573      0.00460244601878
C   3.68443025419614      0.68719842821222      0.00377365974158
C   4.91870890153864      1.39173456118907     -0.00862816189375
C   7.36980207796101      2.77948220318441     -0.00242013321349
C   7.38016266612146      1.39121750785509     -0.00087345036788
C   6.13979953912259      0.67411862320065      0.00545489144369
H   -8.27919079934664      3.40711804112415     -0.00763522772059
H   8.31511347147953      3.31811809662368     -0.00663070901292
C   -8.59175593758115      0.72483255304480     -0.00123170985383
C   -8.59902460370342     -0.63263980622873      0.00089141472904
C   -6.13981313911873     -0.67413663715361     -0.00609792660607
C   -7.38018411213749     -1.39126618958160      0.00131813493501
C   -4.91868448025621     -1.39175501803000      0.00624257154343
C   -3.68443829568458     -0.68723731573599     -0.00478966852105
C   -2.46081704024768     -1.40334517882457      0.00575341766833
C   -1.23116201232071     -0.70217386488055     -0.00636696112346
C   -0.00756962538737     -1.41741884941102      0.00108956317991
C   1.22364771588843     -0.71527537726392      0.01109518512883
C   2.44567064933149     -1.42964328900682     -0.00065482763106
C   3.67686670284649     -0.72670743155550     -0.00479541202602
C   6.13224884641929     -0.73997883984993     -0.00632338623858
C   4.90351914550401     -1.44445752054090      0.00751768830159
C   8.59901484869081      0.63260386666793     -0.00101133422380
C   8.59174548810050     -0.72485086719319      0.00072504603735
C   7.36486276438985     -1.47033266560598      0.00049486934466
H   -9.52830597181814      1.27684744919284     -0.00270163681798
H   9.54141097460619      1.17457248844457     -0.00206336648518
C   -7.36983790976868     -2.77954514593389      0.00312634335708
C   -4.92459910905015     -2.80843725734101     -0.00460528907921
C   -6.16662249566744     -3.51665219282533      0.00169655107992
C   -3.70251035970491     -3.52468154912026      0.00571878010666
C   -2.46764698511392     -2.82132596280400     -0.00632585824990
C   -0.01513347410770     -2.83314164539971     -0.00604426974092
C   -1.24712184122656     -3.53473217556300      0.00551968366725
C   1.20924506964357     -3.54791467864352      0.00805871345849
C   2.43733602215464     -2.84764173817541     -0.00608104485234
C   4.89430234377080     -2.86112296828604     -0.00526030478103
C   3.66461525504104     -3.56421984553201      0.00761911515957
C   6.12863901474565     -3.58258405771778      0.00096495711699
C   7.33967266469532     -2.85841330737039      0.00248018319869
H   -9.54144911125902     -1.17456346666430      0.00226083090216
H   9.52826186807155     -1.27691907390448      0.00197485379837
H   -8.31516504384864     -3.31814985321231      0.00729857188773
H   8.27915514249207     -3.40714078989363      0.00681973918158
C   -6.14499418870218     -4.92764727278338      0.00302254913999
C   -3.70678334799751     -4.94126171411716     -0.00679841894792
C   -4.95559005800169     -5.64349397349412      0.00116871569699
C   -2.48612132622665     -5.65478557440947      0.00614125209662
C   -1.25405833548005     -4.95612205000132     -0.00503435388927
C   1.20101257386816     -4.96928038819302     -0.00385322963129
C   -0.03033667441341     -5.66952030313900      0.00398997003238
C   3.65375010132847     -4.98074377541453     -0.00309522988330
C   2.42549269587528     -5.68117463552727      0.00628170066869
C   6.09196561781097     -4.99325796338655      0.00325918379042
C   4.89497644461045     -5.69634842095790      0.00202298796027
H   -7.08989238804069     -5.46699984223871      0.00742531082125
H   7.03105520920009     -5.54265853633254      0.00683896355417
C   -4.92354532219813     -7.07882109967734      0.00061394679214
C   -2.48534208823777     -7.08772807792913     -0.00189594564379
C   -3.75168589177895     -7.76394715763627     -0.00170126671874
C   -0.03794895698805     -7.09946487446944     -0.00168022049625
C   -1.27795610040136     -7.77290438466689     -0.00366491325785
C   2.40944432072629     -7.11402201200282     -0.00081701968533
C   1.19474993715296     -7.78618536556242     -0.00296931056689
C   4.84762105249800     -7.13126211057943      0.00168979497423
C   3.66847160587561     -7.80378799294376     -0.00065863938960
H   -5.86994035041618     -7.61383059804164      0.00215798365757
H   5.78824962538815     -7.67633218931421      0.00281691445618
H   -3.75352693944918     -8.85107156923607     -0.00353718114765
H   -1.28430440589466     -8.86087539249706     -0.00809229711623
H   1.18922157469537     -8.87416062058945     -0.00706194725726
H   3.65854661482387     -8.89086063405326     -0.00231318081200

    units angstrom      # Angstroms are the default
    no_reorient         # Geometry fixed, default
    symmetry c1         # C1 symmetry, default
}

set {
    scf_type DF         # Density fitting, faster than exact integrals
    freeze_core True    # Freeze core electrons
    basis jun-cc-pVDZ   # Jun-cc-pVDZ basis set, recommended for sSAPT0 in https://doi.org/10.1063/1.4867135
}

energy('ssapt0')        # Compute sSAPT0 energy, includes also SAPT0
--------------------------------------------------------------------------

  Memory set to  59.605 GiB by Python driver.

Scratch directory: /tmp/
   => Loading Basis Set <=

    Name: JUN-CC-PVDZ
    Role: ORBITAL
    Keyword: BASIS
    atoms 1                                                   entry B          line   130 file /opt/software/pc2/EB-SW/software/PSI4/1.9-foss-2022a/share/psi4/basis/jun-cc-pvdz.gbs 
    atoms 2-5                                                 entry F          line   266 file /opt/software/pc2/EB-SW/software/PSI4/1.9-foss-2022a/share/psi4/basis/jun-cc-pvdz.gbs 
    atoms 6-23, 30-42, 45-59, 62-78, 81-93, 98-108, 111-119   entry C          line   164 file /opt/software/pc2/EB-SW/software/PSI4/1.9-foss-2022a/share/psi4/basis/jun-cc-pvdz.gbs 
    atoms 24-29, 43-44, 60-61, 79-80, 94-97, 109-110, 120-125 entry H          line    36 file /opt/software/pc2/EB-SW/software/PSI4/1.9-foss-2022a/share/psi4/basis/jun-cc-pvdz.gbs 

   => Loading Basis Set <=

    Name: JUN-CC-PVDZ
    Role: ORBITAL
    Keyword: BASIS
    atoms 1                                                   entry B          line   130 file /opt/software/pc2/EB-SW/software/PSI4/1.9-foss-2022a/share/psi4/basis/jun-cc-pvdz.gbs 
    atoms 2-5                                                 entry F          line   266 file /opt/software/pc2/EB-SW/software/PSI4/1.9-foss-2022a/share/psi4/basis/jun-cc-pvdz.gbs 
    atoms 6-23, 30-42, 45-59, 62-78, 81-93, 98-108, 111-119   entry C          line   164 file /opt/software/pc2/EB-SW/software/PSI4/1.9-foss-2022a/share/psi4/basis/jun-cc-pvdz.gbs 
    atoms 24-29, 43-44, 60-61, 79-80, 94-97, 109-110, 120-125 entry H          line    36 file /opt/software/pc2/EB-SW/software/PSI4/1.9-foss-2022a/share/psi4/basis/jun-cc-pvdz.gbs 


  //>>>>>>>>>>>>>>>>>>>>>>>>>>>>>>>>>>>//
  //              Dimer HF             //
  //<<<<<<<<<<<<<<<<<<<<<<<<<<<<<<<<<<<//

   => Libint2 <=

    Primary   basis highest AM E, G, H:  5, 4, 3
    Auxiliary basis highest AM E, G, H:  6, 5, 4
    Onebody   basis highest AM E, G, H:  6, 5, 4
    Solid Harmonics ordering:            gaussian

*** tstart() called on n2cn1038
*** at Sat Jan 27 10:41:45 2024

   => Loading Basis Set <=

    Name: JUN-CC-PVDZ
    Role: ORBITAL
    Keyword: BASIS
    atoms 1                                                   entry B          line   130 file /opt/software/pc2/EB-SW/software/PSI4/1.9-foss-2022a/share/psi4/basis/jun-cc-pvdz.gbs 
    atoms 2-5                                                 entry F          line   266 file /opt/software/pc2/EB-SW/software/PSI4/1.9-foss-2022a/share/psi4/basis/jun-cc-pvdz.gbs 
    atoms 6-23, 30-42, 45-59, 62-78, 81-93, 98-108, 111-119   entry C          line   164 file /opt/software/pc2/EB-SW/software/PSI4/1.9-foss-2022a/share/psi4/basis/jun-cc-pvdz.gbs 
    atoms 24-29, 43-44, 60-61, 79-80, 94-97, 109-110, 120-125 entry H          line    36 file /opt/software/pc2/EB-SW/software/PSI4/1.9-foss-2022a/share/psi4/basis/jun-cc-pvdz.gbs 


         ---------------------------------------------------------
                                   SCF
               by Justin Turney, Rob Parrish, Andy Simmonett
                          and Daniel G. A. Smith
                              RHF Reference
                       16 Threads,  61035 MiB Core
         ---------------------------------------------------------

  ==> Geometry <==

    Molecular point group: c1
    Full point group: C1

    Geometry (in Angstrom), charge = -1, multiplicity = 1:

       Center              X                  Y                   Z               Mass       
    ------------   -----------------  -----------------  -----------------  -----------------
         B           -0.000201921932     0.000288800891    -5.772940908471    11.009305360000
         F           -0.000004162732     0.000014527991    -4.360155908471    18.998403162730
         F            1.147855837268     0.675795727991    -6.244081908471    18.998403162730
         F            0.011913897268    -1.331996472009    -6.243879908471    18.998403162730
         F           -1.159670162732     0.656088027991    -6.243800908471    18.998403162730
         C           -3.668445426752     7.803766698073     0.428925132864    12.000000000000
         C           -4.847602882078     7.131256359331     0.426558557932    12.000000000000
         C           -4.894963461907     5.696344931522     0.425985646833    12.000000000000
         C           -3.653744841505     4.980744868950     0.433646088563    12.000000000000
         C           -2.409429284226     7.113995564665     0.429119475124    12.000000000000
         C           -2.425481506836     5.681136478894     0.422114586254    12.000000000000
         C           -1.194748179167     7.786158722300     0.430591655666    12.000000000000
         C            0.037954866205     7.099436173748     0.428420951361    12.000000000000
         C            0.030328424687     5.669504087695     0.422937566446    12.000000000000
         C           -1.200988670637     4.969284875906     0.431907300379    12.000000000000
         C            1.277953663083     7.772873971185     0.429796799922    12.000000000000
         C            2.485353921992     7.087711413228     0.427522312017    12.000000000000
         C            2.486124522185     5.654785338231     0.420584563029    12.000000000000
         C            1.254078756912     4.956092641655     0.432212504618    12.000000000000
         C            3.751710428674     7.763926678971     0.427649163398    12.000000000000
         C            4.923561893453     7.078795304981     0.425592682690    12.000000000000
         C            4.955603108594     5.643461991360     0.425432269883    12.000000000000
         C            3.706797371473     4.941224736324     0.430523830052    12.000000000000
         H           -3.658525300490     8.890841947126     0.430610121114     1.007825032230
         H           -1.189217492488     8.874135615351     0.434563532107     1.007825032230
         H            1.284290076155     8.860847963479     0.433955624063     1.007825032230
         H            3.753537924068     8.851049806963     0.429171687713     1.007825032230
         H            5.869954540475     7.613809362646     0.424667315647     1.007825032230
         H           -5.788235870234     7.676316740925     0.424998710576     1.007825032230
         C           -6.091978121428     4.993274541634     0.424113406343    12.000000000000
         C           -6.128665643049     3.582594696789     0.425314583371    12.000000000000
         C           -3.664583902777     3.564196707735     0.422389488754    12.000000000000
         C           -4.894302367430     2.861095303891     0.431558473739    12.000000000000
         C           -2.437339157630     2.847626185075     0.434221267290    12.000000000000
         C           -1.209232020328     3.547901462969     0.420542240498    12.000000000000
         C            1.247137409430     3.534695279420     0.419733634093    12.000000000000
         C            0.015171876837     2.833126367296     0.431417817318    12.000000000000
         C            2.467641009709     2.821304505246     0.431517875441    12.000000000000
         C            3.702545311848     3.524674682415     0.418029914599    12.000000000000
         C            6.144976223652     4.927586894122     0.424198824671    12.000000000000
         C            6.166584196130     3.516599003933     0.426365378108    12.000000000000
         C            4.924605795728     2.808422453345     0.432904124345    12.000000000000
         H            7.089901346909     5.466902294214     0.420436943821     1.007825032230
         H           -7.031045913833     5.542702480848     0.419880191391     1.007825032230
         C           -7.339702203855     2.858426062570     0.423687415930    12.000000000000
         C           -7.364886120791     1.470337899574     0.425452954057    12.000000000000
         C           -4.903508771679     1.444441340151     0.420736689865    12.000000000000
         C           -6.132261315343     0.739953885044     0.433026733848    12.000000000000
         C           -3.676878963248     0.726711670664     0.431364406265    12.000000000000
         C           -2.445660748797     1.429655661253     0.421054696064    12.000000000000
         C           -1.223604844033     0.715339029625     0.432483960595    12.000000000000
         C            0.007633706582     1.417397677228     0.430949614313    12.000000000000
         C            1.231215645015     0.702131218578     0.412123028657    12.000000000000
         C            2.460816937799     1.403306564116     0.431627537547    12.000000000000
         C            3.684426091464     0.687212956203     0.430798751270    12.000000000000
         C            4.918704738807     1.391749089180     0.418396929635    12.000000000000
         C            7.369797915229     2.779496731175     0.424604958315    12.000000000000
         C            7.380158503390     1.391232035846     0.426151641161    12.000000000000
         C            6.139795376391     0.674133151191     0.432479982972    12.000000000000
         H           -8.279194962078     3.407132569115     0.419389863808     1.007825032230
         H            8.315109308748     3.318132624614     0.420394382516     1.007825032230
         C           -8.591760100313     0.724847081035     0.425793381675    12.000000000000
         C           -8.599028766435    -0.632625278238     0.427916506258    12.000000000000
         C           -6.139817301850    -0.674122109163     0.420927164923    12.000000000000
         C           -7.380188274869    -1.391251661591     0.428343226464    12.000000000000
         C           -4.918688642988    -1.391740490039     0.433267663072    12.000000000000
         C           -3.684442458416    -0.687222787745     0.422235423008    12.000000000000
         C           -2.460821202979    -1.403330650834     0.432778509197    12.000000000000
         C           -1.231166175052    -0.702159336890     0.420658130405    12.000000000000
         C           -0.007573788119    -1.417404321420     0.428114654709    12.000000000000
         C            1.223643553157    -0.715260849273     0.438120276657    12.000000000000
         C            2.445666486600    -1.429628761016     0.426370263898    12.000000000000
         C            3.676862540115    -0.726692903565     0.422229679503    12.000000000000
         C            6.132244683688    -0.739964311859     0.420701705290    12.000000000000
         C            4.903514982772    -1.444442992550     0.434542779830    12.000000000000
         C            8.599010685959     0.632618394658     0.426013757305    12.000000000000
         C            8.591741325369    -0.724836339203     0.427750137566    12.000000000000
         C            7.364858601658    -1.470318137615     0.427519960873    12.000000000000
         H           -9.528310134550     1.276861977183     0.424323454711     1.007825032230
         H            9.541406811874     1.174587016435     0.424961725043     1.007825032230
         C           -7.369842072500    -2.779530617943     0.430151434886    12.000000000000
         C           -4.924603271782    -2.808422729350     0.422419802449    12.000000000000
         C           -6.166626658399    -3.516637664835     0.428721642609    12.000000000000
         C           -3.702514522437    -3.524667021130     0.432743871635    12.000000000000
         C           -2.467651147846    -2.821311434813     0.420699233279    12.000000000000
         C           -0.015137636839    -2.833127117409     0.420980821788    12.000000000000
         C           -1.247126003958    -3.534717647572     0.432544775196    12.000000000000
         C            1.209240906912    -3.547900150653     0.435083804987    12.000000000000
         C            2.437331859423    -2.847627210185     0.420944046676    12.000000000000
         C            4.894298181039    -2.861108440295     0.421764786748    12.000000000000
         C            3.664611092309    -3.564205317541     0.434644206688    12.000000000000
         C            6.128634852014    -3.582569529727     0.427990048646    12.000000000000
         C            7.339668501964    -2.858398779380     0.429505274727    12.000000000000
         H           -9.541453273991    -1.174548938674     0.429285922431     1.007825032230
         H            9.528257705340    -1.276904545914     0.428999945327     1.007825032230
         H           -8.315169206580    -3.318135325222     0.434323663416     1.007825032230
         H            8.279150979760    -3.407126261903     0.433844830710     1.007825032230
         C           -6.144998351434    -4.927632744793     0.430047640669    12.000000000000
         C           -3.706787510729    -4.941247186127     0.420226672581    12.000000000000
         C           -4.955594220733    -5.643479445504     0.428193807226    12.000000000000
         C           -2.486125488958    -5.654771046419     0.433166343625    12.000000000000
         C           -1.254062498212    -4.956107522011     0.421990737639    12.000000000000
         C            1.201008411136    -4.969265860202     0.423171861897    12.000000000000
         C           -0.030340837145    -5.669505775148     0.431015061561    12.000000000000
         C            3.653745938597    -4.980729247424     0.423929861645    12.000000000000
         C            2.425488533144    -5.681160107537     0.433306792197    12.000000000000
         C            6.091961455079    -4.993243435396     0.430284275319    12.000000000000
         C            4.894972281879    -5.696333892967     0.429048079489    12.000000000000
         H           -7.089896550772    -5.466985314248     0.434450402350     1.007825032230
         H            7.031051046468    -5.542644008342     0.433864055083     1.007825032230
         C           -4.923549484930    -7.078806571687     0.427639038321    12.000000000000
         C           -2.485346250970    -7.087713549939     0.425129145885    12.000000000000
         C           -3.751690054511    -7.763932629646     0.425323824810    12.000000000000
         C           -0.037953119720    -7.099450346479     0.425344871032    12.000000000000
         C           -1.277960263133    -7.772889856676     0.423360178271    12.000000000000
         C            2.409440157995    -7.114007484012     0.426208071843    12.000000000000
         C            1.194745774421    -7.786170837572     0.424055780962    12.000000000000
         C            4.847616889766    -7.131247582589     0.428714886503    12.000000000000
         C            3.668467443144    -7.803773464953     0.426366452139    12.000000000000
         H           -5.869944513148    -7.613816070051     0.429183075186     1.007825032230
         H            5.788245462656    -7.676317661324     0.429842005985     1.007825032230
         H           -3.753531102181    -8.851057041246     0.423487910381     1.007825032230
         H           -1.284308568626    -8.860860864507     0.418932794412     1.007825032230
         H            1.189217411964    -8.874146092599     0.419963144271     1.007825032230
         H            3.658542452092    -8.890846106063     0.424711910717     1.007825032230

  Running in c1 symmetry.

  Rotational constants: A =      0.00062  B =      0.00062  C =      0.00035 [cm^-1]
  Rotational constants: A =     18.64079  B =     18.63785  C =     10.55117 [MHz]
  Nuclear repulsion = 17302.720629248589830

  Charge       = -1
  Multiplicity = 1
  Electrons    = 642
  Nalpha       = 321
  Nbeta        = 321

  ==> Algorithm <==

  SCF Algorithm Type is DF.
  DIIS enabled.
  MOM disabled.
  Fractional occupation disabled.
  Guess Type is SAD.
  Energy threshold   = 1.00e-08
  Density threshold  = 1.00e-08
  Integral threshold = 1.00e-12

  ==> Primary Basis <==

  Basis Set: JUN-CC-PVDZ
    Blend: JUN-CC-PVDZ
    Number of shells: 880
    Number of basis functions: 1938
    Number of Cartesian functions: 2039
    Spherical Harmonics?: true
    Max angular momentum: 2

   => Loading Basis Set <=

    Name: (JUN-CC-PVDZ AUX)
    Role: JKFIT
    Keyword: DF_BASIS_SCF
    atoms 1                                                   entry B          line    90 file /opt/software/pc2/EB-SW/software/PSI4/1.9-foss-2022a/share/psi4/basis/jun-cc-pvdz-jkfit.gbs 
    atoms 2-5                                                 entry F          line   314 file /opt/software/pc2/EB-SW/software/PSI4/1.9-foss-2022a/share/psi4/basis/jun-cc-pvdz-jkfit.gbs 
    atoms 6-23, 30-42, 45-59, 62-78, 81-93, 98-108, 111-119   entry C          line   146 file /opt/software/pc2/EB-SW/software/PSI4/1.9-foss-2022a/share/psi4/basis/jun-cc-pvdz-jkfit.gbs 
    atoms 24-29, 43-44, 60-61, 79-80, 94-97, 109-110, 120-125 entry H          line    70 file /opt/software/pc2/EB-SW/software/PSI4/1.9-foss-2022a/share/psi4/basis/jun-cc-pvdz-jkfit.gbs 

  ==> Integral Setup <==

  ==> DiskDFJK: Density-Fitted J/K Matrices <==

    J tasked:                  Yes
    K tasked:                  Yes
    wK tasked:                  No
    OpenMP threads:             16
    Integrals threads:          16
    Memory [MiB]:            45776
    Algorithm:                Disk
    Integral Cache:           SAVE
    Schwarz Cutoff:          1E-12
    Fitting Condition:       1E-10

   => Auxiliary Basis Set <=

  Basis Set: (JUN-CC-PVDZ AUX)
    Blend: JUN-CC-PVDZ-JKFIT
    Number of shells: 2943
    Number of basis functions: 8531
    Number of Cartesian functions: 9791
    Spherical Harmonics?: true
    Max angular momentum: 3

  Minimum eigenvalue in the overlap matrix is 9.0347645045E-11.
  Reciprocal condition number of the overlap matrix is 3.9513534214E-12.
    Using canonical orthogonalization.
  Overall, 38 of 1938 possible MOs eliminated.


  ==> Pre-Iterations <==

  SCF Guess: Superposition of Atomic Densities via on-the-fly atomic UHF (no occupation information).

   -------------------------
    Irrep   Nso     Nmo    
   -------------------------
     A       1938    1900 
   -------------------------
    Total    1938    1900
   -------------------------

  ==> Iterations <==

                           Total Energy        Delta E     RMS |[F,P]|

   @DF-RHF iter SAD: -4085.00107036713689   -4.08500e+03   0.00000e+00 
   @DF-RHF iter   1: -4071.52075727519787    1.34803e+01   7.89111e-04 DIIS/ADIIS
   @DF-RHF iter   2: -4072.91636411075478   -1.39561e+00   3.08181e-04 DIIS/ADIIS
   @DF-RHF iter   3: -4073.07954893148644   -1.63185e-01   1.01795e-04 DIIS/ADIIS
   @DF-RHF iter   4: -4073.10123092166714   -2.16820e-02   3.67402e-05 DIIS
   @DF-RHF iter   5: -4073.10443563611670   -3.20471e-03   1.05370e-05 DIIS
   @DF-RHF iter   6: -4073.10485451080785   -4.18875e-04   4.15304e-06 DIIS
   @DF-RHF iter   7: -4073.10503111113803   -1.76600e-04   2.04769e-06 DIIS
   @DF-RHF iter   8: -4073.10508276084875   -5.16497e-05   1.10666e-06 DIIS
   @DF-RHF iter   9: -4073.10509674501691   -1.39842e-05   2.96305e-07 DIIS
   @DF-RHF iter  10: -4073.10509757143245   -8.26416e-07   1.41415e-07 DIIS
   @DF-RHF iter  11: -4073.10509768752263   -1.16090e-07   5.61154e-08 DIIS
   @DF-RHF iter  12: -4073.10509771684610   -2.93235e-08   2.75943e-08 DIIS
   @DF-RHF iter  13: -4073.10509772166279   -4.81668e-09   1.03616e-08 DIIS
   @DF-RHF iter  14: -4073.10509772218802   -5.25233e-10   4.65775e-09 DIIS
  Energy and wave function converged.


  ==> Post-Iterations <==

    Orbital Energies [Eh]
    ---------------------

    Doubly Occupied:                                                      

       1A    -26.068295     2A    -26.066759     3A    -26.066665  
       4A    -26.066579     5A    -11.207567     6A    -11.207561  
       7A    -11.207558     8A    -11.207555     9A    -11.207551  
      10A    -11.207549    11A    -11.207544    12A    -11.207542  
      13A    -11.207537    14A    -11.207536    15A    -11.207534  
      16A    -11.207525    17A    -11.207239    18A    -11.207226  
      19A    -11.207221    20A    -11.207217    21A    -11.207211  
      22A    -11.207202    23A    -11.205579    24A    -11.205563  
      25A    -11.205558    26A    -11.205510    27A    -11.205508  
      28A    -11.205458    29A    -11.205380    30A    -11.205319  
      31A    -11.205318    32A    -11.205244    33A    -11.205240  
      34A    -11.205209    35A    -11.204339    36A    -11.204320  
      37A    -11.204311    38A    -11.204271    39A    -11.204264  
      40A    -11.204242    41A    -11.204068    42A    -11.204007  
      43A    -11.203999    44A    -11.203831    45A    -11.203823  
      46A    -11.203633    47A    -11.203515    48A    -11.203401  
      49A    -11.203397    50A    -11.203393    51A    -11.203309  
      52A    -11.203306    53A    -11.203270    54A    -11.203258  
      55A    -11.203230    56A    -11.203196    57A    -11.203146  
      58A    -11.203144    59A    -11.203030    60A    -11.203027  
      61A    -11.203020    62A    -11.203019    63A    -11.203017  
      64A    -11.203015    65A    -11.202987    66A    -11.202984  
      67A    -11.202979    68A    -11.202916    69A    -11.202897  
      70A    -11.202892    71A    -11.202693    72A    -11.202479  
      73A    -11.202456    74A    -11.202038    75A    -11.202032  
      76A    -11.201930    77A    -11.201795    78A    -11.201602  
      79A    -11.201596    80A    -11.201572    81A    -11.201569  
      82A    -11.201563    83A    -11.201561    84A    -11.201559  
      85A    -11.201558    86A    -11.200901    87A    -11.200866  
      88A    -11.200419    89A    -11.199838    90A    -11.199837  
      91A    -11.199830    92A    -11.199768    93A    -11.199764  
      94A    -11.199763    95A    -11.199746    96A    -11.199745  
      97A    -11.199738    98A    -11.199676    99A    -11.199672  
     100A    -11.199672   101A     -7.539335   102A     -1.410998  
     103A     -1.352054   104A     -1.350884   105A     -1.350719  
     106A     -1.195238   107A     -1.181977   108A     -1.181974  
     109A     -1.164441   110A     -1.164434   111A     -1.157832  
     112A     -1.145895   113A     -1.139968   114A     -1.131029  
     115A     -1.131025   116A     -1.118847   117A     -1.118844  
     118A     -1.098960   119A     -1.098959   120A     -1.095803  
     121A     -1.090068   122A     -1.090065   123A     -1.072775  
     124A     -1.058541   125A     -1.058189   126A     -1.057217  
     127A     -1.055837   128A     -1.055822   129A     -1.032794  
     130A     -1.032780   131A     -1.022484   132A     -1.022483  
     133A     -1.011469   134A     -1.011439   135A     -1.008366  
     136A     -0.991504   137A     -0.991496   138A     -0.985145  
     139A     -0.984252   140A     -0.984251   141A     -0.968734  
     142A     -0.963799   143A     -0.963750   144A     -0.952307  
     145A     -0.950853   146A     -0.948353   147A     -0.944449  
     148A     -0.944402   149A     -0.936961   150A     -0.915167  
     151A     -0.915121   152A     -0.901027   153A     -0.900973  
     154A     -0.851631   155A     -0.851590   156A     -0.848691  
     157A     -0.848649   158A     -0.846859   159A     -0.835278  
     160A     -0.835218   161A     -0.833742   162A     -0.833683  
     163A     -0.833416   164A     -0.817764   165A     -0.815846  
     166A     -0.796987   167A     -0.791705   168A     -0.791685  
     169A     -0.789061   170A     -0.787151   171A     -0.779468  
     172A     -0.779456   173A     -0.774108   174A     -0.774105  
     175A     -0.730588   176A     -0.730572   177A     -0.727193  
     178A     -0.727173   179A     -0.726889   180A     -0.726870  
     181A     -0.725863   182A     -0.711707   183A     -0.704229  
     184A     -0.694617   185A     -0.679461   186A     -0.671845  
     187A     -0.671830   188A     -0.669704   189A     -0.669287  
     190A     -0.669267   191A     -0.662042   192A     -0.657800  
     193A     -0.657797   194A     -0.644995   195A     -0.644983  
     196A     -0.631437   197A     -0.631434   198A     -0.630015  
     199A     -0.627242   200A     -0.627232   201A     -0.623692  
     202A     -0.602310   203A     -0.599212   204A     -0.596151  
     205A     -0.596121   206A     -0.595133   207A     -0.593859  
     208A     -0.593845   209A     -0.585366   210A     -0.585240  
     211A     -0.585212   212A     -0.584612   213A     -0.580601  
     214A     -0.580573   215A     -0.574025   216A     -0.561117  
     217A     -0.561090   218A     -0.558081   219A     -0.554182  
     220A     -0.554176   221A     -0.543719   222A     -0.542865  
     223A     -0.542854   224A     -0.542631   225A     -0.541678  
     226A     -0.541659   227A     -0.540698   228A     -0.540687  
     229A     -0.540068   230A     -0.537147   231A     -0.536509  
     232A     -0.536505   233A     -0.530883   234A     -0.528808  
     235A     -0.528321   236A     -0.528237   237A     -0.524401  
     238A     -0.524391   239A     -0.519538   240A     -0.519536  
     241A     -0.518784   242A     -0.512946   243A     -0.512934  
     244A     -0.511338   245A     -0.511197   246A     -0.511064  
     247A     -0.507507   248A     -0.504652   249A     -0.503214  
     250A     -0.503195   251A     -0.498999   252A     -0.495505  
     253A     -0.494495   254A     -0.488646   255A     -0.478994  
     256A     -0.478987   257A     -0.477296   258A     -0.477269  
     259A     -0.473483   260A     -0.473465   261A     -0.471502  
     262A     -0.461944   263A     -0.461913   264A     -0.460613  
     265A     -0.460606   266A     -0.455444   267A     -0.455426  
     268A     -0.447339   269A     -0.447298   270A     -0.442938  
     271A     -0.441092   272A     -0.441065   273A     -0.436807  
     274A     -0.436798   275A     -0.431895   276A     -0.427246  
     277A     -0.423028   278A     -0.423025   279A     -0.419268  
     280A     -0.413322   281A     -0.411088   282A     -0.411081  
     283A     -0.408714   284A     -0.408426   285A     -0.408342  
     286A     -0.402928   287A     -0.389643   288A     -0.389582  
     289A     -0.385224   290A     -0.385159   291A     -0.384560  
     292A     -0.384259   293A     -0.383588   294A     -0.383575  
     295A     -0.380660   296A     -0.379588   297A     -0.351593  
     298A     -0.351567   299A     -0.331693   300A     -0.331690  
     301A     -0.329743   302A     -0.329695   303A     -0.326603  
     304A     -0.298851   305A     -0.298836   306A     -0.295052  
     307A     -0.279627   308A     -0.278691   309A     -0.278686  
     310A     -0.276460   311A     -0.276370   312A     -0.250226  
     313A     -0.245747   314A     -0.244984   315A     -0.244918  
     316A     -0.231032   317A     -0.203265   318A     -0.196679  
     319A     -0.196617   320A     -0.148900   321A     -0.148810  

    Virtual:                                                              

     322A      0.043664   323A      0.043743   324A      0.088968  
     325A      0.089200   326A      0.089203   327A      0.091653  
     328A      0.091675   329A      0.091704   330A      0.091766  
     331A      0.092417   332A      0.097041   333A      0.099611  
     334A      0.105074   335A      0.105084   336A      0.116370  
     337A      0.116375   338A      0.120854   339A      0.122102  
     340A      0.125470   341A      0.126507   342A      0.126580  
     343A      0.128815   344A      0.129159   345A      0.130052  
     346A      0.130937   347A      0.131423   348A      0.131512  
     349A      0.131856   350A      0.136385   351A      0.136406  
     352A      0.138097   353A      0.141712   354A      0.141726  
     355A      0.142181   356A      0.143867   357A      0.143926  
     358A      0.149207   359A      0.153414   360A      0.153442  
     361A      0.154380   362A      0.157166   363A      0.157565  
     364A      0.158217   365A      0.158285   366A      0.160043  
     367A      0.160145   368A      0.162851   369A      0.164191  
     370A      0.165264   371A      0.165343   372A      0.165670  
     373A      0.165875   374A      0.171313   375A      0.172490  
     376A      0.172529   377A      0.174628   378A      0.174793  
     379A      0.176818   380A      0.179447   381A      0.179475  
     382A      0.184120   383A      0.186967   384A      0.187123  
     385A      0.190843   386A      0.191894   387A      0.191939  
     388A      0.192564   389A      0.192696   390A      0.193173  
     391A      0.197721   392A      0.197779   393A      0.202666  
     394A      0.206771   395A      0.206872   396A      0.207531  
     397A      0.208548   398A      0.208876   399A      0.209521  
     400A      0.209614   401A      0.210383   402A      0.210941  
     403A      0.214431   404A      0.214627   405A      0.216449  
     406A      0.216529   407A      0.217507   408A      0.217685  
     409A      0.217933   410A      0.219808   411A      0.220004  
     412A      0.221819   413A      0.225969   414A      0.227024  
     415A      0.229552   416A      0.229563   417A      0.234847  
     418A      0.234897   419A      0.236982   420A      0.237035  
     421A      0.237146   422A      0.239497   423A      0.243181  
     424A      0.243743   425A      0.245462   426A      0.245548  
     427A      0.246788   428A      0.247447   429A      0.250616  
     430A      0.251076   431A      0.251361   432A      0.251832  
     433A      0.252175   434A      0.252408   435A      0.253236  
     436A      0.253498   437A      0.256136   438A      0.261886  
     439A      0.261947   440A      0.262678   441A      0.262857  
     442A      0.262946   443A      0.264529   444A      0.264706  
     445A      0.265962   446A      0.266473   447A      0.266534  
     448A      0.267697   449A      0.267834   450A      0.268669  
     451A      0.269320   452A      0.269370   453A      0.270735  
     454A      0.270766   455A      0.275762   456A      0.275913  
     457A      0.277073   458A      0.277380   459A      0.278228  
     460A      0.282076   461A      0.284108   462A      0.284757  
     463A      0.284816   464A      0.285724   465A      0.287760  
     466A      0.287765   467A      0.287952   468A      0.288290  
     469A      0.290301   470A      0.290400   471A      0.295561  
     472A      0.296204   473A      0.298352   474A      0.301706  
     475A      0.304472   476A      0.305308   477A      0.306431  
     478A      0.307176   479A      0.308843   480A      0.308921  
     481A      0.309323   482A      0.309391   483A      0.310924  
     484A      0.311454   485A      0.311999   486A      0.312891  
     487A      0.312902   488A      0.312958   489A      0.317263  
     490A      0.317342   491A      0.319088   492A      0.319381  
     493A      0.319457   494A      0.322356   495A      0.322400  
     496A      0.329598   497A      0.329775   498A      0.329823  
     499A      0.331798   500A      0.331902   501A      0.334173  
     502A      0.335635   503A      0.335791   504A      0.337056  
     505A      0.337533   506A      0.338998   507A      0.339079  
     508A      0.340774   509A      0.341286   510A      0.345755  
     511A      0.346268   512A      0.348054   513A      0.350074  
     514A      0.350728   515A      0.350788   516A      0.354037  
     517A      0.355282   518A      0.355842   519A      0.356588  
     520A      0.356645   521A      0.357475   522A      0.357551  
     523A      0.359454   524A      0.359671   525A      0.360167  
     526A      0.361748   527A      0.362841   528A      0.362893  
     529A      0.365577   530A      0.365656   531A      0.366842  
     532A      0.366928   533A      0.367129   534A      0.370737  
     535A      0.371836   536A      0.371867   537A      0.372170  
     538A      0.375792   539A      0.376032   540A      0.378197  
     541A      0.378323   542A      0.379949   543A      0.380165  
     544A      0.380533   545A      0.380545   546A      0.381314  
     547A      0.382030   548A      0.382483   549A      0.383753  
     550A      0.383864   551A      0.388198   552A      0.390210  
     553A      0.390268   554A      0.390592   555A      0.392134  
     556A      0.393448   557A      0.393467   558A      0.395260  
     559A      0.396829   560A      0.396898   561A      0.398666  
     562A      0.399446   563A      0.405310   564A      0.405460  
     565A      0.406188   566A      0.406616   567A      0.407391  
     568A      0.407587   569A      0.409207   570A      0.411517  
     571A      0.412149   572A      0.412280   573A      0.414009  
     574A      0.414510   575A      0.414755   576A      0.415242  
     577A      0.415282   578A      0.416176   579A      0.418050  
     580A      0.419879   581A      0.419897   582A      0.422969  
     583A      0.424834   584A      0.424900   585A      0.429724  
     586A      0.429761   587A      0.431507   588A      0.433211  
     589A      0.433439   590A      0.434326   591A      0.434334  
     592A      0.439474   593A      0.440042   594A      0.440122  
     595A      0.440493   596A      0.440558   597A      0.445018  
     598A      0.445036   599A      0.445172   600A      0.447260  
     601A      0.447330   602A      0.448252   603A      0.449032  
     604A      0.449067   605A      0.450762   606A      0.451929  
     607A      0.451974   608A      0.452538   609A      0.453040  
     610A      0.453130   611A      0.454727   612A      0.455958  
     613A      0.456059   614A      0.456432   615A      0.456864  
     616A      0.459918   617A      0.460301   618A      0.460400  
     619A      0.460746   620A      0.461002   621A      0.461431  
     622A      0.463894   623A      0.464059   624A      0.464107  
     625A      0.465113   626A      0.465370   627A      0.466567  
     628A      0.467709   629A      0.467826   630A      0.469826  
     631A      0.469937   632A      0.471898   633A      0.472265  
     634A      0.473268   635A      0.473393   636A      0.474727  
     637A      0.474890   638A      0.475202   639A      0.478631  
     640A      0.479200   641A      0.479887   642A      0.480103  
     643A      0.480244   644A      0.481886   645A      0.483366  
     646A      0.483434   647A      0.484721   648A      0.487128  
     649A      0.487819   650A      0.487873   651A      0.489072  
     652A      0.489102   653A      0.490962   654A      0.491417  
     655A      0.491678   656A      0.492775   657A      0.494226  
     658A      0.494266   659A      0.495418   660A      0.495652  
     661A      0.499559   662A      0.499587   663A      0.500374  
     664A      0.501725   665A      0.501770   666A      0.504499  
     667A      0.505019   668A      0.505633   669A      0.507144  
     670A      0.507416   671A      0.508061   672A      0.509200  
     673A      0.509463   674A      0.509628   675A      0.512664  
     676A      0.516460   677A      0.516463   678A      0.516975  
     679A      0.517360   680A      0.519179   681A      0.520128  
     682A      0.520823   683A      0.521388   684A      0.521900  
     685A      0.521909   686A      0.527723   687A      0.528851  
     688A      0.529241   689A      0.529260   690A      0.530427  
     691A      0.530572   692A      0.531673   693A      0.531759  
     694A      0.535688   695A      0.536373   696A      0.536615  
     697A      0.537547   698A      0.537611   699A      0.539435  
     700A      0.539639   701A      0.539647   702A      0.540698  
     703A      0.543717   704A      0.544004   705A      0.544853  
     706A      0.545146   707A      0.545485   708A      0.546277  
     709A      0.548103   710A      0.548331   711A      0.549472  
     712A      0.551167   713A      0.551340   714A      0.551907  
     715A      0.552629   716A      0.554768   717A      0.556525  
     718A      0.556578   719A      0.558398   720A      0.559918  
     721A      0.561545   722A      0.563661   723A      0.564177  
     724A      0.565292   725A      0.565692   726A      0.568958  
     727A      0.571884   728A      0.571986   729A      0.572292  
     730A      0.572591   731A      0.572823   732A      0.573579  
     733A      0.575602   734A      0.577312   735A      0.578088  
     736A      0.580162   737A      0.580499   738A      0.580986  
     739A      0.581533   740A      0.588172   741A      0.588667  
     742A      0.589246   743A      0.589643   744A      0.590967  
     745A      0.592203   746A      0.592537   747A      0.593494  
     748A      0.594416   749A      0.604091   750A      0.604946  
     751A      0.606117   752A      0.606725   753A      0.614159  
     754A      0.614306   755A      0.618439   756A      0.619440  
     757A      0.619600   758A      0.621076   759A      0.621374  
     760A      0.622698   761A      0.622775   762A      0.624639  
     763A      0.628820   764A      0.629876   765A      0.630840  
     766A      0.635146   767A      0.635957   768A      0.637085  
     769A      0.639558   770A      0.641364   771A      0.641611  
     772A      0.642657   773A      0.643192   774A      0.643788  
     775A      0.643988   776A      0.644426   777A      0.645159  
     778A      0.650594   779A      0.651038   780A      0.651962  
     781A      0.655550   782A      0.656752   783A      0.660588  
     784A      0.660979   785A      0.661671   786A      0.663069  
     787A      0.663932   788A      0.664873   789A      0.666646  
     790A      0.673332   791A      0.675330   792A      0.676342  
     793A      0.676557   794A      0.676843   795A      0.679038  
     796A      0.682953   797A      0.684057   798A      0.687940  
     799A      0.688998   800A      0.691945   801A      0.693699  
     802A      0.694587   803A      0.699602   804A      0.700846  
     805A      0.702128   806A      0.707269   807A      0.710213  
     808A      0.710576   809A      0.714307   810A      0.714733  
     811A      0.716327   812A      0.716827   813A      0.716888  
     814A      0.722713   815A      0.723098   816A      0.724282  
     817A      0.729203   818A      0.729600   819A      0.733667  
     820A      0.734516   821A      0.742183   822A      0.743182  
     823A      0.745521   824A      0.745599   825A      0.745897  
     826A      0.747056   827A      0.748572   828A      0.749803  
     829A      0.750146   830A      0.752570   831A      0.753067  
     832A      0.761247   833A      0.761686   834A      0.761901  
     835A      0.768184   836A      0.768501   837A      0.770168  
     838A      0.770658   839A      0.778748   840A      0.780635  
     841A      0.785716   842A      0.787175   843A      0.788552  
     844A      0.792540   845A      0.794797   846A      0.797717  
     847A      0.798016   848A      0.801284   849A      0.804816  
     850A      0.805128   851A      0.808200   852A      0.808285  
     853A      0.810357   854A      0.827993   855A      0.830576  
     856A      0.839098   857A      0.840621   858A      0.843752  
     859A      0.843851   860A      0.847730   861A      0.849344  
     862A      0.851587   863A      0.855139   864A      0.856146  
     865A      0.857546   866A      0.859822   867A      0.860959  
     868A      0.863024   869A      0.864361   870A      0.868608  
     871A      0.869205   872A      0.870083   873A      0.870662  
     874A      0.872112   875A      0.872514   876A      0.881178  
     877A      0.882493   878A      0.882965   879A      0.889796  
     880A      0.890392   881A      0.891326   882A      0.891901  
     883A      0.893415   884A      0.894199   885A      0.895344  
     886A      0.899291   887A      0.899793   888A      0.900245  
     889A      0.903795   890A      0.907214   891A      0.910823  
     892A      0.912261   893A      0.912722   894A      0.915044  
     895A      0.915361   896A      0.915723   897A      0.917029  
     898A      0.918467   899A      0.921555   900A      0.921777  
     901A      0.925015   902A      0.926191   903A      0.927098  
     904A      0.927782   905A      0.929487   906A      0.929627  
     907A      0.930191   908A      0.931989   909A      0.932416  
     910A      0.936588   911A      0.937467   912A      0.939172  
     913A      0.942045   914A      0.945191   915A      0.947689  
     916A      0.948329   917A      0.949539   918A      0.950925  
     919A      0.951589   920A      0.952560   921A      0.952983  
     922A      0.956407   923A      0.959129   924A      0.959915  
     925A      0.961664   926A      0.964516   927A      0.965644  
     928A      0.966294   929A      0.967818   930A      0.973490  
     931A      0.975027   932A      0.975107   933A      0.975548  
     934A      0.975703   935A      0.976164   936A      0.980951  
     937A      0.981271   938A      0.986101   939A      0.986877  
     940A      0.987258   941A      0.987618   942A      0.988663  
     943A      0.990066   944A      0.990376   945A      0.992746  
     946A      0.998862   947A      1.000350   948A      1.002936  
     949A      1.003892   950A      1.004262   951A      1.004838  
     952A      1.005600   953A      1.005776   954A      1.008100  
     955A      1.009832   956A      1.010157   957A      1.010548  
     958A      1.010630   959A      1.011284   960A      1.016254  
     961A      1.018061   962A      1.018940   963A      1.019109  
     964A      1.022256   965A      1.022778   966A      1.026888  
     967A      1.030179   968A      1.036844   969A      1.038279  
     970A      1.038720   971A      1.039590   972A      1.047793  
     973A      1.048140   974A      1.048811   975A      1.049689  
     976A      1.053704   977A      1.057786   978A      1.057899  
     979A      1.059518   980A      1.060071   981A      1.060269  
     982A      1.060592   983A      1.061118   984A      1.068583  
     985A      1.068835   986A      1.071325   987A      1.073156  
     988A      1.073265   989A      1.075606   990A      1.076490  
     991A      1.077721   992A      1.083738   993A      1.085814  
     994A      1.086095   995A      1.086552   996A      1.091220  
     997A      1.091393   998A      1.100032   999A      1.100132  
    1000A      1.100220  1001A      1.101662  1002A      1.102318  
    1003A      1.102936  1004A      1.103863  1005A      1.104967  
    1006A      1.105222  1007A      1.105683  1008A      1.108309  
    1009A      1.108699  1010A      1.110345  1011A      1.112923  
    1012A      1.112998  1013A      1.115963  1014A      1.116396  
    1015A      1.117183  1016A      1.119606  1017A      1.120174  
    1018A      1.124029  1019A      1.124327  1020A      1.124593  
    1021A      1.125844  1022A      1.125931  1023A      1.126473  
    1024A      1.127539  1025A      1.128865  1026A      1.129162  
    1027A      1.129587  1028A      1.130266  1029A      1.130371  
    1030A      1.130780  1031A      1.131154  1032A      1.131700  
    1033A      1.133050  1034A      1.133505  1035A      1.134366  
    1036A      1.136512  1037A      1.136547  1038A      1.137334  
    1039A      1.137467  1040A      1.138018  1041A      1.139096  
    1042A      1.139740  1043A      1.140173  1044A      1.140205  
    1045A      1.140655  1046A      1.140711  1047A      1.143173  
    1048A      1.143276  1049A      1.143976  1050A      1.144083  
    1051A      1.145817  1052A      1.152428  1053A      1.152750  
    1054A      1.154321  1055A      1.156072  1056A      1.156130  
    1057A      1.157214  1058A      1.157887  1059A      1.158158  
    1060A      1.160709  1061A      1.165688  1062A      1.166836  
    1063A      1.167853  1064A      1.168130  1065A      1.170788  
    1066A      1.172638  1067A      1.178870  1068A      1.180000  
    1069A      1.180326  1070A      1.184731  1071A      1.186462  
    1072A      1.187753  1073A      1.187974  1074A      1.188911  
    1075A      1.190508  1076A      1.192220  1077A      1.194506  
    1078A      1.194845  1079A      1.194983  1080A      1.197981  
    1081A      1.199550  1082A      1.202575  1083A      1.205196  
    1084A      1.206190  1085A      1.207308  1086A      1.207427  
    1087A      1.209217  1088A      1.210743  1089A      1.211662  
    1090A      1.212890  1091A      1.213000  1092A      1.218534  
    1093A      1.222573  1094A      1.223480  1095A      1.225232  
    1096A      1.227083  1097A      1.227840  1098A      1.234255  
    1099A      1.234630  1100A      1.239174  1101A      1.240915  
    1102A      1.243167  1103A      1.243659  1104A      1.245193  
    1105A      1.246313  1106A      1.249846  1107A      1.250537  
    1108A      1.258771  1109A      1.258945  1110A      1.260213  
    1111A      1.260220  1112A      1.261629  1113A      1.266272  
    1114A      1.267346  1115A      1.268307  1116A      1.269253  
    1117A      1.269825  1118A      1.273252  1119A      1.273485  
    1120A      1.274455  1121A      1.274672  1122A      1.278104  
    1123A      1.281098  1124A      1.289238  1125A      1.290150  
    1126A      1.301448  1127A      1.306631  1128A      1.306683  
    1129A      1.307105  1130A      1.307794  1131A      1.307844  
    1132A      1.314062  1133A      1.316587  1134A      1.316806  
    1135A      1.320081  1136A      1.322385  1137A      1.322940  
    1138A      1.324832  1139A      1.324920  1140A      1.333129  
    1141A      1.336913  1142A      1.336999  1143A      1.342711  
    1144A      1.345520  1145A      1.346213  1146A      1.348093  
    1147A      1.348211  1148A      1.348996  1149A      1.349459  
    1150A      1.352326  1151A      1.352408  1152A      1.356196  
    1153A      1.358196  1154A      1.358773  1155A      1.359004  
    1156A      1.366839  1157A      1.367283  1158A      1.369043  
    1159A      1.369838  1160A      1.372048  1161A      1.372348  
    1162A      1.373961  1163A      1.375531  1164A      1.377484  
    1165A      1.377676  1166A      1.380927  1167A      1.381061  
    1168A      1.384263  1169A      1.384300  1170A      1.388130  
    1171A      1.389276  1172A      1.389488  1173A      1.392557  
    1174A      1.396042  1175A      1.396246  1176A      1.402283  
    1177A      1.405393  1178A      1.405781  1179A      1.411744  
    1180A      1.411919  1181A      1.414458  1182A      1.414622  
    1183A      1.415905  1184A      1.417921  1185A      1.418087  
    1186A      1.422493  1187A      1.427007  1188A      1.427987  
    1189A      1.430247  1190A      1.430558  1191A      1.431788  
    1192A      1.442948  1193A      1.443088  1194A      1.443484  
    1195A      1.447240  1196A      1.447515  1197A      1.450192  
    1198A      1.450725  1199A      1.460318  1200A      1.461691  
    1201A      1.462266  1202A      1.462935  1203A      1.463000  
    1204A      1.464332  1205A      1.464406  1206A      1.465915  
    1207A      1.468278  1208A      1.470698  1209A      1.471569  
    1210A      1.476621  1211A      1.476816  1212A      1.478500  
    1213A      1.478836  1214A      1.483173  1215A      1.483374  
    1216A      1.484547  1217A      1.484644  1218A      1.488429  
    1219A      1.489181  1220A      1.490781  1221A      1.491920  
    1222A      1.492138  1223A      1.496842  1224A      1.496926  
    1225A      1.499710  1226A      1.506956  1227A      1.507217  
    1228A      1.507650  1229A      1.508377  1230A      1.508868  
    1231A      1.509094  1232A      1.510751  1233A      1.522760  
    1234A      1.524066  1235A      1.525796  1236A      1.526479  
    1237A      1.526813  1238A      1.528150  1239A      1.528815  
    1240A      1.536464  1241A      1.539301  1242A      1.539720  
    1243A      1.540288  1244A      1.547894  1245A      1.554105  
    1246A      1.554274  1247A      1.558098  1248A      1.560018  
    1249A      1.561920  1250A      1.562721  1251A      1.573286  
    1252A      1.574045  1253A      1.593382  1254A      1.593578  
    1255A      1.595468  1256A      1.600467  1257A      1.610331  
    1258A      1.610395  1259A      1.641242  1260A      1.642244  
    1261A      1.642392  1262A      1.644284  1263A      1.651878  
    1264A      1.657065  1265A      1.658932  1266A      1.662354  
    1267A      1.663594  1268A      1.663937  1269A      1.664485  
    1270A      1.666173  1271A      1.666982  1272A      1.667226  
    1273A      1.667991  1274A      1.671462  1275A      1.672452  
    1276A      1.673206  1277A      1.673363  1278A      1.676062  
    1279A      1.676623  1280A      1.676910  1281A      1.678826  
    1282A      1.680063  1283A      1.681042  1284A      1.683044  
    1285A      1.683259  1286A      1.685361  1287A      1.688159  
    1288A      1.689794  1289A      1.691639  1290A      1.692598  
    1291A      1.693040  1292A      1.693412  1293A      1.694629  
    1294A      1.695351  1295A      1.695889  1296A      1.697181  
    1297A      1.697525  1298A      1.697691  1299A      1.699652  
    1300A      1.703013  1301A      1.706449  1302A      1.706749  
    1303A      1.711075  1304A      1.711173  1305A      1.711499  
    1306A      1.711921  1307A      1.721256  1308A      1.721724  
    1309A      1.725337  1310A      1.725413  1311A      1.725727  
    1312A      1.726141  1313A      1.726422  1314A      1.729058  
    1315A      1.730946  1316A      1.732029  1317A      1.734809  
    1318A      1.735348  1319A      1.742800  1320A      1.744625  
    1321A      1.749098  1322A      1.750020  1323A      1.752695  
    1324A      1.752869  1325A      1.753624  1326A      1.755466  
    1327A      1.763509  1328A      1.763596  1329A      1.766084  
    1330A      1.770332  1331A      1.770393  1332A      1.770934  
    1333A      1.774153  1334A      1.776044  1335A      1.779202  
    1336A      1.779759  1337A      1.780738  1338A      1.780761  
    1339A      1.786731  1340A      1.792831  1341A      1.802753  
    1342A      1.803286  1343A      1.803970  1344A      1.804194  
    1345A      1.805216  1346A      1.819759  1347A      1.821488  
    1348A      1.822822  1349A      1.835536  1350A      1.837804  
    1351A      1.839759  1352A      1.840447  1353A      1.860813  
    1354A      1.861009  1355A      1.864902  1356A      1.873070  
    1357A      1.878264  1358A      1.880513  1359A      1.881412  
    1360A      1.881484  1361A      1.881998  1362A      1.883090  
    1363A      1.887459  1364A      1.887816  1365A      1.888298  
    1366A      1.893215  1367A      1.893713  1368A      1.893809  
    1369A      1.894945  1370A      1.902544  1371A      1.903664  
    1372A      1.909136  1373A      1.909221  1374A      1.915403  
    1375A      1.915825  1376A      1.919487  1377A      1.919632  
    1378A      1.921135  1379A      1.921448  1380A      1.924867  
    1381A      1.925286  1382A      1.925813  1383A      1.926218  
    1384A      1.928221  1385A      1.934461  1386A      1.934908  
    1387A      1.935814  1388A      1.937925  1389A      1.939165  
    1390A      1.939712  1391A      1.940832  1392A      1.942414  
    1393A      1.945648  1394A      1.947661  1395A      1.957585  
    1396A      1.957773  1397A      1.959105  1398A      1.959476  
    1399A      1.963693  1400A      1.965437  1401A      1.966246  
    1402A      1.966331  1403A      1.972470  1404A      1.973410  
    1405A      1.978123  1406A      1.979301  1407A      1.979872  
    1408A      1.981694  1409A      1.982493  1410A      1.982687  
    1411A      1.990149  1412A      1.990354  1413A      1.990642  
    1414A      1.992302  1415A      1.993492  1416A      1.994787  
    1417A      1.997147  1418A      1.998998  1419A      1.999226  
    1420A      2.000429  1421A      2.000681  1422A      2.006393  
    1423A      2.009540  1424A      2.010412  1425A      2.012202  
    1426A      2.012924  1427A      2.014889  1428A      2.015483  
    1429A      2.016182  1430A      2.017412  1431A      2.018190  
    1432A      2.021548  1433A      2.025031  1434A      2.025232  
    1435A      2.026728  1436A      2.027927  1437A      2.028862  
    1438A      2.029469  1439A      2.031444  1440A      2.038918  
    1441A      2.039937  1442A      2.042905  1443A      2.044221  
    1444A      2.044654  1445A      2.044978  1446A      2.049772  
    1447A      2.050915  1448A      2.051489  1449A      2.058794  
    1450A      2.059147  1451A      2.062965  1452A      2.066043  
    1453A      2.066970  1454A      2.069230  1455A      2.069746  
    1456A      2.071460  1457A      2.071819  1458A      2.075438  
    1459A      2.076613  1460A      2.077360  1461A      2.077796  
    1462A      2.078256  1463A      2.082580  1464A      2.083020  
    1465A      2.084980  1466A      2.086564  1467A      2.088361  
    1468A      2.089724  1469A      2.091150  1470A      2.092339  
    1471A      2.093781  1472A      2.095316  1473A      2.103484  
    1474A      2.105155  1475A      2.107850  1476A      2.109848  
    1477A      2.112036  1478A      2.112602  1479A      2.115557  
    1480A      2.116426  1481A      2.117766  1482A      2.118200  
    1483A      2.123164  1484A      2.123308  1485A      2.125394  
    1486A      2.125825  1487A      2.130821  1488A      2.133126  
    1489A      2.134316  1490A      2.134756  1491A      2.136412  
    1492A      2.136980  1493A      2.137567  1494A      2.138503  
    1495A      2.138792  1496A      2.139330  1497A      2.142422  
    1498A      2.143100  1499A      2.143665  1500A      2.143727  
    1501A      2.144134  1502A      2.144655  1503A      2.145298  
    1504A      2.148467  1505A      2.148561  1506A      2.149009  
    1507A      2.149797  1508A      2.153637  1509A      2.153984  
    1510A      2.155875  1511A      2.156288  1512A      2.157240  
    1513A      2.160071  1514A      2.160874  1515A      2.163427  
    1516A      2.167070  1517A      2.167679  1518A      2.168430  
    1519A      2.169989  1520A      2.170411  1521A      2.171323  
    1522A      2.172892  1523A      2.173620  1524A      2.174880  
    1525A      2.175726  1526A      2.181209  1527A      2.181599  
    1528A      2.182106  1529A      2.184326  1530A      2.184522  
    1531A      2.185219  1532A      2.188546  1533A      2.191570  
    1534A      2.192441  1535A      2.192823  1536A      2.195497  
    1537A      2.197885  1538A      2.198233  1539A      2.199116  
    1540A      2.199793  1541A      2.200317  1542A      2.210233  
    1543A      2.211260  1544A      2.213927  1545A      2.214343  
    1546A      2.215203  1547A      2.215493  1548A      2.215892  
    1549A      2.216176  1550A      2.216622  1551A      2.217632  
    1552A      2.226563  1553A      2.227265  1554A      2.235172  
    1555A      2.235916  1556A      2.236071  1557A      2.237356  
    1558A      2.244241  1559A      2.245715  1560A      2.245841  
    1561A      2.247487  1562A      2.249161  1563A      2.250015  
    1564A      2.252148  1565A      2.254597  1566A      2.255345  
    1567A      2.255780  1568A      2.258048  1569A      2.258608  
    1570A      2.259300  1571A      2.259572  1572A      2.259986  
    1573A      2.261891  1574A      2.269142  1575A      2.269687  
    1576A      2.270034  1577A      2.275889  1578A      2.276434  
    1579A      2.276860  1580A      2.278032  1581A      2.281480  
    1582A      2.281739  1583A      2.284068  1584A      2.284506  
    1585A      2.287049  1586A      2.287254  1587A      2.296005  
    1588A      2.296031  1589A      2.296750  1590A      2.298911  
    1591A      2.301169  1592A      2.301651  1593A      2.307469  
    1594A      2.308495  1595A      2.313210  1596A      2.314544  
    1597A      2.318003  1598A      2.318769  1599A      2.321161  
    1600A      2.322222  1601A      2.332004  1602A      2.337723  
    1603A      2.339351  1604A      2.344745  1605A      2.345025  
    1606A      2.350332  1607A      2.353379  1608A      2.358317  
    1609A      2.358688  1610A      2.364091  1611A      2.376168  
    1612A      2.379967  1613A      2.380315  1614A      2.381045  
    1615A      2.382808  1616A      2.384633  1617A      2.385146  
    1618A      2.387294  1619A      2.389656  1620A      2.390653  
    1621A      2.391396  1622A      2.395539  1623A      2.397356  
    1624A      2.397760  1625A      2.398264  1626A      2.400525  
    1627A      2.401025  1628A      2.401261  1629A      2.407076  
    1630A      2.407302  1631A      2.426600  1632A      2.430797  
    1633A      2.431306  1634A      2.438278  1635A      2.443235  
    1636A      2.447733  1637A      2.448347  1638A      2.450248  
    1639A      2.453763  1640A      2.473410  1641A      2.474817  
    1642A      2.479630  1643A      2.482656  1644A      2.489173  
    1645A      2.497060  1646A      2.499145  1647A      2.508665  
    1648A      2.509243  1649A      2.519213  1650A      2.519462  
    1651A      2.522704  1652A      2.523082  1653A      2.526590  
    1654A      2.526874  1655A      2.545004  1656A      2.545382  
    1657A      2.551482  1658A      2.556024  1659A      2.560253  
    1660A      2.560948  1661A      2.565082  1662A      2.570779  
    1663A      2.594701  1664A      2.594997  1665A      2.595151  
    1666A      2.596865  1667A      2.597602  1668A      2.601035  
    1669A      2.601377  1670A      2.602808  1671A      2.604761  
    1672A      2.606082  1673A      2.613686  1674A      2.613879  
    1675A      2.619684  1676A      2.624826  1677A      2.626124  
    1678A      2.633133  1679A      2.636417  1680A      2.636880  
    1681A      2.639846  1682A      2.640844  1683A      2.641281  
    1684A      2.641658  1685A      2.645839  1686A      2.648105  
    1687A      2.655844  1688A      2.656028  1689A      2.667564  
    1690A      2.667768  1691A      2.668103  1692A      2.668578  
    1693A      2.671678  1694A      2.672421  1695A      2.687996  
    1696A      2.695824  1697A      2.696573  1698A      2.698858  
    1699A      2.700924  1700A      2.701979  1701A      2.704337  
    1702A      2.705305  1703A      2.706300  1704A      2.709788  
    1705A      2.710181  1706A      2.721150  1707A      2.722135  
    1708A      2.723358  1709A      2.723941  1710A      2.724131  
    1711A      2.730526  1712A      2.731054  1713A      2.731144  
    1714A      2.739598  1715A      2.741476  1716A      2.742818  
    1717A      2.746241  1718A      2.746769  1719A      2.747165  
    1720A      2.747750  1721A      2.751562  1722A      2.752696  
    1723A      2.760204  1724A      2.774907  1725A      2.784530  
    1726A      2.784973  1727A      2.785560  1728A      2.786148  
    1729A      2.786234  1730A      2.807896  1731A      2.817942  
    1732A      2.818443  1733A      2.831141  1734A      2.833511  
    1735A      2.836435  1736A      2.836826  1737A      2.856093  
    1738A      2.856514  1739A      2.858707  1740A      2.858723  
    1741A      2.859364  1742A      2.866435  1743A      2.869230  
    1744A      2.871208  1745A      2.871733  1746A      2.872180  
    1747A      2.874457  1748A      2.885519  1749A      2.885736  
    1750A      2.896114  1751A      2.897195  1752A      2.897537  
    1753A      2.897862  1754A      2.901631  1755A      2.920130  
    1756A      2.921357  1757A      2.921780  1758A      2.925240  
    1759A      2.926211  1760A      2.929947  1761A      2.954314  
    1762A      2.955163  1763A      2.963144  1764A      2.964324  
    1765A      2.971081  1766A      2.971223  1767A      2.971343  
    1768A      2.980759  1769A      2.983297  1770A      2.989438  
    1771A      2.989469  1772A      2.990371  1773A      3.017824  
    1774A      3.018848  1775A      3.019314  1776A      3.030389  
    1777A      3.046482  1778A      3.047216  1779A      3.084616  
    1780A      3.085471  1781A      3.089243  1782A      3.092493  
    1783A      3.101602  1784A      3.102742  1785A      3.103335  
    1786A      3.113472  1787A      3.113553  1788A      3.115301  
    1789A      3.128176  1790A      3.161830  1791A      3.166646  
    1792A      3.166938  1793A      3.177539  1794A      3.182809  
    1795A      3.183290  1796A      3.187732  1797A      3.189409  
    1798A      3.195963  1799A      3.196841  1800A      3.203320  
    1801A      3.203537  1802A      3.204529  1803A      3.204882  
    1804A      3.207079  1805A      3.215320  1806A      3.224958  
    1807A      3.226639  1808A      3.228720  1809A      3.228947  
    1810A      3.246800  1811A      3.247489  1812A      3.273279  
    1813A      3.285974  1814A      3.307709  1815A      3.312663  
    1816A      3.316468  1817A      3.317413  1818A      3.317680  
    1819A      3.319568  1820A      3.323009  1821A      3.326160  
    1822A      3.329558  1823A      3.330145  1824A      3.348608  
    1825A      3.350812  1826A      3.352346  1827A      3.358282  
    1828A      3.417971  1829A      3.418786  1830A      3.426774  
    1831A      3.472769  1832A      3.486367  1833A      3.489821  
    1834A      3.498044  1835A      3.505000  1836A      3.508572  
    1837A      3.519498  1838A      3.521284  1839A      3.523594  
    1840A      3.528018  1841A      3.531062  1842A      3.539167  
    1843A      3.543060  1844A      3.551476  1845A      3.566064  
    1846A      3.598089  1847A      3.630920  1848A      3.632696  
    1849A      3.639571  1850A      3.645452  1851A      3.693979  
    1852A      3.696960  1853A      3.720726  1854A      3.722705  
    1855A      3.761591  1856A      3.804225  1857A      3.805172  
    1858A      3.806903  1859A      3.821018  1860A      3.833395  
    1861A      3.838054  1862A      3.896844  1863A      3.898859  
    1864A      3.926797  1865A      3.930028  1866A      3.960582  
    1867A      3.969133  1868A      3.996248  1869A      3.999473  
    1870A      4.003934  1871A      4.004878  1872A      4.015435  
    1873A      4.023524  1874A      4.028766  1875A      4.082030  
    1876A      4.085047  1877A      4.129340  1878A      4.172911  
    1879A      4.173126  1880A      4.173190  1881A      4.200728  
    1882A      4.200775  1883A      4.201254  1884A      4.202312  
    1885A      4.202432  1886A      4.234287  1887A      4.234356  
    1888A      4.246115  1889A      4.289893  1890A      4.362678  
    1891A      4.447895  1892A      4.448217  1893A      4.448868  
    1894A      4.454306  1895A      4.648988  1896A      4.652103  
    1897A      4.652209  1898A      4.750333  1899A      4.785813  
    1900A      4.786251  

    Final Occupation by Irrep:
              A 
    DOCC [   321 ]
    NA   [   321 ]
    NB   [   321 ]

  @DF-RHF Final Energy: -4073.10509772218802

   => Energetics <=

    Nuclear Repulsion Energy =          17302.7206292485898302
    One-Electron Energy =              -40088.1915730395267019
    Two-Electron Energy =               18712.3658460687474872
    Total Energy =                      -4073.1050977221893845

Computation Completed


Properties will be evaluated at   0.000000,   0.000000,   0.000000 [a0]

Properties computed using the SCF density matrix


 Multipole Moments:

 ------------------------------------------------------------------------------------
     Multipole            Electronic (a.u.)      Nuclear  (a.u.)        Total (a.u.)
 ------------------------------------------------------------------------------------

 L = 1.  Multiply by 2.5417464519 to convert [e a0] to [Debye]
 Dipole X            :         -0.0004968           -0.0000548           -0.0005515
 Dipole Y            :          0.0009316           -0.0002464            0.0006852
 Dipole Z            :        -27.0620493           36.8966713            9.8346220
 Magnitude           :                                                    9.8346220

 ------------------------------------------------------------------------------------

*** tstop() called on n2cn1038 at Sat Jan 27 13:23:21 2024
Module time:
	user time   =   23082.05 seconds =     384.70 minutes
	system time =    1178.31 seconds =      19.64 minutes
	total time  =       9696 seconds =     161.60 minutes
Total time:
	user time   =   23082.05 seconds =     384.70 minutes
	system time =    1178.31 seconds =      19.64 minutes
	total time  =       9696 seconds =     161.60 minutes

  //>>>>>>>>>>>>>>>>>>>>>>>>>>>>>>>>>>>//
  //            Monomer A HF           //
  //<<<<<<<<<<<<<<<<<<<<<<<<<<<<<<<<<<<//

   => Libint2 <=

    Primary   basis highest AM E, G, H:  5, 4, 3
    Auxiliary basis highest AM E, G, H:  6, 5, 4
    Onebody   basis highest AM E, G, H:  6, 5, 4
    Solid Harmonics ordering:            gaussian

*** tstart() called on n2cn1038
*** at Sat Jan 27 13:23:21 2024

   => Loading Basis Set <=

    Name: JUN-CC-PVDZ
    Role: ORBITAL
    Keyword: BASIS
    atoms 1                                                   entry B          line   130 file /opt/software/pc2/EB-SW/software/PSI4/1.9-foss-2022a/share/psi4/basis/jun-cc-pvdz.gbs 
    atoms 2-5                                                 entry F          line   266 file /opt/software/pc2/EB-SW/software/PSI4/1.9-foss-2022a/share/psi4/basis/jun-cc-pvdz.gbs 
    atoms 6-23, 30-42, 45-59, 62-78, 81-93, 98-108, 111-119   entry C          line   164 file /opt/software/pc2/EB-SW/software/PSI4/1.9-foss-2022a/share/psi4/basis/jun-cc-pvdz.gbs 
    atoms 24-29, 43-44, 60-61, 79-80, 94-97, 109-110, 120-125 entry H          line    36 file /opt/software/pc2/EB-SW/software/PSI4/1.9-foss-2022a/share/psi4/basis/jun-cc-pvdz.gbs 


         ---------------------------------------------------------
                                   SCF
               by Justin Turney, Rob Parrish, Andy Simmonett
                          and Daniel G. A. Smith
                              RHF Reference
                       16 Threads,  61035 MiB Core
         ---------------------------------------------------------

  ==> Geometry <==

    Molecular point group: c1
    Full point group: C1

    Geometry (in Angstrom), charge = -1, multiplicity = 1:

       Center              X                  Y                   Z               Mass       
    ------------   -----------------  -----------------  -----------------  -----------------
         B           -0.000201921932     0.000288800891    -5.772940908471    11.009305360000
         F           -0.000004162732     0.000014527991    -4.360155908471    18.998403162730
         F            1.147855837268     0.675795727991    -6.244081908471    18.998403162730
         F            0.011913897268    -1.331996472009    -6.243879908471    18.998403162730
         F           -1.159670162732     0.656088027991    -6.243800908471    18.998403162730
      Gh(C)          -3.668445426752     7.803766698073     0.428925132864    12.000000000000
      Gh(C)          -4.847602882078     7.131256359331     0.426558557932    12.000000000000
      Gh(C)          -4.894963461907     5.696344931522     0.425985646833    12.000000000000
      Gh(C)          -3.653744841505     4.980744868950     0.433646088563    12.000000000000
      Gh(C)          -2.409429284226     7.113995564665     0.429119475124    12.000000000000
      Gh(C)          -2.425481506836     5.681136478894     0.422114586254    12.000000000000
      Gh(C)          -1.194748179167     7.786158722300     0.430591655666    12.000000000000
      Gh(C)           0.037954866205     7.099436173748     0.428420951361    12.000000000000
      Gh(C)           0.030328424687     5.669504087695     0.422937566446    12.000000000000
      Gh(C)          -1.200988670637     4.969284875906     0.431907300379    12.000000000000
      Gh(C)           1.277953663083     7.772873971185     0.429796799922    12.000000000000
      Gh(C)           2.485353921992     7.087711413228     0.427522312017    12.000000000000
      Gh(C)           2.486124522185     5.654785338231     0.420584563029    12.000000000000
      Gh(C)           1.254078756912     4.956092641655     0.432212504618    12.000000000000
      Gh(C)           3.751710428674     7.763926678971     0.427649163398    12.000000000000
      Gh(C)           4.923561893453     7.078795304981     0.425592682690    12.000000000000
      Gh(C)           4.955603108594     5.643461991360     0.425432269883    12.000000000000
      Gh(C)           3.706797371473     4.941224736324     0.430523830052    12.000000000000
      Gh(H)          -3.658525300490     8.890841947126     0.430610121114     1.007825032230
      Gh(H)          -1.189217492488     8.874135615351     0.434563532107     1.007825032230
      Gh(H)           1.284290076155     8.860847963479     0.433955624063     1.007825032230
      Gh(H)           3.753537924068     8.851049806963     0.429171687713     1.007825032230
      Gh(H)           5.869954540475     7.613809362646     0.424667315647     1.007825032230
      Gh(H)          -5.788235870234     7.676316740925     0.424998710576     1.007825032230
[...]
    1498A      2.111970  1499A      2.112367  1500A      2.112735  
    1501A      2.113094  1502A      2.115139  1503A      2.117176  
    1504A      2.117917  1505A      2.119781  1506A      2.126484  
    1507A      2.126859  1508A      2.127013  1509A      2.127522  
    1510A      2.127966  1511A      2.128213  1512A      2.130397  
    1513A      2.131426  1514A      2.135252  1515A      2.135675  
    1516A      2.138412  1517A      2.139671  1518A      2.142981  
    1519A      2.143279  1520A      2.143379  1521A      2.143921  
    1522A      2.144511  1523A      2.154534  1524A      2.155011  
    1525A      2.157343  1526A      2.157936  1527A      2.159021  
    1528A      2.159640  1529A      2.159968  1530A      2.160141  
    1531A      2.162643  1532A      2.163201  1533A      2.171316  
    1534A      2.171681  1535A      2.179988  1536A      2.181148  
    1537A      2.181168  1538A      2.182425  1539A      2.188828  
    1540A      2.189577  1541A      2.190953  1542A      2.191595  
    1543A      2.192648  1544A      2.195010  1545A      2.197543  
    1546A      2.198128  1547A      2.200497  1548A      2.200692  
    1549A      2.201084  1550A      2.201648  1551A      2.203182  
    1552A      2.204210  1553A      2.205618  1554A      2.209846  
    1555A      2.213679  1556A      2.214011  1557A      2.220159  
    1558A      2.222253  1559A      2.222722  1560A      2.224320  
    1561A      2.224782  1562A      2.224828  1563A      2.228798  
    1564A      2.232004  1565A      2.232331  1566A      2.233377  
    1567A      2.238752  1568A      2.238880  1569A      2.239480  
    1570A      2.241568  1571A      2.247560  1572A      2.248160  
    1573A      2.249638  1574A      2.250594  1575A      2.260396  
    1576A      2.261553  1577A      2.263862  1578A      2.265013  
    1579A      2.266786  1580A      2.269540  1581A      2.275322  
    1582A      2.282838  1583A      2.284271  1584A      2.290682  
    1585A      2.291081  1586A      2.296367  1587A      2.296770  
    1588A      2.303767  1589A      2.304149  1590A      2.309136  
    1591A      2.317364  1592A      2.324497  1593A      2.324914  
    1594A      2.325193  1595A      2.327225  1596A      2.329441  
    1597A      2.330561  1598A      2.331187  1599A      2.333052  
    1600A      2.334458  1601A      2.335085  1602A      2.339726  
    1603A      2.341390  1604A      2.342152  1605A      2.342321  
    1606A      2.344808  1607A      2.345820  1608A      2.346307  
    1609A      2.349086  1610A      2.349428  1611A      2.368052  
    1612A      2.372305  1613A      2.372957  1614A      2.383615  
    1615A      2.387968  1616A      2.390918  1617A      2.391688  
    1618A      2.393286  1619A      2.396977  1620A      2.418323  
    1621A      2.419503  1622A      2.423766  1623A      2.427588  
    1624A      2.432219  1625A      2.441754  1626A      2.443849  
    1627A      2.452341  1628A      2.453099  1629A      2.464325  
    1630A      2.464470  1631A      2.467793  1632A      2.468086  
    1633A      2.471916  1634A      2.472172  1635A      2.490991  
    1636A      2.491386  1637A      2.494849  1638A      2.501800  
    1639A      2.506218  1640A      2.507121  1641A      2.511451  
    1642A      2.516169  1643A      2.539250  1644A      2.539400  
    1645A      2.540008  1646A      2.541984  1647A      2.542742  
    1648A      2.544871  1649A      2.547599  1650A      2.548529  
    1651A      2.549182  1652A      2.551146  1653A      2.556549  
    1654A      2.556704  1655A      2.564200  1656A      2.571217  
    1657A      2.571479  1658A      2.580026  1659A      2.583690  
    1660A      2.584172  1661A      2.585110  1662A      2.586254  
    1663A      2.588496  1664A      2.588837  1665A      2.593205  
    1666A      2.593494  1667A      2.601330  1668A      2.601455  
    1669A      2.612754  1670A      2.613085  1671A      2.613425  
    1672A      2.613743  1673A      2.616792  1674A      2.617532  
    1675A      2.632532  1676A      2.640571  1677A      2.641516  
    1678A      2.643734  1679A      2.645400  1680A      2.647362  
    1681A      2.648658  1682A      2.649276  1683A      2.652752  
    1684A      2.655708  1685A      2.656069  1686A      2.666018  
    1687A      2.666100  1688A      2.667557  1689A      2.670351  
    1690A      2.670558  1691A      2.673597  1692A      2.677269  
    1693A      2.677637  1694A      2.684336  1695A      2.685647  
    1696A      2.687149  1697A      2.691136  1698A      2.691253  
    1699A      2.691569  1700A      2.692472  1701A      2.696068  
    1702A      2.697288  1703A      2.704003  1704A      2.720686  
    1705A      2.730693  1706A      2.730889  1707A      2.731008  
    1708A      2.731321  1709A      2.731947  1710A      2.752705  
    1711A      2.760255  1712A      2.760739  1713A      2.772808  
    1714A      2.775912  1715A      2.780032  1716A      2.780659  
    1717A      2.799110  1718A      2.799886  1719A      2.801525  
    1720A      2.802177  1721A      2.802232  1722A      2.807609  
    1723A      2.809824  1724A      2.814691  1725A      2.814816  
    1726A      2.815772  1727A      2.816299  1728A      2.816718  
    1729A      2.817063  1730A      2.824493  1731A      2.828192  
    1732A      2.828334  1733A      2.840132  1734A      2.841684  
    1735A      2.841759  1736A      2.844624  1737A      2.846225  
    1738A      2.865026  1739A      2.865419  1740A      2.868355  
    1741A      2.870442  1742A      2.871403  1743A      2.874180  
    1744A      2.895935  1745A      2.896820  1746A      2.912680  
    1747A      2.917699  1748A      2.917800  1749A      2.927411  
    1750A      2.929791  1751A      2.934897  1752A      2.934930  
    1753A      2.963031  1754A      2.964915  1755A      2.965394  
    1756A      2.976095  1757A      2.991818  1758A      2.992557  
    1759A      3.029290  1760A      3.030015  1761A      3.035319  
    1762A      3.038517  1763A      3.046835  1764A      3.047503  
    1765A      3.047980  1766A      3.057518  1767A      3.057569  
    1768A      3.063276  1769A      3.072838  1770A      3.108375  
    1771A      3.112830  1772A      3.113140  1773A      3.122570  
    1774A      3.127123  1775A      3.127809  1776A      3.132466  
    1777A      3.134069  1778A      3.141902  1779A      3.142959  
    1780A      3.148253  1781A      3.148782  1782A      3.149538  
    1783A      3.150096  1784A      3.153562  1785A      3.162078  
    1786A      3.167828  1787A      3.173129  1788A      3.175045  
    1789A      3.175273  1790A      3.193043  1791A      3.193790  
    1792A      3.220056  1793A      3.252946  1794A      3.259441  
    1795A      3.261240  1796A      3.261589  1797A      3.262229  
    1798A      3.264397  1799A      3.268267  1800A      3.271409  
    1801A      3.274815  1802A      3.275413  1803A      3.293338  
    1804A      3.294928  1805A      3.296463  1806A      3.303033  
    1807A      3.361280  1808A      3.362145  1809A      3.369675  
    1810A      3.415806  1811A      3.429729  1812A      3.432109  
    1813A      3.436902  1814A      3.446472  1815A      3.449965  
    1816A      3.461242  1817A      3.464527  1818A      3.465618  
    1819A      3.470989  1820A      3.473953  1821A      3.481893  
    1822A      3.484873  1823A      3.493774  1824A      3.509135  
    1825A      3.540117  1826A      3.574268  1827A      3.575963  
    1828A      3.582697  1829A      3.590104  1830A      3.636764  
    1831A      3.639709  1832A      3.664622  1833A      3.666731  
    1834A      3.704970  1835A      3.747429  1836A      3.749407  
    1837A      3.750680  1838A      3.763077  1839A      3.778576  
    1840A      3.779497  1841A      3.841843  1842A      3.843212  
    1843A      3.871445  1844A      3.874597  1845A      3.904822  
    1846A      3.912996  1847A      3.938115  1848A      3.940756  
    1849A      3.948299  1850A      3.949233  1851A      3.958620  
    1852A      3.964902  1853A      3.970832  1854A      4.024656  
    1855A      4.027454  1856A      4.070720  1857A      4.196915  
    1858A      4.198207  1859A      4.221138  1860A      4.230292  
    1861A      4.301889  1862A      4.345871  1863A      4.393502  
    1864A      5.748785  1865A      5.750260  1866A      5.750301  
    1867A      5.754279  1868A      5.754286  1869A      5.758787  
    1870A      5.761515  1871A      5.761556  1872A      5.780867  
    1873A      5.780920  1874A      5.793115  1875A      6.020127  
    1876A      6.021059  1877A      6.021406  1878A      6.194429  
    1879A      6.327358  1880A      6.327677  1881A      6.376264  
    1882A      6.376544  1883A      6.376664  1884A      7.171232  
    1885A      7.173715  1886A      7.236600  1887A      7.237266  
    1888A      7.238198  1889A      7.242179  1890A      7.284355  
    1891A      7.285236  1892A      7.461180  1893A      7.461459  
    1894A      7.519735  1895A      7.620093  1896A     12.607572  
    1897A     42.910488  1898A     42.910664  1899A     42.916738  
    1900A     42.941869  

    Final Occupation by Irrep:
              A 
    DOCC [   300 ]
    NA   [   300 ]
    NB   [   300 ]

  @DF-RHF Final Energy: -3650.33804002820216

   => Energetics <=

    Nuclear Repulsion Energy =          15611.4211649754324753
    One-Electron Energy =              -36072.0898416012205416
    Two-Electron Energy =               16810.3306365975840890
    Total Energy =                      -3650.3380400282039773

Computation Completed


Properties will be evaluated at   0.000000,   0.000000,   0.000000 [a0]

Properties computed using the SCF density matrix


 Multipole Moments:

 ------------------------------------------------------------------------------------
     Multipole            Electronic (a.u.)      Nuclear  (a.u.)        Total (a.u.)
 ------------------------------------------------------------------------------------

 L = 1.  Multiply by 2.5417464519 to convert [e a0] to [Debye]
 Dipole X            :         -0.0008467            0.0002304           -0.0006162
 Dipole Y            :          0.0011060           -0.0013052           -0.0001992
 Dipole Z            :       -484.1761711          484.1796749            0.0035038
 Magnitude           :                                                    0.0035632

 ------------------------------------------------------------------------------------

*** tstop() called on n2cn1038 at Sat Jan 27 16:10:36 2024
Module time:
	user time   =   16975.15 seconds =     282.92 minutes
	system time =     917.57 seconds =      15.29 minutes
	total time  =       6449 seconds =     107.48 minutes
Total time:
	user time   =   44161.08 seconds =     736.02 minutes
	system time =    2338.82 seconds =      38.98 minutes
	total time  =      19731 seconds =     328.85 minutes
  Constructing Basis Sets for SAPT...

   => Loading Basis Set <=

    Name: (JUN-CC-PVDZ AUX)
    Role: RIFIT
    Keyword: DF_BASIS_SAPT
    atoms 1                                                   entry B          line    56 file /opt/software/pc2/EB-SW/software/PSI4/1.9-foss-2022a/share/psi4/basis/jun-cc-pvdz-ri.gbs 
    atoms 2-5                                                 entry F          line   232 file /opt/software/pc2/EB-SW/software/PSI4/1.9-foss-2022a/share/psi4/basis/jun-cc-pvdz-ri.gbs 
    atoms 6-23, 30-42, 45-59, 62-78, 81-93, 98-108, 111-119   entry C          line   100 file /opt/software/pc2/EB-SW/software/PSI4/1.9-foss-2022a/share/psi4/basis/jun-cc-pvdz-ri.gbs 
    atoms 24-29, 43-44, 60-61, 79-80, 94-97, 109-110, 120-125 entry H          line    30 file /opt/software/pc2/EB-SW/software/PSI4/1.9-foss-2022a/share/psi4/basis/jun-cc-pvdz-ri.gbs 

   => Loading Basis Set <=

    Name: (JUN-CC-PVDZ AUX)
    Role: JKFIT
    Keyword: DF_BASIS_ELST
    atoms 1                                                   entry B          line    90 file /opt/software/pc2/EB-SW/software/PSI4/1.9-foss-2022a/share/psi4/basis/jun-cc-pvdz-jkfit.gbs 
    atoms 2-5                                                 entry F          line   314 file /opt/software/pc2/EB-SW/software/PSI4/1.9-foss-2022a/share/psi4/basis/jun-cc-pvdz-jkfit.gbs 
    atoms 6-23, 30-42, 45-59, 62-78, 81-93, 98-108, 111-119   entry C          line   146 file /opt/software/pc2/EB-SW/software/PSI4/1.9-foss-2022a/share/psi4/basis/jun-cc-pvdz-jkfit.gbs 
    atoms 24-29, 43-44, 60-61, 79-80, 94-97, 109-110, 120-125 entry H          line    70 file /opt/software/pc2/EB-SW/software/PSI4/1.9-foss-2022a/share/psi4/basis/jun-cc-pvdz-jkfit.gbs 


  //>>>>>>>>>>>>>>>>>>>>>>>>>>>>>>>>>>>//
  //               SSAPT0              //
  //<<<<<<<<<<<<<<<<<<<<<<<<<<<<<<<<<<<//


*** tstart() called on n2cn1038
*** at Sat Jan 27 16:10:37 2024

        SAPT0  
    Ed Hohenstein
     6 June 2009

      Orbital Information
  --------------------------
    NSO        =      1938
    NMO        =      1900
    NRI        =      6901
    NRI (Elst) =      8531
    NOCC A     =        21
    NOCC B     =       300
    FOCC A     =         5
    FOCC B     =        96
    NVIR A     =      1879
    NVIR B     =      1600

    Elst10,r            =     0.009387994687 [Eh]
    Exch10              =     0.000002777469 [Eh]
    Exch10 (S^2)        =     0.000002777507 [Eh]

    Iter     Energy [mEh]          dE [mEh]         Residual      Time [s]
       1      -0.00494243       0.004942434       0.474915155          1060
       2      -0.00571986       0.000777430       0.245564907          1871
       3      -0.00603259       0.000312724       0.045153159          2580
       4      -0.00602752      -0.000005068       0.009863147          3263
       5      -0.00601972      -0.000007795       0.001444602          3965
       6      -0.00602099       0.000001269       0.000357009          4782
       7      -0.00602100       0.000000009       0.000113912          5441
       8      -0.00602095      -0.000000049       0.000025247          6007
       9      -0.00602095      -0.000000004       0.000004025          6616
      10      -0.00602095       0.000000002       0.000000896          7235

    CHF Iterations converged


    Iter     Energy [mEh]          dE [mEh]         Residual      Time [s]
       1      -7.41568873       7.415688725      47.346164224           781
       2      -4.74411151      -2.671577215       5.642858068          1341
       3      -4.71808213      -0.026029382       1.871692750          1898
       4      -4.80285903       0.084776899       0.596668419          2392
       5      -4.81462256       0.011763537       0.204393743          3017
       6      -4.81343788      -0.001184680       0.134447373          3644
       7      -4.81104251      -0.002395372       0.054482968          4176
       8      -4.81118641       0.000143894       0.025254486          4744
       9      -4.81163368       0.000447270       0.013046057          5201
      10      -4.81157978      -0.000053901       0.013286658          5698
      11      -4.81147675      -0.000103021       0.006226466          6274
      12      -4.81148246       0.000005707       0.002880163          6899
      13      -4.81150246       0.000020003       0.001073739          7621
      14      -4.81150758       0.000005117       0.000371298          8307
      15      -4.81150551      -0.000002072       0.000224786          9025
      16      -4.81150307      -0.000002443       0.000131824          9810
      17      -4.81150415       0.000001083       0.000070771         10510
      18      -4.81150461       0.000000462       0.000023293         11205
      19      -4.81150442      -0.000000190       0.000011436         12073
      20      -4.81150437      -0.000000055       0.000005010         12921
      21      -4.81150439       0.000000022       0.000002526         23464
      22      -4.81150440       0.000000014       0.000001250         27964
      23      -4.81150440      -0.000000002       0.000000519         28940

    CHF Iterations converged

    Ind20,r (A<-B)      =    -0.000006020952 [Eh]
    Ind20,r (B<-A)      =    -0.004811504400 [Eh]
    Ind20,r             =    -0.004817525352 [Eh]
    Exch-Ind20,r (A<-B) =     0.000000672522 [Eh]
    Exch-Ind20,r (B<-A) =     0.000002463498 [Eh]
    Exch-Ind20,r        =     0.000003136020 [Eh]
    Disp20              =    -0.000940226418 [Eh]
    Disp20 (SS)         =    -0.000470113209 [Eh]
    Disp20 (OS)         =    -0.000470113209 [Eh]
    Exch-Disp20         =     0.000002675147 [Eh]
    Exch-Disp20 (SS)    =     0.000002008189 [Eh]
    Exch-Disp20 (OS)    =     0.000000666958 [Eh]

    SAPT Results 
  --------------------------------------------------------------------------------------------------------
    Electrostatics                  9.38799469 [mEh]       5.89105561 [kcal/mol]      24.64817666 [kJ/mol]
      Elst10,r                      9.38799469 [mEh]       5.89105561 [kcal/mol]      24.64817666 [kJ/mol]

    Exchange                        0.00277747 [mEh]       0.00174289 [kcal/mol]       0.00729224 [kJ/mol]
      Exch10                        0.00277747 [mEh]       0.00174289 [kcal/mol]       0.00729224 [kJ/mol]
      Exch10(S^2)                   0.00277751 [mEh]       0.00174291 [kcal/mol]       0.00729234 [kJ/mol]

    Induction                      -4.78339035 [mEh]      -3.00162276 [kcal/mol]     -12.55878964 [kJ/mol]
      Ind20,r                      -4.81752535 [mEh]      -3.02304280 [kcal/mol]     -12.64841107 [kJ/mol]
      Exch-Ind20,r                  0.00313602 [mEh]       0.00196788 [kcal/mol]       0.00823362 [kJ/mol]
      delta HF,r (2)                0.03099898 [mEh]       0.01945215 [kcal/mol]       0.08138781 [kJ/mol]

    Dispersion                     -0.93755127 [mEh]      -0.58832230 [kcal/mol]      -2.46154052 [kJ/mol]
      Disp20                       -0.94022642 [mEh]      -0.59000098 [kcal/mol]      -2.46856412 [kJ/mol]
      Exch-Disp20                   0.00267515 [mEh]       0.00167868 [kcal/mol]       0.00702360 [kJ/mol]
      Disp20 (SS)                  -0.47011321 [mEh]      -0.29500049 [kcal/mol]      -1.23428206 [kJ/mol]
      Disp20 (OS)                  -0.47011321 [mEh]      -0.29500049 [kcal/mol]      -1.23428206 [kJ/mol]
      Exch-Disp20 (SS)              0.00200819 [mEh]       0.00126016 [kcal/mol]       0.00527250 [kJ/mol]
      Exch-Disp20 (OS)              0.00066696 [mEh]       0.00041852 [kcal/mol]       0.00175110 [kJ/mol]

  Total HF                          4.60738180 [mEh]       2.89117573 [kcal/mol]      12.09667925 [kJ/mol]
  Total SAPT0                       3.66983053 [mEh]       2.30285343 [kcal/mol]       9.63513873 [kJ/mol]

  Special recipe for scaled SAPT0 (see Manual):
    Electrostatics sSAPT0           9.38799469 [mEh]       5.89105561 [kcal/mol]      24.64817666 [kJ/mol]
    Exchange sSAPT0                 0.00277747 [mEh]       0.00174289 [kcal/mol]       0.00729224 [kJ/mol]
    Induction sSAPT0               -4.78339035 [mEh]      -3.00162276 [kcal/mol]     -12.55878964 [kJ/mol]
    Dispersion sSAPT0              -0.93755127 [mEh]      -0.58832230 [kcal/mol]      -2.46154052 [kJ/mol]
  Total sSAPT0                      3.66983053 [mEh]       2.30285343 [kcal/mol]       9.63513873 [kJ/mol]
  --------------------------------------------------------------------------------------------------------

*** tstop() called on n2cn1038 at Mon Jan 29 14:44:55 2024
Module time:
	user time   =   64648.48 seconds =    1077.47 minutes
	system time =    3324.85 seconds =      55.41 minutes
	total time  =     167658 seconds =    2794.30 minutes
Total time:
	user time   =  108810.90 seconds =    1813.51 minutes
	system time =    5663.67 seconds =      94.39 minutes
	total time  =     187390 seconds =    3123.17 minutes

    Psi4 stopped on: Monday, 29 January 2024 02:44PM
    Psi4 wall time for execution: 2 days, 4:03:12.23

*** Psi4 exiting successfully. Buy a developer a beer!
