
    -----------------------------------------------------------------------
          Psi4: An Open-Source Ab Initio Electronic Structure Package
                               Psi4 1.9 release

                         Git: Rev {} zzzzzzz 


    D. G. A. Smith, L. A. Burns, A. C. Simmonett, R. M. Parrish,
    M. C. Schieber, R. Galvelis, P. Kraus, H. Kruse, R. Di Remigio,
    A. Alenaizan, A. M. James, S. Lehtola, J. P. Misiewicz, M. Scheurer,
    R. A. Shaw, J. B. Schriber, Y. Xie, Z. L. Glick, D. A. Sirianni,
    J. S. O'Brien, J. M. Waldrop, A. Kumar, E. G. Hohenstein,
    B. P. Pritchard, B. R. Brooks, H. F. Schaefer III, A. Yu. Sokolov,
    K. Patkowski, A. E. DePrince III, U. Bozkaya, R. A. King,
    F. A. Evangelista, J. M. Turney, T. D. Crawford, C. D. Sherrill,
    J. Chem. Phys. 152(18) 184108 (2020). https://doi.org/10.1063/5.0006002

                            Additional Code Authors
    E. T. Seidl, C. L. Janssen, E. F. Valeev, M. L. Leininger,
    J. F. Gonthier, R. M. Richard, H. R. McAlexander, M. Saitow, X. Wang,
    P. Verma, M. H. Lechner, A. Jiang, S. Behnle, A. G. Heide,
    M. F. Herbst, and D. L. Poole

             Previous Authors, Complete List of Code Contributors,
                       and Citations for Specific Modules
    https://github.com/psi4/psi4/blob/master/codemeta.json
    https://github.com/psi4/psi4/graphs/contributors
    http://psicode.org/psi4manual/master/introduction.html#citing-psifour

    -----------------------------------------------------------------------


    Psi4 started on: Monday, 22 January 2024 07:27PM

    Process ID: 2415445
    Host:       d-16-12-3
    PSIDATADIR: /home/gridsan/tfroembgen/.conda/envs/psi4test/share/psi4
    Memory:     500.0 MiB
    Threads:    12
    
  ==> Input File <==

--------------------------------------------------------------------------
memory 32 GB # how much memory is available ! Depends on the nodes/cores !

molecule dimer {
# monomer A
+1 1    # Charge and multiplicity
C  0.680067 -0.008042 -6.815929
C -0.680504 -0.006014 -6.815545
N -1.085635 -0.005016 -5.497221
C  0.000108 -0.001740 -4.715820
C -2.477365  0.044390 -5.029242
N  1.085222 -0.005016 -5.497221
H  1.385146 -0.015870 -7.633368
H -1.385302 -0.006204 -7.633214
H -0.000009  0.000007 -3.634731
C  2.478117 -0.021908 -5.032123
H  2.490592  0.005437 -3.941870
H  2.967028 -0.935354 -5.379299
H  3.001428  0.853575 -5.423595
H -2.857359  1.066461 -5.109201
H -3.082679 -0.625694 -5.642306
H -2.518128 -0.282594 -3.989294
--
# monomer B
0 1     # Charge and multiplicity
C   1.22531237526482      0.70753866091955      0.00613762728373
C   1.22532433589282     -0.70753852257020     -0.00619318228664
C   -0.00000567409046      1.41496628609039     -0.00672680580738
C   2.45644923379077      1.41832825917820      0.00902448468363
C   0.00001130712078     -1.41497612663474      0.00347275151708
C   -1.22530046906674      0.70754574598412      0.00838914760619
C   2.45643823516184     -1.41832293188077     -0.00843833914343
C   -0.00000085313587      2.83680140328112     -0.00913035594137
C   3.68182717731192      0.70931832800114     -0.00808954934571
C   2.45512052870677      2.83422403348893     -0.00819210630633
C   3.68182158506039     -0.70933346742900      0.00798293467272
C   -1.22531311884624     -0.70752714354401     -0.00512042085974
C   1.22670006104402      3.54346985599427      0.00816696660346
C   0.00000526469929     -2.83678176723568      0.00832091913869
C   -2.45643555300670      1.41831729028492      0.00842454345199
C   2.45512389762097     -2.83422965658853      0.00783102630520
C   -1.22671388474763      3.54346943575023      0.00827029982280
C   4.91451777504333      1.42717324448953     -0.00160886631602
C   3.69315067131765      3.54279566454522     -0.00155906667985
C   -2.45643712022637     -1.41831290883911     -0.00846337726810
C   1.22670532178455     -3.54347386990643     -0.00780316414624
C   -2.45512491866593      2.83421703463423     -0.00818572995999
C   4.91452486062398     -1.42718653794377      0.00136387641845
C   1.22142509354026      4.97013443726031      0.00150231067809
C   4.89300870916237      2.82518837202648     -0.00039219795739
C   -1.22669652864725     -3.54347062507680     -0.00753595973677
C   -3.68181849668397      0.70932533873199     -0.00807686886569
C   3.69314758099218     -3.54280096939050      0.00148176697923
C   -1.22143177215231      4.97012866986289      0.00168580605083
C   6.13477145276790      0.68054831910577     -0.00083909176631
C   3.65678936045204      4.97295361556775     -0.00065042889723
C   -2.45512642789169     -2.83421472106065      0.00758666850712
C   -3.68181869921921     -0.70932533146830      0.00810055625144
C   4.89301309775526     -2.82519973363176      0.00021895393805
C   -0.00000059327114      5.65044773803267      0.00045449734393
C   6.13477559217374     -0.68055448207492      0.00042622874941
C   2.47813196269732      5.65357712333155      0.00063835075260
C   1.22142288457925     -4.97012668293268     -0.00129718634452
C   -3.69316190412301      3.54279732619245     -0.00139355922051
C   -1.22142804110313     -4.97011793159564     -0.00140994817719
C   -4.91452132810043      1.42717581899491     -0.00153192130862
C   3.65678749952045     -4.97295485423912      0.00080007163680
C   -2.47813805026426      5.65357479452875      0.00092287576113
C   -3.69314125872231     -3.54278984697859      0.00136564082345
C   -4.91451200321153     -1.42718062802730      0.00139857359209
C   -0.00000552908399     -5.65043791501335      0.00005899322272
C   -4.89302000425900      2.82518897091939     -0.00040227981744
C   2.47812647313991     -5.65357317188818     -0.00029052915548
C   -3.65679823041642      4.97295655404175     -0.00047374852278
C   -4.89299899901461     -2.82519139505969      0.00006491824035
C   -2.47812801824129     -5.65356579800621     -0.00056571680280
C   -6.13477002348955      0.68054913825639     -0.00086464346868
C   -3.65678835334731     -4.97294365097028      0.00058578382008
C   -6.13476456307132     -0.68055354348201      0.00040575295444
H   5.83528897565761      3.36927626695423      0.00396712770529
H   7.07385965258860      1.22821762089947     -0.00037744837300
H   4.60066374401555      5.51238117445323     -0.00014522814529
H   5.83528386714679     -3.36930568472863     -0.00423551337640
H   -0.00001167146422      6.73853104613662     -0.00389474766392
H   7.07386165167227     -1.22822657074368     -0.00008250934481
H   2.47331421164041      6.74068466339473      0.00017162982210
H   4.60066897122302     -5.51237575717576      0.00039007446835
H   -2.47331820069565      6.74068209160650      0.00047297644710
H   -0.00000978838621     -6.73852780445195      0.00458867820736
H   -5.83530143450167      3.36927132229595      0.00410314985360
H   2.47330840367253     -6.74068500242887      0.00027980126949
H   -4.60067436136587      5.51237839860371      0.00002010017831
H   -5.83527902699321     -3.36928859177951     -0.00451481925734
H   -2.47329986759855     -6.74067870613986     -0.00016951527498
H   -7.07385728692578      1.22822084484047     -0.00046143985387
H   -4.60067330624313     -5.51236229778631      0.00021776644566
H   -7.07385645456741     -1.22822025997701     -0.00017736581114

    units angstrom      # Angstroms are the default
    no_reorient         # Geometry fixed, default
    symmetry c1         # C1 symmetry, default
}

set {
    scf_type DF         # Density fitting, faster than exact integrals
    freeze_core True    # Freeze core electrons
    basis jun-cc-pVDZ   # Jun-cc-pVDZ basis set, recommended for sSAPT0 in https://doi.org/10.1063/1.4867135
}

energy('ssapt0')        # Compute sSAPT0 energy, includes also SAPT0
--------------------------------------------------------------------------

  Memory set to  29.802 GiB by Python driver.

Scratch directory: /state/partition1/slurm_tmp/24798270.4294967291.0/
   => Loading Basis Set <=

    Name: JUN-CC-PVDZ
    Role: ORBITAL
    Keyword: BASIS
    atoms 1-2, 4-5, 10, 17-70 entry C          line   164 file /home/gridsan/tfroembgen/.conda/envs/psi4test/share/psi4/basis/jun-cc-pvdz.gbs 
    atoms 3, 6                entry N          line   198 file /home/gridsan/tfroembgen/.conda/envs/psi4test/share/psi4/basis/jun-cc-pvdz.gbs 
    atoms 7-9, 11-16, 71-88   entry H          line    36 file /home/gridsan/tfroembgen/.conda/envs/psi4test/share/psi4/basis/jun-cc-pvdz.gbs 

   => Loading Basis Set <=

    Name: JUN-CC-PVDZ
    Role: ORBITAL
    Keyword: BASIS
    atoms 1-2, 4-5, 10, 17-70 entry C          line   164 file /home/gridsan/tfroembgen/.conda/envs/psi4test/share/psi4/basis/jun-cc-pvdz.gbs 
    atoms 3, 6                entry N          line   198 file /home/gridsan/tfroembgen/.conda/envs/psi4test/share/psi4/basis/jun-cc-pvdz.gbs 
    atoms 7-9, 11-16, 71-88   entry H          line    36 file /home/gridsan/tfroembgen/.conda/envs/psi4test/share/psi4/basis/jun-cc-pvdz.gbs 


  //>>>>>>>>>>>>>>>>>>>>>>>>>>>>>>>>>>>//
  //              Dimer HF             //
  //<<<<<<<<<<<<<<<<<<<<<<<<<<<<<<<<<<<//

   => Libint2 <=

    Primary   basis highest AM E, G, H:  7, 7, 4
    Auxiliary basis highest AM E, G, H:  7, 7, 5
    Onebody   basis highest AM E, G, H:  7, 7, 5
    Solid Harmonics ordering:            gaussian

*** tstart() called on d-16-12-3
*** at Mon Jan 22 19:27:24 2024

   => Loading Basis Set <=

    Name: JUN-CC-PVDZ
    Role: ORBITAL
    Keyword: BASIS
    atoms 1-2, 4-5, 10, 17-70 entry C          line   164 file /home/gridsan/tfroembgen/.conda/envs/psi4test/share/psi4/basis/jun-cc-pvdz.gbs 
    atoms 3, 6                entry N          line   198 file /home/gridsan/tfroembgen/.conda/envs/psi4test/share/psi4/basis/jun-cc-pvdz.gbs 
    atoms 7-9, 11-16, 71-88   entry H          line    36 file /home/gridsan/tfroembgen/.conda/envs/psi4test/share/psi4/basis/jun-cc-pvdz.gbs 


         ---------------------------------------------------------
                                   SCF
               by Justin Turney, Rob Parrish, Andy Simmonett
                          and Daniel G. A. Smith
                              RHF Reference
                       12 Threads,  30517 MiB Core
         ---------------------------------------------------------

  ==> Geometry <==

    Molecular point group: c1
    Full point group: C1

    Geometry (in Angstrom), charge = 1, multiplicity = 1:

       Center              X                  Y                   Z               Mass       
    ------------   -----------------  -----------------  -----------------  -----------------
         C            0.680066520158    -0.008042372515    -6.103645630242    12.000000000000
         C           -0.680504479842    -0.006014372515    -6.103261630242    12.000000000000
         N           -1.085635479842    -0.005016372515    -4.784937630242    14.003074004430
         C            0.000107520158    -0.001740372515    -4.003536630242    12.000000000000
         C           -2.477365479842     0.044389627485    -4.316958630242    12.000000000000
         N            1.085221520158    -0.005016372515    -4.784937630242    14.003074004430
         H            1.385145520158    -0.015870372515    -6.921084630242     1.007825032230
         H           -1.385302479842    -0.006204372515    -6.920930630242     1.007825032230
         H           -0.000009479842     0.000006627485    -2.922447630242     1.007825032230
         C            2.478116520158    -0.021908372515    -4.319839630242    12.000000000000
         H            2.490591520158     0.005436627485    -3.229586630242     1.007825032230
         H            2.967027520158    -0.935354372515    -4.667015630242     1.007825032230
         H            3.001427520158     0.853574627485    -4.711311630242     1.007825032230
         H           -2.857359479842     1.066460627485    -4.396917630242     1.007825032230
         H           -3.082679479842    -0.625694372515    -4.930022630242     1.007825032230
         H           -2.518128479842    -0.282594372515    -3.277010630242     1.007825032230
         C            1.225311895423     0.707538288405     0.718420997042    12.000000000000
         C            1.225323856051    -0.707538895085     0.706090187471    12.000000000000
         C           -0.000006153932     1.414965913575     0.705556563951    12.000000000000
         C            2.456448753949     1.418327886663     0.721307854442    12.000000000000
         C            0.000010827279    -1.414976499150     0.715756121275    12.000000000000
         C           -1.225300948908     0.707545373469     0.720672517364    12.000000000000
         C            2.456437755320    -1.418323304396     0.703845030614    12.000000000000
         C           -0.000001332978     2.836801030766     0.703153013817    12.000000000000
         C            3.681826697470     0.709317955486     0.704193820412    12.000000000000
         C            2.455120048865     2.834223660974     0.704091263452    12.000000000000
         C            3.681821105219    -0.709333839944     0.720266304431    12.000000000000
         C           -1.225313598688    -0.707527516059     0.707162948898    12.000000000000
         C            1.226699581202     3.543469483479     0.720450336361    12.000000000000
         C            0.000004784858    -2.836782139751     0.720604288897    12.000000000000
         C           -2.456436032848     1.418316917770     0.720707913210    12.000000000000
         C            2.455123417779    -2.834230029103     0.720114396063    12.000000000000
         C           -1.226714364589     3.543469063235     0.720553669581    12.000000000000
         C            4.914517295202     1.427172871975     0.710674503442    12.000000000000
         C            3.693150191476     3.542795292030     0.710724303078    12.000000000000
         C           -2.456437600068    -1.418313281354     0.703819992490    12.000000000000
         C            1.226704841943    -3.543474242421     0.704480205612    12.000000000000
         C           -2.455125398508     2.834216662119     0.704097639798    12.000000000000
         C            4.914524380782    -1.427186910459     0.713647246176    12.000000000000
         C            1.221424613699     4.970134064745     0.713785680436    12.000000000000
         C            4.893008229321     2.825187999512     0.711891171800    12.000000000000
         C           -1.226697008489    -3.543470997592     0.704747410021    12.000000000000
         C           -3.681818976526     0.709324966217     0.704206500892    12.000000000000
         C            3.693147101150    -3.542801341905     0.713765136737    12.000000000000
         C           -1.221432251994     4.970128297348     0.713969175809    12.000000000000
         C            6.134770972926     0.680547946591     0.711444277992    12.000000000000
         C            3.656788880610     4.972953243053     0.711632940861    12.000000000000
         C           -2.455126907733    -2.834215093576     0.719870038265    12.000000000000
         C           -3.681819179061    -0.709325703983     0.720383926009    12.000000000000
         C            4.893012617914    -2.825200106147     0.712502323696    12.000000000000
         C           -0.000001073113     5.650447365518     0.712737867102    12.000000000000
         C            6.134775112332    -0.680554854590     0.712709598507    12.000000000000
         C            2.478131482856     5.653576750817     0.712921720510    12.000000000000
         C            1.221422404738    -4.970127055448     0.710986183413    12.000000000000
         C           -3.693162383965     3.542796953677     0.710889810537    12.000000000000
         C           -1.221428520945    -4.970118304111     0.710873421581    12.000000000000
         C           -4.914521807942     1.427175446480     0.710751448449    12.000000000000
         C            3.656787019679    -4.972955226754     0.713083441395    12.000000000000
         C           -2.478138530106     5.653574422014     0.713206245519    12.000000000000
         C           -3.693141738564    -3.542790219494     0.713649010581    12.000000000000
         C           -4.914512483053    -1.427181000542     0.713681943350    12.000000000000
         C           -0.000006008926    -5.650438287528     0.712342362981    12.000000000000
         C           -4.893020484101     2.825188598404     0.711881089940    12.000000000000
         C            2.478125993298    -5.653573544403     0.711992840602    12.000000000000
         C           -3.656798710258     4.972956181527     0.711809621235    12.000000000000
         C           -4.892999478856    -2.825191767575     0.712348287998    12.000000000000
         C           -2.478128498083    -5.653566170521     0.711717652955    12.000000000000
         C           -6.134770503331     0.680548765741     0.711418726289    12.000000000000
         C           -3.656788833189    -4.972944023485     0.712869153578    12.000000000000
         C           -6.134765042913    -0.680553915997     0.712689122712    12.000000000000
         H            5.835288495816     3.369275894439     0.716250497463     1.007825032230
         H            7.073859172747     1.228217248385     0.711905921385     1.007825032230
         H            4.600663264174     5.512380801938     0.712138141613     1.007825032230
         H            5.835283387305    -3.369306057244     0.708047856381     1.007825032230
         H           -0.000012151306     6.738530673622     0.708388622094     1.007825032230
         H            7.073861171831    -1.228226943259     0.712200860413     1.007825032230
         H            2.473313731799     6.740684290880     0.712454999580     1.007825032230
         H            4.600668491381    -5.512376129691     0.712673444226     1.007825032230
         H           -2.473318680537     6.740681719092     0.712756346205     1.007825032230
         H           -0.000010268228    -6.738528176967     0.716872047965     1.007825032230
         H           -5.835301914343     3.369270949781     0.716386519611     1.007825032230
         H            2.473307923831    -6.740685374944     0.712563171027     1.007825032230
         H           -4.600674841208     5.512378026089     0.712303469936     1.007825032230
         H           -5.835279506835    -3.369288964294     0.707768550501     1.007825032230
         H           -2.473300347440    -6.740679078655     0.712113854483     1.007825032230
         H           -7.073857766768     1.228220472326     0.711821929904     1.007825032230
         H           -4.600673786085    -5.512362670301     0.712501136204     1.007825032230
         H           -7.073856934409    -1.228220632492     0.712106003947     1.007825032230

  Running in c1 symmetry.

  Rotational constants: A =      0.00163  B =      0.00159  C =      0.00109 [cm^-1]
  Rotational constants: A =     48.90805  B =     47.80102  C =     32.71081 [MHz]
  Nuclear repulsion = 8079.177138596273835

  Charge       = 1
  Multiplicity = 1
  Electrons    = 394
  Nalpha       = 197
  Nbeta        = 197

  ==> Algorithm <==

  SCF Algorithm Type is DF.
  DIIS enabled.
  MOM disabled.
  Fractional occupation disabled.
  Guess Type is SAD.
  Energy threshold   = 1.00e-08
  Density threshold  = 1.00e-08
  Integral threshold = 1.00e-12

  ==> Primary Basis <==

  Basis Set: JUN-CC-PVDZ
    Blend: JUN-CC-PVDZ
    Number of shells: 569
    Number of basis functions: 1233
    Number of Cartesian functions: 1294
    Spherical Harmonics?: true
    Max angular momentum: 2

   => Loading Basis Set <=

    Name: (JUN-CC-PVDZ AUX)
    Role: JKFIT
    Keyword: DF_BASIS_SCF
    atoms 1-2, 4-5, 10, 17-70 entry C          line   146 file /home/gridsan/tfroembgen/.conda/envs/psi4test/share/psi4/basis/jun-cc-pvdz-jkfit.gbs 
    atoms 3, 6                entry N          line   202 file /home/gridsan/tfroembgen/.conda/envs/psi4test/share/psi4/basis/jun-cc-pvdz-jkfit.gbs 
    atoms 7-9, 11-16, 71-88   entry H          line    70 file /home/gridsan/tfroembgen/.conda/envs/psi4test/share/psi4/basis/jun-cc-pvdz-jkfit.gbs 

  ==> Integral Setup <==

  ==> DiskDFJK: Density-Fitted J/K Matrices <==

    J tasked:                  Yes
    K tasked:                  Yes
    wK tasked:                  No
    OpenMP threads:             12
    Integrals threads:          12
    Memory [MiB]:            22888
    Algorithm:                Disk
    Integral Cache:           SAVE
    Schwarz Cutoff:          1E-12
    Fitting Condition:       1E-10

   => Auxiliary Basis Set <=

  Basis Set: (JUN-CC-PVDZ AUX)
    Blend: JUN-CC-PVDZ-JKFIT
    Number of shells: 1890
    Number of basis functions: 5440
    Number of Cartesian functions: 6226
    Spherical Harmonics?: true
    Max angular momentum: 3

  Minimum eigenvalue in the overlap matrix is 8.0780020143E-10.
  Reciprocal condition number of the overlap matrix is 3.5561303952E-11.
    Using canonical orthogonalization.
  Overall, 14 of 1233 possible MOs eliminated.


  ==> Pre-Iterations <==

  SCF Guess: Superposition of Atomic Densities via on-the-fly atomic UHF (no occupation information).

   -------------------------
    Irrep   Nso     Nmo    
   -------------------------
     A       1233    1219 
   -------------------------
    Total    1233    1219
   -------------------------

  ==> Iterations <==

                           Total Energy        Delta E     RMS |[F,P]|

   @DF-RHF iter SAD: -2365.42011995109942   -2.36542e+03   0.00000e+00 
   @DF-RHF iter   1: -2358.20720508420072    7.21291e+00   9.44802e-04 ADIIS/DIIS
   @DF-RHF iter   2: -2359.10266838503003   -8.95463e-01   3.19822e-04 ADIIS/DIIS
   @DF-RHF iter   3: -2359.19229803522830   -8.96297e-02   1.17112e-04 ADIIS/DIIS
   @DF-RHF iter   4: -2359.20516955235507   -1.28715e-02   4.24400e-05 DIIS
   @DF-RHF iter   5: -2359.20691629477915   -1.74674e-03   8.64850e-06 DIIS
   @DF-RHF iter   6: -2359.20708330419802   -1.67009e-04   4.17659e-06 DIIS
   @DF-RHF iter   7: -2359.20714147371064   -5.81695e-05   1.82017e-06 DIIS
   @DF-RHF iter   8: -2359.20715916253221   -1.76888e-05   8.61800e-07 DIIS
   @DF-RHF iter   9: -2359.20716118639712   -2.02386e-06   3.01157e-07 DIIS
   @DF-RHF iter  10: -2359.20716139003935   -2.03642e-07   9.77196e-08 DIIS
   @DF-RHF iter  11: -2359.20716140794866   -1.79093e-08   3.47065e-08 DIIS
   @DF-RHF iter  12: -2359.20716141155981   -3.61115e-09   1.70823e-08 DIIS
   @DF-RHF iter  13: -2359.20716141218054   -6.20730e-10   6.54605e-09 DIIS
  Energy and wave function converged.


  ==> Post-Iterations <==

    Orbital Energies [Eh]
    ---------------------

    Doubly Occupied:                                                      

       1A    -15.814010     2A    -15.813507     3A    -11.508223  
       4A    -11.441564     5A    -11.440007     6A    -11.428763  
       7A    -11.428690     8A    -11.335258     9A    -11.334834  
      10A    -11.334682    11A    -11.333775    12A    -11.333600  
      13A    -11.333168    14A    -11.330989    15A    -11.330959  
      16A    -11.330908    17A    -11.330900    18A    -11.330289  
      19A    -11.330212    20A    -11.328785    21A    -11.328766  
      22A    -11.328144    23A    -11.328096    24A    -11.328087  
      25A    -11.328027    26A    -11.327919    27A    -11.327898  
      28A    -11.327222    29A    -11.327208    30A    -11.327118  
      31A    -11.327103    32A    -11.326998    33A    -11.326991  
      34A    -11.326830    35A    -11.326821    36A    -11.326498  
      37A    -11.326496    38A    -11.326491    39A    -11.326483  
      40A    -11.325979    41A    -11.325952    42A    -11.325932  
      43A    -11.325900    44A    -11.319691    45A    -11.319681  
      46A    -11.319633    47A    -11.319627    48A    -11.318909  
      49A    -11.318877    50A    -11.318574    51A    -11.318571  
      52A    -11.317596    53A    -11.317580    54A    -11.317573  
      55A    -11.317570    56A    -11.317139    57A    -11.317135  
      58A    -11.316154    59A    -11.316141    60A    -11.316132  
      61A    -11.316130    62A     -1.557965    63A     -1.413406  
      64A     -1.316751    65A     -1.290814    66A     -1.290197  
      67A     -1.259137    68A     -1.259072    69A     -1.252212  
      70A     -1.226003    71A     -1.218919    72A     -1.218243  
      73A     -1.206399    74A     -1.205871    75A     -1.181499  
      76A     -1.181438    77A     -1.168710    78A     -1.152402  
      79A     -1.152375    80A     -1.148737    81A     -1.133950  
      82A     -1.133933    83A     -1.108132    84A     -1.098316  
      85A     -1.095031    86A     -1.092918    87A     -1.092571  
      88A     -1.085832    89A     -1.080431    90A     -1.056690  
      91A     -1.056505    92A     -1.030243    93A     -1.030156  
      94A     -1.002844    95A     -0.976255    96A     -0.963082  
      97A     -0.962947    98A     -0.958698    99A     -0.956700  
     100A     -0.956418   101A     -0.951106   102A     -0.951000  
     103A     -0.930153   104A     -0.904236   105A     -0.896585  
     106A     -0.886729   107A     -0.886700   108A     -0.881762  
     109A     -0.881491   110A     -0.862392   111A     -0.862359  
     112A     -0.830257   113A     -0.816677   114A     -0.814541  
     115A     -0.803260   116A     -0.802921   117A     -0.800029  
     118A     -0.799903   119A     -0.796829   120A     -0.791579  
     121A     -0.785551   122A     -0.770342   123A     -0.767439  
     124A     -0.767069   125A     -0.765934   126A     -0.762877  
     127A     -0.762584   128A     -0.762212   129A     -0.728827  
     130A     -0.722414   131A     -0.720973   132A     -0.717765  
     133A     -0.717682   134A     -0.708570   135A     -0.707443  
     136A     -0.707243   137A     -0.704788   138A     -0.698677  
     139A     -0.696958   140A     -0.696590   141A     -0.696543  
     142A     -0.680376   143A     -0.671204   144A     -0.671036  
     145A     -0.667819   146A     -0.667368   147A     -0.662751  
     148A     -0.661529   149A     -0.661188   150A     -0.651683  
     151A     -0.648156   152A     -0.647118   153A     -0.635613  
     154A     -0.635302   155A     -0.634477   156A     -0.634333  
     157A     -0.627975   158A     -0.622332   159A     -0.622026  
     160A     -0.608045   161A     -0.607869   162A     -0.606069  
     163A     -0.606036   164A     -0.600312   165A     -0.598053  
     166A     -0.591261   167A     -0.590886   168A     -0.576445  
     169A     -0.567697   170A     -0.563884   171A     -0.560897  
     172A     -0.557036   173A     -0.554163   174A     -0.550275  
     175A     -0.550169   176A     -0.542052   177A     -0.541220  
     178A     -0.521253   179A     -0.520957   180A     -0.507054  
     181A     -0.507009   182A     -0.504930   183A     -0.475277  
     184A     -0.475092   185A     -0.473967   186A     -0.442949  
     187A     -0.442830   188A     -0.418073   189A     -0.409906  
     190A     -0.409530   191A     -0.408964   192A     -0.379362  
     193A     -0.364773   194A     -0.355067   195A     -0.354935  
     196A     -0.293951   197A     -0.293708  

    Virtual:                                                              

     198A     -0.055041   199A     -0.054714   200A     -0.047768  
     201A     -0.045382   202A     -0.039150   203A     -0.026834  
     204A     -0.017650   205A     -0.016334   206A     -0.013011  
     207A     -0.006582   208A     -0.005422   209A     -0.005369  
     210A     -0.003205   211A     -0.002339   212A      0.001142  
     213A      0.002841   214A      0.004892   215A      0.005527  
     216A      0.008582   217A      0.009454   218A      0.013734  
     219A      0.015090   220A      0.015600   221A      0.018134  
     222A      0.018786   223A      0.020598   224A      0.021582  
     225A      0.021935   226A      0.022428   227A      0.023086  
     228A      0.024524   229A      0.033135   230A      0.033773  
     231A      0.035223   232A      0.037704   233A      0.037754  
     234A      0.039373   235A      0.040604   236A      0.042445  
     237A      0.050814   238A      0.051292   239A      0.052397  
     240A      0.053152   241A      0.056127   242A      0.056584  
     243A      0.058024   244A      0.059445   245A      0.062153  
     246A      0.063257   247A      0.063624   248A      0.065434  
     249A      0.073486   250A      0.074655   251A      0.074863  
     252A      0.077746   253A      0.079645   254A      0.080249  
     255A      0.080468   256A      0.081996   257A      0.085548  
     258A      0.088808   259A      0.090454   260A      0.091588  
     261A      0.093620   262A      0.094663   263A      0.094748  
     264A      0.097895   265A      0.101952   266A      0.103429  
     267A      0.105389   268A      0.106003   269A      0.109138  
     270A      0.113441   271A      0.114286   272A      0.114474  
     273A      0.116726   274A      0.118808   275A      0.122243  
     276A      0.124830   277A      0.124987   278A      0.125448  
     279A      0.127174   280A      0.127524   281A      0.131622  
     282A      0.132337   283A      0.133405   284A      0.135696  
     285A      0.138636   286A      0.141535   287A      0.143284  
     288A      0.144883   289A      0.147439   290A      0.147897  
     291A      0.150181   292A      0.151286   293A      0.152745  
     294A      0.153751   295A      0.154277   296A      0.155144  
     297A      0.155419   298A      0.156155   299A      0.159097  
     300A      0.160170   301A      0.161732   302A      0.162282  
     303A      0.164520   304A      0.166466   305A      0.166941  
     306A      0.167972   307A      0.168530   308A      0.171305  
     309A      0.172873   310A      0.173609   311A      0.175285  
     312A      0.175445   313A      0.177505   314A      0.179739  
     315A      0.180752   316A      0.181337   317A      0.184517  
     318A      0.186865   319A      0.187128   320A      0.191112  
     321A      0.192828   322A      0.193705   323A      0.195846  
     324A      0.196958   325A      0.197294   326A      0.197498  
     327A      0.200071   328A      0.200694   329A      0.202589  
     330A      0.204440   331A      0.204494   332A      0.208086  
     333A      0.208250   334A      0.210652   335A      0.211033  
     336A      0.211167   337A      0.211407   338A      0.215476  
     339A      0.217633   340A      0.218854   341A      0.220397  
     342A      0.221731   343A      0.223486   344A      0.226062  
     345A      0.230298   346A      0.234052   347A      0.236355  
     348A      0.237780   349A      0.238275   350A      0.240127  
     351A      0.240391   352A      0.242839   353A      0.243169  
     354A      0.245226   355A      0.245932   356A      0.246409  
     357A      0.248049   358A      0.248407   359A      0.250084  
     360A      0.250435   361A      0.252301   362A      0.252837  
     363A      0.253781   364A      0.254217   365A      0.255106  
     366A      0.255936   367A      0.257147   368A      0.258638  
     369A      0.260497   370A      0.263138   371A      0.264467  
     372A      0.265026   373A      0.270027   374A      0.271467  
     375A      0.272763   376A      0.273975   377A      0.276780  
     378A      0.278190   379A      0.281155   380A      0.282187  
     381A      0.283643   382A      0.283691   383A      0.285576  
     384A      0.286505   385A      0.288937   386A      0.290023  
     387A      0.290319   388A      0.291613   389A      0.292182  
     390A      0.293673   391A      0.296371   392A      0.301177  
     393A      0.301240   394A      0.301755   395A      0.304147  
     396A      0.306343   397A      0.307086   398A      0.308776  
     399A      0.309437   400A      0.311173   401A      0.313877  
     402A      0.320292   403A      0.320467   404A      0.321775  
     405A      0.322552   406A      0.323755   407A      0.324502  
     408A      0.325335   409A      0.326507   410A      0.326602  
     411A      0.328498   412A      0.329320   413A      0.331657  
     414A      0.332652   415A      0.333130   416A      0.333749  
     417A      0.337894   418A      0.338458   419A      0.339701  
     420A      0.340569   421A      0.341090   422A      0.341916  
     423A      0.343984   424A      0.344270   425A      0.345028  
     426A      0.346802   427A      0.347648   428A      0.349067  
     429A      0.352909   430A      0.354662   431A      0.356535  
     432A      0.358044   433A      0.358576   434A      0.359528  
     435A      0.363258   436A      0.365518   437A      0.368800  
     438A      0.372624   439A      0.374154   440A      0.374660  
     441A      0.377824   442A      0.378047   443A      0.379197  
     444A      0.379509   445A      0.382728   446A      0.384805  
     447A      0.387260   448A      0.387738   449A      0.388669  
     450A      0.389938   451A      0.392286   452A      0.393016  
     453A      0.394399   454A      0.395544   455A      0.396510  
     456A      0.399543   457A      0.401495   458A      0.402991  
     459A      0.405925   460A      0.407070   461A      0.408072  
     462A      0.411357   463A      0.412754   464A      0.413559  
     465A      0.417615   466A      0.419539   467A      0.420839  
     468A      0.426483   469A      0.428025   470A      0.428551  
     471A      0.430323   472A      0.431652   473A      0.431828  
     474A      0.433548   475A      0.433981   476A      0.437456  
     477A      0.440333   478A      0.440858   479A      0.442628  
     480A      0.444543   481A      0.446477   482A      0.449658  
     483A      0.451460   484A      0.452415   485A      0.454968  
     486A      0.459325   487A      0.460556   488A      0.461735  
     489A      0.470163   490A      0.470814   491A      0.474470  
     492A      0.475916   493A      0.478034   494A      0.480999  
     495A      0.481721   496A      0.483235   497A      0.484569  
     498A      0.484854   499A      0.488084   500A      0.490008  
     501A      0.490892   502A      0.491078   503A      0.495886  
     504A      0.495961   505A      0.500858   506A      0.502309  
     507A      0.506236   508A      0.512390   509A      0.521571  
     510A      0.526348   511A      0.529017   512A      0.529866  
     513A      0.530283   514A      0.530984   515A      0.543203  
     516A      0.544398   517A      0.546660   518A      0.548803  
     519A      0.552665   520A      0.553714   521A      0.559713  
     522A      0.559946   523A      0.574628   524A      0.579576  
     525A      0.585373   526A      0.587226   527A      0.598390  
     528A      0.600824   529A      0.602173   530A      0.609614  
     531A      0.610119   532A      0.618060   533A      0.647623  
     534A      0.648482   535A      0.649661   536A      0.667577  
     537A      0.670198   538A      0.673227   539A      0.674852  
     540A      0.676201   541A      0.677770   542A      0.678352  
     543A      0.688244   544A      0.689783   545A      0.691912  
     546A      0.696815   547A      0.699390   548A      0.706520  
     549A      0.711497   550A      0.717698   551A      0.723295  
     552A      0.727134   553A      0.729908   554A      0.732646  
     555A      0.735497   556A      0.739224   557A      0.740983  
     558A      0.742836   559A      0.744164   560A      0.747959  
     561A      0.753083   562A      0.755910   563A      0.758748  
     564A      0.760432   565A      0.761607   566A      0.763785  
     567A      0.763989   568A      0.773931   569A      0.774348  
     570A      0.780820   571A      0.785703   572A      0.789726  
     573A      0.790716   574A      0.796073   575A      0.797462  
     576A      0.798312   577A      0.800885   578A      0.801779  
     579A      0.804186   580A      0.806631   581A      0.808311  
     582A      0.811495   583A      0.812949   584A      0.815694  
     585A      0.819763   586A      0.820807   587A      0.824413  
     588A      0.828047   589A      0.831627   590A      0.832484  
     591A      0.833064   592A      0.837646   593A      0.841236  
     594A      0.842511   595A      0.843653   596A      0.843839  
     597A      0.844654   598A      0.846226   599A      0.849805  
     600A      0.852131   601A      0.853966   602A      0.855244  
     603A      0.857775   604A      0.858918   605A      0.862611  
     606A      0.865446   607A      0.866806   608A      0.868775  
     609A      0.870034   610A      0.871706   611A      0.872350  
     612A      0.875259   613A      0.878835   614A      0.880290  
     615A      0.882202   616A      0.886151   617A      0.887732  
     618A      0.893598   619A      0.897414   620A      0.900277  
     621A      0.902412   622A      0.905581   623A      0.906664  
     624A      0.907735   625A      0.908564   626A      0.909093  
     627A      0.913063   628A      0.914208   629A      0.915845  
     630A      0.918019   631A      0.920649   632A      0.921119  
     633A      0.925759   634A      0.928809   635A      0.931267  
     636A      0.936701   637A      0.940580   638A      0.943041  
     639A      0.947710   640A      0.949968   641A      0.950837  
     642A      0.953386   643A      0.954806   644A      0.958441  
     645A      0.961179   646A      0.963957   647A      0.964235  
     648A      0.966743   649A      0.968482   650A      0.969135  
     651A      0.975414   652A      0.976246   653A      0.977324  
     654A      0.978135   655A      0.979288   656A      0.979521  
     657A      0.980163   658A      0.980983   659A      0.983284  
     660A      0.988438   661A      0.990164   662A      0.991194  
     663A      0.992064   664A      0.992842   665A      0.995401  
     666A      1.001722   667A      1.002785   668A      1.005761  
     669A      1.008435   670A      1.008817   671A      1.009131  
     672A      1.012156   673A      1.014548   674A      1.016434  
     675A      1.021509   676A      1.024158   677A      1.024738  
     678A      1.027773   679A      1.032637   680A      1.033175  
     681A      1.035443   682A      1.037047   683A      1.039211  
     684A      1.039440   685A      1.041458   686A      1.044329  
     687A      1.045851   688A      1.049006   689A      1.050362  
     690A      1.050511   691A      1.052374   692A      1.055090  
     693A      1.057394   694A      1.060242   695A      1.062463  
     696A      1.065728   697A      1.066575   698A      1.066962  
     699A      1.070434   700A      1.070961   701A      1.072735  
     702A      1.076191   703A      1.077569   704A      1.085180  
     705A      1.086640   706A      1.090259   707A      1.095189  
     708A      1.100951   709A      1.105159   710A      1.106044  
     711A      1.109120   712A      1.109916   713A      1.110974  
     714A      1.116389   715A      1.117223   716A      1.120775  
     717A      1.128801   718A      1.129892   719A      1.132208  
     720A      1.133655   721A      1.142833   722A      1.144782  
     723A      1.147644   724A      1.151045   725A      1.153272  
     726A      1.155612   727A      1.161106   728A      1.164608  
     729A      1.167895   730A      1.172935   731A      1.175801  
     732A      1.177310   733A      1.179192   734A      1.180750  
     735A      1.192592   736A      1.195321   737A      1.195467  
     738A      1.195845   739A      1.196425   740A      1.197536  
     741A      1.199635   742A      1.200369   743A      1.202573  
     744A      1.203959   745A      1.204287   746A      1.213106  
     747A      1.229084   748A      1.230899   749A      1.231210  
     750A      1.233147   751A      1.234144   752A      1.239520  
     753A      1.242118   754A      1.243871   755A      1.246297  
     756A      1.248569   757A      1.252871   758A      1.254355  
     759A      1.258094   760A      1.261032   761A      1.262318  
     762A      1.262436   763A      1.265478   764A      1.275910  
     765A      1.276255   766A      1.279010   767A      1.280052  
     768A      1.283722   769A      1.284982   770A      1.286299  
     771A      1.292714   772A      1.293264   773A      1.295860  
     774A      1.297545   775A      1.305141   776A      1.312183  
     777A      1.314539   778A      1.321349   779A      1.323362  
     780A      1.335152   781A      1.335767   782A      1.338828  
     783A      1.340567   784A      1.345896   785A      1.347678  
     786A      1.349964   787A      1.356322   788A      1.357630  
     789A      1.359180   790A      1.360736   791A      1.362592  
     792A      1.364424   793A      1.369323   794A      1.369957  
     795A      1.373521   796A      1.373731   797A      1.376662  
     798A      1.380227   799A      1.383398   800A      1.383892  
     801A      1.384739   802A      1.388780   803A      1.390246  
     804A      1.394611   805A      1.398428   806A      1.405248  
     807A      1.407486   808A      1.414426   809A      1.433166  
     810A      1.449774   811A      1.451614   812A      1.451928  
     813A      1.452169   814A      1.467039   815A      1.468615  
     816A      1.482707   817A      1.504484   818A      1.507028  
     819A      1.509796   820A      1.530537   821A      1.531165  
     822A      1.532962   823A      1.537023   824A      1.538816  
     825A      1.540511   826A      1.540714   827A      1.542471  
     828A      1.543509   829A      1.547612   830A      1.549236  
     831A      1.553995   832A      1.554820   833A      1.562198  
     834A      1.567762   835A      1.571918   836A      1.573371  
     837A      1.574283   838A      1.574719   839A      1.574965  
     840A      1.579339   841A      1.587876   842A      1.592803  
     843A      1.593603   844A      1.594593   845A      1.599805  
     846A      1.605260   847A      1.605299   848A      1.607069  
     849A      1.608927   850A      1.609761   851A      1.616222  
     852A      1.617363   853A      1.618726   854A      1.628135  
     855A      1.629584   856A      1.630694   857A      1.631369  
     858A      1.632992   859A      1.633679   860A      1.634068  
     861A      1.636574   862A      1.647226   863A      1.648156  
     864A      1.651568   865A      1.672687   866A      1.681892  
     867A      1.693588   868A      1.693902   869A      1.694695  
     870A      1.695644   871A      1.696721   872A      1.700242  
     873A      1.708737   874A      1.709050   875A      1.717388  
     876A      1.724139   877A      1.725494   878A      1.738433  
     879A      1.748996   880A      1.750388   881A      1.751570  
     882A      1.754373   883A      1.754645   884A      1.762002  
     885A      1.763097   886A      1.764214   887A      1.772548  
     888A      1.772618   889A      1.774943   890A      1.783615  
     891A      1.785925   892A      1.787153   893A      1.794575  
     894A      1.796537   895A      1.797175   896A      1.797542  
     897A      1.799959   898A      1.805014   899A      1.806554  
     900A      1.808214   901A      1.810019   902A      1.810251  
     903A      1.827367   904A      1.828155   905A      1.831422  
     906A      1.834010   907A      1.835606   908A      1.836668  
     909A      1.836907   910A      1.839822   911A      1.841215  
     912A      1.846332   913A      1.848507   914A      1.848947  
     915A      1.849724   916A      1.850206   917A      1.852928  
     918A      1.853399   919A      1.854960   920A      1.860154  
     921A      1.870865   922A      1.875588   923A      1.876882  
     924A      1.878387   925A      1.881850   926A      1.883845  
     927A      1.884671   928A      1.886340   929A      1.886763  
     930A      1.888387   931A      1.889394   932A      1.892385  
     933A      1.898631   934A      1.909682   935A      1.914225  
     936A      1.915420   937A      1.924524   938A      1.926024  
     939A      1.928961   940A      1.932125   941A      1.932646  
     942A      1.935788   943A      1.937483   944A      1.942804  
     945A      1.942954   946A      1.948034   947A      1.950813  
     948A      1.958639   949A      1.961781   950A      1.962927  
     951A      1.964008   952A      1.964529   953A      1.964953  
     954A      1.966008   955A      1.982046   956A      1.983783  
     957A      1.985186   958A      1.987628   959A      1.992751  
     960A      1.993090   961A      1.993783   962A      1.995653  
     963A      2.002210   964A      2.003847   965A      2.006221  
     966A      2.008103   967A      2.008631   968A      2.011299  
     969A      2.011971   970A      2.018810   971A      2.020474  
     972A      2.023082   973A      2.026216   974A      2.028692  
     975A      2.029907   976A      2.032868   977A      2.033278  
     978A      2.033747   979A      2.039919   980A      2.040870  
     981A      2.042817   982A      2.043727   983A      2.045381  
     984A      2.049400   985A      2.051804   986A      2.052126  
     987A      2.052295   988A      2.052432   989A      2.053997  
     990A      2.060118   991A      2.060902   992A      2.061214  
     993A      2.066215   994A      2.066549   995A      2.069179  
     996A      2.070056   997A      2.075428   998A      2.076444  
     999A      2.083785  1000A      2.089254  1001A      2.090445  
    1002A      2.091038  1003A      2.094201  1004A      2.094867  
    1005A      2.101168  1006A      2.101858  1007A      2.110846  
    1008A      2.114324  1009A      2.122801  1010A      2.124159  
    1011A      2.124285  1012A      2.124734  1013A      2.125378  
    1014A      2.129230  1015A      2.131899  1016A      2.149975  
    1017A      2.150165  1018A      2.151094  1019A      2.154344  
    1020A      2.157832  1021A      2.159953  1022A      2.162179  
    1023A      2.163018  1024A      2.170623  1025A      2.177777  
    1026A      2.178415  1027A      2.178539  1028A      2.178943  
    1029A      2.181949  1030A      2.191918  1031A      2.192863  
    1032A      2.194430  1033A      2.195205  1034A      2.202479  
    1035A      2.203355  1036A      2.205560  1037A      2.207148  
    1038A      2.215703  1039A      2.222704  1040A      2.234061  
    1041A      2.239194  1042A      2.240905  1043A      2.244984  
    1044A      2.252483  1045A      2.254336  1046A      2.259679  
    1047A      2.259790  1048A      2.261843  1049A      2.263457  
    1050A      2.268135  1051A      2.281157  1052A      2.282372  
    1053A      2.283888  1054A      2.284949  1055A      2.288725  
    1056A      2.297051  1057A      2.297394  1058A      2.304057  
    1059A      2.317871  1060A      2.326703  1061A      2.349123  
    1062A      2.355310  1063A      2.355643  1064A      2.356149  
    1065A      2.362442  1066A      2.369109  1067A      2.371158  
    1068A      2.372545  1069A      2.373660  1070A      2.401771  
    1071A      2.405846  1072A      2.406208  1073A      2.418070  
    1074A      2.418524  1075A      2.434172  1076A      2.453187  
    1077A      2.461064  1078A      2.462514  1079A      2.477949  
    1080A      2.478527  1081A      2.478756  1082A      2.480647  
    1083A      2.483997  1084A      2.488694  1085A      2.489588  
    1086A      2.491605  1087A      2.492024  1088A      2.498090  
    1089A      2.504292  1090A      2.504411  1091A      2.509155  
    1092A      2.509604  1093A      2.518251  1094A      2.518464  
    1095A      2.518602  1096A      2.522197  1097A      2.524996  
    1098A      2.525899  1099A      2.541213  1100A      2.556873  
    1101A      2.557697  1102A      2.561112  1103A      2.562678  
    1104A      2.563111  1105A      2.575010  1106A      2.575061  
    1107A      2.584740  1108A      2.585435  1109A      2.589192  
    1110A      2.607575  1111A      2.613695  1112A      2.615322  
    1113A      2.616573  1114A      2.622811  1115A      2.631090  
    1116A      2.631425  1117A      2.641158  1118A      2.643169  
    1119A      2.643742  1120A      2.649254  1121A      2.649939  
    1122A      2.654786  1123A      2.655308  1124A      2.670690  
    1125A      2.680179  1126A      2.684429  1127A      2.686812  
    1128A      2.694015  1129A      2.706874  1130A      2.719115  
    1131A      2.725512  1132A      2.725931  1133A      2.741794  
    1134A      2.745883  1135A      2.746631  1136A      2.753201  
    1137A      2.758051  1138A      2.761756  1139A      2.764967  
    1140A      2.782874  1141A      2.784489  1142A      2.784944  
    1143A      2.786948  1144A      2.787238  1145A      2.791672  
    1146A      2.792240  1147A      2.804523  1148A      2.842473  
    1149A      2.851606  1150A      2.852758  1151A      2.862232  
    1152A      2.866903  1153A      2.867865  1154A      2.883160  
    1155A      2.884015  1156A      2.897012  1157A      2.937373  
    1158A      2.940489  1159A      2.944935  1160A      2.946300  
    1161A      2.965883  1162A      2.994121  1163A      2.994223  
    1164A      3.001281  1165A      3.001865  1166A      3.004981  
    1167A      3.042942  1168A      3.043778  1169A      3.062033  
    1170A      3.062610  1171A      3.063810  1172A      3.070201  
    1173A      3.073598  1174A      3.079520  1175A      3.079916  
    1176A      3.079958  1177A      3.082726  1178A      3.083110  
    1179A      3.089978  1180A      3.092566  1181A      3.093247  
    1182A      3.099176  1183A      3.100736  1184A      3.125654  
    1185A      3.144816  1186A      3.150978  1187A      3.171905  
    1188A      3.205511  1189A      3.208591  1190A      3.208979  
    1191A      3.213915  1192A      3.214453  1193A      3.346873  
    1194A      3.347303  1195A      3.367582  1196A      3.411522  
    1197A      3.413937  1198A      3.468058  1199A      3.480151  
    1200A      3.506525  1201A      3.508355  1202A      3.525819  
    1203A      3.552626  1204A      3.557906  1205A      3.560278  
    1206A      3.595428  1207A      3.601993  1208A      3.700517  
    1209A      3.712947  1210A      3.713769  1211A      3.803306  
    1212A      3.803697  1213A      3.844910  1214A      3.845491  
    1215A      3.906689  1216A      3.940407  1217A      3.963685  
    1218A      3.976759  1219A      4.011930  

    Final Occupation by Irrep:
              A 
    DOCC [   197 ]
    NA   [   197 ]
    NB   [   197 ]

  @DF-RHF Final Energy: -2359.20716141218054

   => Energetics <=

    Nuclear Repulsion Energy =           8079.1771385962738350
    One-Electron Energy =              -19260.4409834405996662
    Two-Electron Energy =                8822.0566834321434726
    Total Energy =                      -2359.2071614121814491

Computation Completed


Properties will be evaluated at   0.000000,   0.000000,   0.000000 [a0]

Properties computed using the SCF density matrix


 Multipole Moments:

 ------------------------------------------------------------------------------------
     Multipole            Electronic (a.u.)      Nuclear  (a.u.)        Total (a.u.)
 ------------------------------------------------------------------------------------

 L = 1.  Multiply by 2.5417464519 to convert [e a0] to [Debye]
 Dipole X            :         -0.0015250            0.0006313           -0.0008937
 Dipole Y            :         -0.0492125            0.0560211            0.0068086
 Dipole Z            :         19.7343651          -27.3041965           -7.5698314
 Magnitude           :                                                    7.5698345

 ------------------------------------------------------------------------------------

*** tstop() called on d-16-12-3 at Mon Jan 22 19:44:56 2024
Module time:
	user time   =    4654.46 seconds =      77.57 minutes
	system time =     389.37 seconds =       6.49 minutes
	total time  =       1052 seconds =      17.53 minutes
Total time:
	user time   =    4654.46 seconds =      77.57 minutes
	system time =     389.37 seconds =       6.49 minutes
	total time  =       1052 seconds =      17.53 minutes

  //>>>>>>>>>>>>>>>>>>>>>>>>>>>>>>>>>>>//
  //            Monomer A HF           //
  //<<<<<<<<<<<<<<<<<<<<<<<<<<<<<<<<<<<//

   => Libint2 <=

    Primary   basis highest AM E, G, H:  7, 7, 4
    Auxiliary basis highest AM E, G, H:  7, 7, 5
    Onebody   basis highest AM E, G, H:  7, 7, 5
    Solid Harmonics ordering:            gaussian

*** tstart() called on d-16-12-3
*** at Mon Jan 22 19:44:56 2024

   => Loading Basis Set <=

    Name: JUN-CC-PVDZ
    Role: ORBITAL
    Keyword: BASIS
    atoms 1-2, 4-5, 10, 17-70 entry C          line   164 file /home/gridsan/tfroembgen/.conda/envs/psi4test/share/psi4/basis/jun-cc-pvdz.gbs 
    atoms 3, 6                entry N          line   198 file /home/gridsan/tfroembgen/.conda/envs/psi4test/share/psi4/basis/jun-cc-pvdz.gbs 
    atoms 7-9, 11-16, 71-88   entry H          line    36 file /home/gridsan/tfroembgen/.conda/envs/psi4test/share/psi4/basis/jun-cc-pvdz.gbs 


         ---------------------------------------------------------
                                   SCF
               by Justin Turney, Rob Parrish, Andy Simmonett
                          and Daniel G. A. Smith
                              RHF Reference
                       12 Threads,  30517 MiB Core
         ---------------------------------------------------------

  ==> Geometry <==

    Molecular point group: c1
    Full point group: C1

    Geometry (in Angstrom), charge = 1, multiplicity = 1:

       Center              X                  Y                   Z               Mass       
    ------------   -----------------  -----------------  -----------------  -----------------
         C            0.680066520158    -0.008042372515    -6.103645630242    12.000000000000
         C           -0.680504479842    -0.006014372515    -6.103261630242    12.000000000000
         N           -1.085635479842    -0.005016372515    -4.784937630242    14.003074004430
         C            0.000107520158    -0.001740372515    -4.003536630242    12.000000000000
         C           -2.477365479842     0.044389627485    -4.316958630242    12.000000000000
         N            1.085221520158    -0.005016372515    -4.784937630242    14.003074004430
         H            1.385145520158    -0.015870372515    -6.921084630242     1.007825032230
         H           -1.385302479842    -0.006204372515    -6.920930630242     1.007825032230
         H           -0.000009479842     0.000006627485    -2.922447630242     1.007825032230
         C            2.478116520158    -0.021908372515    -4.319839630242    12.000000000000
         H            2.490591520158     0.005436627485    -3.229586630242     1.007825032230
         H            2.967027520158    -0.935354372515    -4.667015630242     1.007825032230
         H            3.001427520158     0.853574627485    -4.711311630242     1.007825032230
         H           -2.857359479842     1.066460627485    -4.396917630242     1.007825032230
         H           -3.082679479842    -0.625694372515    -4.930022630242     1.007825032230
         H           -2.518128479842    -0.282594372515    -3.277010630242     1.007825032230
      Gh(C)           1.225311895423     0.707538288405     0.718420997042    12.000000000000
      Gh(C)           1.225323856051    -0.707538895085     0.706090187471    12.000000000000
      Gh(C)          -0.000006153932     1.414965913575     0.705556563951    12.000000000000
      Gh(C)           2.456448753949     1.418327886663     0.721307854442    12.000000000000
      Gh(C)           0.000010827279    -1.414976499150     0.715756121275    12.000000000000
      Gh(C)          -1.225300948908     0.707545373469     0.720672517364    12.000000000000
      Gh(C)           2.456437755320    -1.418323304396     0.703845030614    12.000000000000
      Gh(C)          -0.000001332978     2.836801030766     0.703153013817    12.000000000000
      Gh(C)           3.681826697470     0.709317955486     0.704193820412    12.000000000000
      Gh(C)           2.455120048865     2.834223660974     0.704091263452    12.000000000000
      Gh(C)           3.681821105219    -0.709333839944     0.720266304431    12.000000000000
      Gh(C)          -1.225313598688    -0.707527516059     0.707162948898    12.000000000000
      Gh(C)           1.226699581202     3.543469483479     0.720450336361    12.000000000000
      Gh(C)           0.000004784858    -2.836782139751     0.720604288897    12.000000000000
      Gh(C)          -2.456436032848     1.418316917770     0.720707913210    12.000000000000
      Gh(C)           2.455123417779    -2.834230029103     0.720114396063    12.000000000000
      Gh(C)          -1.226714364589     3.543469063235     0.720553669581    12.000000000000
      Gh(C)           4.914517295202     1.427172871975     0.710674503442    12.000000000000
      Gh(C)           3.693150191476     3.542795292030     0.710724303078    12.000000000000
      Gh(C)          -2.456437600068    -1.418313281354     0.703819992490    12.000000000000
      Gh(C)           1.226704841943    -3.543474242421     0.704480205612    12.000000000000
      Gh(C)          -2.455125398508     2.834216662119     0.704097639798    12.000000000000
      Gh(C)           4.914524380782    -1.427186910459     0.713647246176    12.000000000000
      Gh(C)           1.221424613699     4.970134064745     0.713785680436    12.000000000000
      Gh(C)           4.893008229321     2.825187999512     0.711891171800    12.000000000000
      Gh(C)          -1.226697008489    -3.543470997592     0.704747410021    12.000000000000
      Gh(C)          -3.681818976526     0.709324966217     0.704206500892    12.000000000000
      Gh(C)           3.693147101150    -3.542801341905     0.713765136737    12.000000000000
      Gh(C)          -1.221432251994     4.970128297348     0.713969175809    12.000000000000
      Gh(C)           6.134770972926     0.680547946591     0.711444277992    12.000000000000
      Gh(C)           3.656788880610     4.972953243053     0.711632940861    12.000000000000
      Gh(C)          -2.455126907733    -2.834215093576     0.719870038265    12.000000000000
      Gh(C)          -3.681819179061    -0.709325703983     0.720383926009    12.000000000000
      Gh(C)           4.893012617914    -2.825200106147     0.712502323696    12.000000000000
      Gh(C)          -0.000001073113     5.650447365518     0.712737867102    12.000000000000
      Gh(C)           6.134775112332    -0.680554854590     0.712709598507    12.000000000000
      Gh(C)           2.478131482856     5.653576750817     0.712921720510    12.000000000000
      Gh(C)           1.221422404738    -4.970127055448     0.710986183413    12.000000000000
      Gh(C)          -3.693162383965     3.542796953677     0.710889810537    12.000000000000
      Gh(C)          -1.221428520945    -4.970118304111     0.710873421581    12.000000000000
      Gh(C)          -4.914521807942     1.427175446480     0.710751448449    12.000000000000
      Gh(C)           3.656787019679    -4.972955226754     0.713083441395    12.000000000000
      Gh(C)          -2.478138530106     5.653574422014     0.713206245519    12.000000000000
      Gh(C)          -3.693141738564    -3.542790219494     0.713649010581    12.000000000000
      Gh(C)          -4.914512483053    -1.427181000542     0.713681943350    12.000000000000
      Gh(C)          -0.000006008926    -5.650438287528     0.712342362981    12.000000000000
      Gh(C)          -4.893020484101     2.825188598404     0.711881089940    12.000000000000
      Gh(C)           2.478125993298    -5.653573544403     0.711992840602    12.000000000000
      Gh(C)          -3.656798710258     4.972956181527     0.711809621235    12.000000000000
      Gh(C)          -4.892999478856    -2.825191767575     0.712348287998    12.000000000000
      Gh(C)          -2.478128498083    -5.653566170521     0.711717652955    12.000000000000
      Gh(C)          -6.134770503331     0.680548765741     0.711418726289    12.000000000000
      Gh(C)          -3.656788833189    -4.972944023485     0.712869153578    12.000000000000
      Gh(C)          -6.134765042913    -0.680553915997     0.712689122712    12.000000000000
      Gh(H)           5.835288495816     3.369275894439     0.716250497463     1.007825032230
      Gh(H)           7.073859172747     1.228217248385     0.711905921385     1.007825032230
      Gh(H)           4.600663264174     5.512380801938     0.712138141613     1.007825032230
      Gh(H)           5.835283387305    -3.369306057244     0.708047856381     1.007825032230
      Gh(H)          -0.000012151306     6.738530673622     0.708388622094     1.007825032230
      Gh(H)           7.073861171831    -1.228226943259     0.712200860413     1.007825032230
      Gh(H)           2.473313731799     6.740684290880     0.712454999580     1.007825032230
      Gh(H)           4.600668491381    -5.512376129691     0.712673444226     1.007825032230
      Gh(H)          -2.473318680537     6.740681719092     0.712756346205     1.007825032230
      Gh(H)          -0.000010268228    -6.738528176967     0.716872047965     1.007825032230
      Gh(H)          -5.835301914343     3.369270949781     0.716386519611     1.007825032230
      Gh(H)           2.473307923831    -6.740685374944     0.712563171027     1.007825032230
      Gh(H)          -4.600674841208     5.512378026089     0.712303469936     1.007825032230
      Gh(H)          -5.835279506835    -3.369288964294     0.707768550501     1.007825032230
      Gh(H)          -2.473300347440    -6.740679078655     0.712113854483     1.007825032230
      Gh(H)          -7.073857766768     1.228220472326     0.711821929904     1.007825032230
      Gh(H)          -4.600673786085    -5.512362670301     0.712501136204     1.007825032230
      Gh(H)          -7.073856934409    -1.228220632492     0.712106003947     1.007825032230

  Running in c1 symmetry.

  Rotational constants: A =      0.00163  B =      0.00159  C =      0.00109 [cm^-1]
  Rotational constants: A =     48.90805  B =     47.80102  C =     32.71081 [MHz]
  Nuclear repulsion =  306.774908447733083

  Charge       = 1
  Multiplicity = 1
  Electrons    = 52
  Nalpha       = 26
  Nbeta        = 26

  ==> Algorithm <==

  SCF Algorithm Type is DF.
  DIIS enabled.
  MOM disabled.
  Fractional occupation disabled.
  Guess Type is SAD.
  Energy threshold   = 1.00e-08
  Density threshold  = 1.00e-08
  Integral threshold = 1.00e-12

  ==> Primary Basis <==

  Basis Set: JUN-CC-PVDZ
    Blend: JUN-CC-PVDZ
    Number of shells: 569
    Number of basis functions: 1233
    Number of Cartesian functions: 1294
    Spherical Harmonics?: true
    Max angular momentum: 2

   => Loading Basis Set <=

    Name: (JUN-CC-PVDZ AUX)
    Role: JKFIT
    Keyword: DF_BASIS_SCF
    atoms 1-2, 4-5, 10, 17-70 entry C          line   146 file /home/gridsan/tfroembgen/.conda/envs/psi4test/share/psi4/basis/jun-cc-pvdz-jkfit.gbs 
    atoms 3, 6                entry N          line   202 file /home/gridsan/tfroembgen/.conda/envs/psi4test/share/psi4/basis/jun-cc-pvdz-jkfit.gbs 
    atoms 7-9, 11-16, 71-88   entry H          line    70 file /home/gridsan/tfroembgen/.conda/envs/psi4test/share/psi4/basis/jun-cc-pvdz-jkfit.gbs 

  ==> Integral Setup <==

  ==> DiskDFJK: Density-Fitted J/K Matrices <==

    J tasked:                  Yes
    K tasked:                  Yes
    wK tasked:                  No
    OpenMP threads:             12
    Integrals threads:          12
    Memory [MiB]:            22888
    Algorithm:                Disk
    Integral Cache:           LOAD
    Schwarz Cutoff:          1E-12
    Fitting Condition:       1E-10

   => Auxiliary Basis Set <=

  Basis Set: (JUN-CC-PVDZ AUX)
    Blend: JUN-CC-PVDZ-JKFIT
    Number of shells: 1890
    Number of basis functions: 5440
    Number of Cartesian functions: 6226
    Spherical Harmonics?: true
    Max angular momentum: 3

  Minimum eigenvalue in the overlap matrix is 8.0780020143E-10.
  Reciprocal condition number of the overlap matrix is 3.5561303952E-11.
    Using canonical orthogonalization.
  Overall, 14 of 1233 possible MOs eliminated.


  ==> Pre-Iterations <==

  SCF Guess: Superposition of Atomic Densities via on-the-fly atomic UHF (no occupation information).

   -------------------------
    Irrep   Nso     Nmo    
   -------------------------
     A       1233    1219 
   -------------------------
    Total    1233    1219
   -------------------------

  ==> Iterations <==

                           Total Energy        Delta E     RMS |[F,P]|

   @DF-RHF iter SAD:  -303.36535013871980   -3.03365e+02   0.00000e+00 
   @DF-RHF iter   1:  -303.16967740463321    1.95673e-01   3.44336e-04 ADIIS/DIIS
   @DF-RHF iter   2:  -303.28405209458998   -1.14375e-01   1.15941e-04 ADIIS/DIIS
   @DF-RHF iter   3:  -303.29552235780301   -1.14703e-02   4.53941e-05 DIIS
   @DF-RHF iter   4:  -303.29743214282655   -1.90979e-03   9.91691e-06 DIIS
   @DF-RHF iter   5:  -303.29753845399597   -1.06311e-04   2.42073e-06 DIIS
   @DF-RHF iter   6:  -303.29754778817005   -9.33417e-06   6.55271e-07 DIIS
   @DF-RHF iter   7:  -303.29754886690341   -1.07873e-06   3.33352e-07 DIIS
   @DF-RHF iter   8:  -303.29754912188065   -2.54977e-07   1.34128e-07 DIIS
   @DF-RHF iter   9:  -303.29754917079737   -4.89167e-08   3.37327e-08 DIIS
   @DF-RHF iter  10:  -303.29754917362555   -2.82819e-09   1.26456e-08 DIIS
   @DF-RHF iter  11:  -303.29754917386992   -2.44370e-10   2.98068e-09 DIIS
  Energy and wave function converged.


  ==> Post-Iterations <==

    Orbital Energies [Eh]
    ---------------------

    Doubly Occupied:                                                      

       1A    -15.834613     2A    -15.834079     3A    -11.529454  
       4A    -11.459797     5A    -11.458241     6A    -11.449638  
       7A    -11.449527     8A     -1.578072     9A     -1.433676  
      10A     -1.238522    11A     -1.189201    12A     -1.118779  
      13A     -1.022395    14A     -0.996822    15A     -0.916931  
      16A     -0.850422    17A     -0.816140    18A     -0.813057  
      19A     -0.790003    20A     -0.786150    21A     -0.781640  
      22A     -0.729628    23A     -0.725712    24A     -0.717059  
      25A     -0.596183    26A     -0.523749  

    Virtual:                                                              

      27A     -0.077825    28A     -0.072474    29A     -0.060804  
      30A     -0.052392    31A     -0.039601    32A     -0.039226  
      33A     -0.038566    34A     -0.035585    35A     -0.034169  
      36A     -0.027779    37A     -0.026334    38A     -0.016902  
      39A     -0.014688    40A     -0.014407    41A     -0.012421  
      42A     -0.011860    43A     -0.008386    44A     -0.007839  
      45A     -0.006462    46A     -0.000408    47A      0.004099  
      48A      0.004920    49A      0.010481    50A      0.011976  
      51A      0.012470    52A      0.015108    53A      0.017744  
      54A      0.020019    55A      0.020766    56A      0.024479  
      57A      0.027221    58A      0.032536    59A      0.033601  
      60A      0.034614    61A      0.035181    62A      0.035872  
      63A      0.040771    64A      0.043595    65A      0.044719  
      66A      0.046923    67A      0.049299    68A      0.049702  
      69A      0.052712    70A      0.056400    71A      0.057255  
      72A      0.057319    73A      0.060036    74A      0.061400  
      75A      0.062803    76A      0.064124    77A      0.065014  
      78A      0.066154    79A      0.067719    80A      0.073981  
      81A      0.075005    82A      0.075197    83A      0.075718  
      84A      0.076009    85A      0.081559    86A      0.082313  
      87A      0.083454    88A      0.084529    89A      0.084809  
      90A      0.085948    91A      0.088519    92A      0.089897  
      93A      0.093823    94A      0.094172    95A      0.096165  
      96A      0.096570    97A      0.098556    98A      0.100596  
      99A      0.105087   100A      0.106010   101A      0.107809  
     102A      0.108346   103A      0.109103   104A      0.110446  
     105A      0.112521   106A      0.115518   107A      0.116750  
     108A      0.117258   109A      0.117712   110A      0.119496  
     111A      0.121244   112A      0.121758   113A      0.122487  
     114A      0.124417   115A      0.126604   116A      0.128167  
     117A      0.131458   118A      0.131700   119A      0.134184  
     120A      0.135330   121A      0.136255   122A      0.140540  
     123A      0.141260   124A      0.141432   125A      0.142169  
     126A      0.143370   127A      0.146586   128A      0.147186  
     129A      0.149367   130A      0.151142   131A      0.151361  
     132A      0.155539   133A      0.157486   134A      0.158251  
     135A      0.159446   136A      0.159691   137A      0.162509  
     138A      0.162918   139A      0.164198   140A      0.164841  
     141A      0.166671   142A      0.167594   143A      0.172133  
     144A      0.173105   145A      0.173525   146A      0.174862  
     147A      0.176650   148A      0.177620   149A      0.178333  
     150A      0.179519   151A      0.181566   152A      0.183066  
     153A      0.183973   154A      0.184610   155A      0.186316  
     156A      0.186594   157A      0.186807   158A      0.188219  
     159A      0.189896   160A      0.193839   161A      0.196906  
     162A      0.203974   163A      0.205130   164A      0.206223  
     165A      0.207853   166A      0.209145   167A      0.210366  
     168A      0.211851   169A      0.215016   170A      0.215580  
     171A      0.216144   172A      0.216715   173A      0.217377  
     174A      0.218100   175A      0.222175   176A      0.224602  
     177A      0.225581   178A      0.226216   179A      0.226776  
     180A      0.228550   181A      0.229898   182A      0.230744  
     183A      0.232338   184A      0.234110   185A      0.235648  
     186A      0.237638   187A      0.241362   188A      0.241691  
     189A      0.241739   190A      0.242553   191A      0.243344  
     192A      0.248305   193A      0.249067   194A      0.254576  
     195A      0.256703   196A      0.261246   197A      0.263672  
     198A      0.265031   199A      0.267053   200A      0.267855  
     201A      0.268566   202A      0.268999   203A      0.270955  
     204A      0.272860   205A      0.276086   206A      0.278224  
     207A      0.282044   208A      0.284483   209A      0.285213  
     210A      0.286844   211A      0.287368   212A      0.289210  
     213A      0.291074   214A      0.291253   215A      0.292389  
     216A      0.293099   217A      0.296010   218A      0.296803  
     219A      0.296838   220A      0.300597   221A      0.301682  
     222A      0.305060   223A      0.306199   224A      0.307909  
     225A      0.308916   226A      0.314452   227A      0.315069  
     228A      0.316407   229A      0.317832   230A      0.318712  
     231A      0.326585   232A      0.328253   233A      0.328847  
     234A      0.330582   235A      0.334791   236A      0.339097  
     237A      0.342021   238A      0.344562   239A      0.345951  
     240A      0.346459   241A      0.352203   242A      0.353095  
     243A      0.357545   244A      0.358850   245A      0.360151  
     246A      0.361207   247A      0.362413   248A      0.362604  
     249A      0.363919   250A      0.368132   251A      0.369689  
     252A      0.373439   253A      0.375362   254A      0.376049  
     255A      0.378319   256A      0.378542   257A      0.379878  
     258A      0.382617   259A      0.386088   260A      0.389597  
     261A      0.390054   262A      0.390269   263A      0.390859  
     264A      0.391238   265A      0.394362   266A      0.396620  
     267A      0.399562   268A      0.400393   269A      0.401889  
     270A      0.402291   271A      0.402898   272A      0.404321  
     273A      0.407500   274A      0.408730   275A      0.409326  
     276A      0.411258   277A      0.412112   278A      0.414159  
     279A      0.414577   280A      0.416730   281A      0.418983  
     282A      0.423455   283A      0.427814   284A      0.428040  
     285A      0.429650   286A      0.430479   287A      0.432705  
     288A      0.434459   289A      0.440722   290A      0.444215  
     291A      0.447091   292A      0.450327   293A      0.450586  
     294A      0.452742   295A      0.456855   296A      0.458017  
     297A      0.459121   298A      0.461323   299A      0.462399  
     300A      0.464421   301A      0.465058   302A      0.466146  
     303A      0.466679   304A      0.471352   305A      0.475697  
     306A      0.477047   307A      0.477925   308A      0.478792  
     309A      0.481092   310A      0.484717   311A      0.487035  
     312A      0.490733   313A      0.494318   314A      0.495826  
     315A      0.498356   316A      0.500763   317A      0.502590  
     318A      0.505248   319A      0.508350   320A      0.509142  
     321A      0.510017   322A      0.512392   323A      0.517632  
     324A      0.519208   325A      0.520565   326A      0.522087  
     327A      0.523776   328A      0.524501   329A      0.526975  
     330A      0.531854   331A      0.532474   332A      0.538921  
     333A      0.540939   334A      0.543092   335A      0.546962  
     336A      0.548003   337A      0.550162   338A      0.550847  
     339A      0.553425   340A      0.555748   341A      0.557539  
     342A      0.558095   343A      0.561167   344A      0.566035  
     345A      0.566598   346A      0.573500   347A      0.576226  
     348A      0.577061   349A      0.578615   350A      0.579522  
     351A      0.581290   352A      0.584046   353A      0.585782  
     354A      0.591221   355A      0.599889   356A      0.604365  
     357A      0.605120   358A      0.608448   359A      0.609598  
     360A      0.611158   361A      0.611331   362A      0.616301  
     363A      0.616333   364A      0.619815   365A      0.620550  
     366A      0.622555   367A      0.625836   368A      0.628640  
     369A      0.630917   370A      0.631629   371A      0.632613  
     372A      0.635480   373A      0.635687   374A      0.639975  
     375A      0.644934   376A      0.647191   377A      0.652872  
     378A      0.653494   379A      0.665757   380A      0.666436  
     381A      0.670244   382A      0.680509   383A      0.681927  
     384A      0.682667   385A      0.685204   386A      0.686635  
     387A      0.690686   388A      0.690929   389A      0.691569  
     390A      0.693296   391A      0.693912   392A      0.697234  
     393A      0.698584   394A      0.699222   395A      0.699735  
     396A      0.701163   397A      0.702558   398A      0.704380  
     399A      0.705819   400A      0.709765   401A      0.712869  
     402A      0.714124   403A      0.717580   404A      0.721365  
     405A      0.723884   406A      0.724158   407A      0.724289  
     408A      0.726892   409A      0.728873   410A      0.731839  
     411A      0.735561   412A      0.736353   413A      0.737677  
     414A      0.747614   415A      0.749213   416A      0.753590  
     417A      0.756030   418A      0.758080   419A      0.771880  
     420A      0.777689   421A      0.778488   422A      0.779212  
     423A      0.779897   424A      0.780356   425A      0.784113  
     426A      0.785726   427A      0.792350   428A      0.796781  
     429A      0.804003   430A      0.809946   431A      0.810316  
     432A      0.811714   433A      0.814314   434A      0.815017  
     435A      0.820457   436A      0.824359   437A      0.827942  
     438A      0.828369   439A      0.835690   440A      0.842942  
     441A      0.849115   442A      0.850015   443A      0.857039  
     444A      0.859516   445A      0.868047   446A      0.877142  
     447A      0.882748   448A      0.890063   449A      0.890800  
     450A      0.894779   451A      0.897787   452A      0.898109  
     453A      0.908270   454A      0.922845   455A      0.932180  
     456A      0.932628   457A      0.932956   458A      0.935636  
     459A      0.937554   460A      0.940037   461A      0.952748  
     462A      0.953477   463A      0.965691   464A      0.967088  
     465A      0.984715   466A      0.989007   467A      0.995166  
     468A      0.995638   469A      0.996073   470A      0.996117  
     471A      1.010656   472A      1.020236   473A      1.026589  
     474A      1.030225   475A      1.033713   476A      1.034379  
     477A      1.034397   478A      1.062187   479A      1.070031  
     480A      1.079919   481A      1.081335   482A      1.089344  
     483A      1.089518   484A      1.098900   485A      1.105929  
     486A      1.109712   487A      1.112254   488A      1.113527  
     489A      1.115037   490A      1.123153   491A      1.125206  
     492A      1.125336   493A      1.137791   494A      1.148218  
     495A      1.148390   496A      1.152880   497A      1.154604  
     498A      1.155266   499A      1.157784   500A      1.161462  
     501A      1.203854   502A      1.214722   503A      1.222387  
     504A      1.222538   505A      1.232656   506A      1.233725  
     507A      1.234527   508A      1.250841   509A      1.251779  
     510A      1.254781   511A      1.255889   512A      1.293802  
     513A      1.297018   514A      1.297657   515A      1.324122  
     516A      1.350740   517A      1.351525   518A      1.364333  
     519A      1.368325   520A      1.370521   521A      1.373488  
     522A      1.387876   523A      1.388261   524A      1.391948  
     525A      1.393059   526A      1.394176   527A      1.395780  
     528A      1.409765   529A      1.413453   530A      1.441021  
     531A      1.468770   532A      1.478119   533A      1.481670  
     534A      1.482427   535A      1.484052   536A      1.486421  
     537A      1.489342   538A      1.498614   539A      1.514478  
     540A      1.527277   541A      1.552952   542A      1.560983  
     543A      1.564041   544A      1.571627   545A      1.572716  
     546A      1.576192   547A      1.584954   548A      1.587120  
     549A      1.590265   550A      1.608689   551A      1.610883  
     552A      1.612584   553A      1.619391   554A      1.627641  
     555A      1.631278   556A      1.645137   557A      1.670463  
     558A      1.674179   559A      1.674506   560A      1.675459  
     561A      1.676310   562A      1.678399   563A      1.679031  
     564A      1.681876   565A      1.689799   566A      1.691725  
     567A      1.693976   568A      1.695737   569A      1.707584  
     570A      1.710601   571A      1.715229   572A      1.716823  
     573A      1.720624   574A      1.721824   575A      1.730401  
     576A      1.735290   577A      1.736018   578A      1.738387  
     579A      1.741420   580A      1.751790   581A      1.752848  
     582A      1.754479   583A      1.757335   584A      1.758671  
     585A      1.760375   586A      1.760885   587A      1.762599  
     588A      1.765727   589A      1.766615   590A      1.772859  
     591A      1.777708   592A      1.781080   593A      1.782207  
     594A      1.785495   595A      1.787014   596A      1.788948  
     597A      1.789295   598A      1.791739   599A      1.804341  
     600A      1.808668   601A      1.812763   602A      1.813952  
     603A      1.814508   604A      1.815273   605A      1.818104  
     606A      1.819820   607A      1.820561   608A      1.823671  
     609A      1.825686   610A      1.829149   611A      1.833756  
     612A      1.834080   613A      1.834974   614A      1.836930  
[...]
     802A      1.682378   803A      1.684827   804A      1.686324  
     805A      1.690083   806A      1.695244   807A      1.698028  
     808A      1.699547   809A      1.699665   810A      1.700953  
     811A      1.703498   812A      1.705046   813A      1.705293  
     814A      1.716579   815A      1.716857   816A      1.742039  
     817A      1.746743   818A      1.752055   819A      1.760779  
     820A      1.761006   821A      1.761192   822A      1.762158  
     823A      1.770401   824A      1.777472   825A      1.777790  
     826A      1.791925   827A      1.792314   828A      1.805125  
     829A      1.817106   830A      1.817278   831A      1.817940  
     832A      1.824920   833A      1.825195   834A      1.829978  
     835A      1.831884   836A      1.836333   837A      1.840026  
     838A      1.842528   839A      1.845475   840A      1.854103  
     841A      1.855858   842A      1.862406   843A      1.863472  
     844A      1.863592   845A      1.864116   846A      1.870712  
     847A      1.873083   848A      1.878993   849A      1.880239  
     850A      1.881786   851A      1.893789   852A      1.896054  
     853A      1.897333   854A      1.897780   855A      1.900418  
     856A      1.903179   857A      1.903504   858A      1.908884  
     859A      1.909664   860A      1.914973   861A      1.917611  
     862A      1.918066   863A      1.919423   864A      1.919678  
     865A      1.921688   866A      1.922513   867A      1.923487  
     868A      1.925903   869A      1.936202   870A      1.939540  
     871A      1.943127   872A      1.944786   873A      1.945307  
     874A      1.947892   875A      1.949998   876A      1.953299  
     877A      1.956805   878A      1.957073   879A      1.957936  
     880A      1.958348   881A      1.961057   882A      1.962446  
     883A      1.978374   884A      1.983760   885A      1.985437  
     886A      1.995000   887A      1.997541   888A      2.000121  
     889A      2.000603   890A      2.008865   891A      2.009185  
     892A      2.012509   893A      2.014110   894A      2.028265  
     895A      2.029872   896A      2.030984   897A      2.032220  
     898A      2.032250   899A      2.032868   900A      2.034094  
     901A      2.041998   902A      2.048843   903A      2.050008  
     904A      2.052758   905A      2.053014   906A      2.054238  
     907A      2.059124   908A      2.060843   909A      2.061542  
     910A      2.063820   911A      2.064317   912A      2.071851  
     913A      2.073405   914A      2.076602   915A      2.078121  
     916A      2.079259   917A      2.080013   918A      2.085502  
     919A      2.087559   920A      2.091194   921A      2.092622  
     922A      2.095111   923A      2.095600   924A      2.096919  
     925A      2.098464   926A      2.099684   927A      2.101410  
     928A      2.103997   929A      2.108997   930A      2.110668  
     931A      2.111721   932A      2.112642   933A      2.115119  
     934A      2.117085   935A      2.118809   936A      2.120034  
     937A      2.120742   938A      2.120998   939A      2.122157  
     940A      2.126089   941A      2.127944   942A      2.130797  
     943A      2.134267   944A      2.135136   945A      2.135625  
     946A      2.137270   947A      2.140610   948A      2.143254  
     949A      2.143825   950A      2.145199   951A      2.151504  
     952A      2.157281   953A      2.160987   954A      2.163057  
     955A      2.163628   956A      2.163942   957A      2.170694  
     958A      2.174194   959A      2.178392   960A      2.185525  
     961A      2.189451   962A      2.191180   963A      2.191687  
     964A      2.193017   965A      2.195866   966A      2.196105  
     967A      2.196644   968A      2.203233   969A      2.206043  
     970A      2.219884   971A      2.220308   972A      2.220723  
     973A      2.222335   974A      2.228123   975A      2.229691  
     976A      2.230787   977A      2.231625   978A      2.239927  
     979A      2.243826   980A      2.244190   981A      2.244775  
     982A      2.247436   983A      2.255054   984A      2.255589  
     985A      2.260687   986A      2.261152   987A      2.270567  
     988A      2.270980   989A      2.272339   990A      2.273579  
     991A      2.281004   992A      2.286642   993A      2.300946  
     994A      2.305246   995A      2.307314   996A      2.311252  
     997A      2.313770   998A      2.319262   999A      2.324789  
    1000A      2.326720  1001A      2.331297  1002A      2.331452  
    1003A      2.331784  1004A      2.332918  1005A      2.337233  
    1006A      2.349696  1007A      2.351715  1008A      2.352553  
    1009A      2.353821  1010A      2.355764  1011A      2.366765  
    1012A      2.367141  1013A      2.375134  1014A      2.377610  
    1015A      2.382022  1016A      2.405506  1017A      2.416469  
    1018A      2.419924  1019A      2.424283  1020A      2.424639  
    1021A      2.424767  1022A      2.436613  1023A      2.441593  
    1024A      2.442798  1025A      2.470650  1026A      2.472656  
    1027A      2.473656  1028A      2.474424  1029A      2.476542  
    1030A      2.482271  1031A      2.485914  1032A      2.489291  
    1033A      2.498681  1034A      2.499729  1035A      2.503180  
    1036A      2.521528  1037A      2.530416  1038A      2.532473  
    1039A      2.544718  1040A      2.546533  1041A      2.546907  
    1042A      2.550240  1043A      2.555004  1044A      2.555098  
    1045A      2.555468  1046A      2.560078  1047A      2.560407  
    1048A      2.573246  1049A      2.573362  1050A      2.575258  
    1051A      2.575705  1052A      2.586000  1053A      2.586276  
    1054A      2.587618  1055A      2.590407  1056A      2.591920  
    1057A      2.600307  1058A      2.609037  1059A      2.624105  
    1060A      2.624689  1061A      2.631091  1062A      2.632166  
    1063A      2.633166  1064A      2.641591  1065A      2.642064  
    1066A      2.651142  1067A      2.651707  1068A      2.653574  
    1069A      2.656970  1070A      2.669490  1071A      2.671365  
    1072A      2.681210  1073A      2.684481  1074A      2.684845  
    1075A      2.685689  1076A      2.689999  1077A      2.696608  
    1078A      2.702803  1079A      2.702988  1080A      2.713341  
    1081A      2.713358  1082A      2.719069  1083A      2.719144  
    1084A      2.723608  1085A      2.724446  1086A      2.741150  
    1087A      2.752662  1088A      2.753722  1089A      2.757211  
    1090A      2.764191  1091A      2.777159  1092A      2.779137  
    1093A      2.796154  1094A      2.796277  1095A      2.818048  
    1096A      2.827255  1097A      2.830394  1098A      2.847420  
    1099A      2.854660  1100A      2.855336  1101A      2.856287  
    1102A      2.858583  1103A      2.860648  1104A      2.864314  
    1105A      2.869898  1106A      2.873840  1107A      2.903213  
    1108A      2.914044  1109A      2.918884  1110A      2.920170  
    1111A      2.928099  1112A      2.934281  1113A      2.935084  
    1114A      2.936775  1115A      2.940023  1116A      2.954599  
    1117A      2.963973  1118A      2.964715  1119A      2.972502  
    1120A      2.994536  1121A      3.010337  1122A      3.012382  
    1123A      3.013395  1124A      3.025850  1125A      3.036137  
    1126A      3.047043  1127A      3.064403  1128A      3.064744  
    1129A      3.071609  1130A      3.072162  1131A      3.077015  
    1132A      3.110998  1133A      3.111772  1134A      3.130148  
    1135A      3.130504  1136A      3.130782  1137A      3.137938  
    1138A      3.147688  1139A      3.147919  1140A      3.148522  
    1141A      3.149114  1142A      3.150586  1143A      3.156469  
    1144A      3.160032  1145A      3.163524  1146A      3.166891  
    1147A      3.167803  1148A      3.192278  1149A      3.211404  
    1150A      3.220272  1151A      3.240004  1152A      3.276118  
    1153A      3.277502  1154A      3.277670  1155A      3.283240  
    1156A      3.283343  1157A      3.293012  1158A      3.326769  
    1159A      3.357057  1160A      3.417248  1161A      3.417906  
    1162A      3.441012  1163A      3.444375  1164A      3.482835  
    1165A      3.485708  1166A      3.533481  1167A      3.551790  
    1168A      3.578079  1169A      3.580090  1170A      3.591668  
    1171A      3.598713  1172A      3.627181  1173A      3.629404  
    1174A      3.649976  1175A      3.664431  1176A      3.671167  
    1177A      3.760892  1178A      3.770366  1179A      3.783686  
    1180A      3.785145  1181A      3.822226  1182A      3.871091  
    1183A      3.871365  1184A      3.872588  1185A      3.913802  
    1186A      3.913891  1187A      3.977249  1188A      3.979215  
    1189A      4.011223  1190A      4.037278  1191A      4.050746  
    1192A      4.086151  1193A      4.214214  1194A      4.218322  
    1195A      4.380624  1196A      4.381959  1197A      4.498593  
    1198A      4.758458  1199A      4.809347  1200A      4.839265  
    1201A      4.857621  1202A      4.948896  1203A      5.065274  
    1204A      5.069230  1205A      5.077765  1206A      5.120582  
    1207A      5.173342  1208A      5.401127  1209A      5.429637  
    1210A      5.743628  1211A      5.770957  1212A      6.072496  
    1213A     18.201648  1214A     18.466029  1215A     18.483410  
    1216A     18.568081  1217A     18.839811  1218A     25.346125  
    1219A     25.381457  

    Final Occupation by Irrep:
              A 
    DOCC [   171 ]
    NA   [   171 ]
    NB   [   171 ]

  @DF-RHF Final Energy: -2055.89351177442904

   => Energetics <=

    Nuclear Repulsion Energy =           6452.5568002797781446
    One-Electron Energy =              -15636.4823411120632954
    Two-Electron Energy =                7128.0320290578574713
    Total Energy =                      -2055.8935117744285890

Computation Completed


Properties will be evaluated at   0.000000,   0.000000,   0.000000 [a0]

Properties computed using the SCF density matrix


 Multipole Moments:

 ------------------------------------------------------------------------------------
     Multipole            Electronic (a.u.)      Nuclear  (a.u.)        Total (a.u.)
 ------------------------------------------------------------------------------------

 L = 1.  Multiply by 2.5417464519 to convert [e a0] to [Debye]
 Dipole X            :          0.0001449           -0.0000085            0.0001364
 Dipole Y            :         -0.0000759            0.0000167           -0.0000592
 Dipole Z            :       -460.3295721          460.3375655            0.0079934
 Magnitude           :                                                    0.0079948

 ------------------------------------------------------------------------------------

*** tstop() called on d-16-12-3 at Mon Jan 22 20:05:33 2024
Module time:
	user time   =    2761.38 seconds =      46.02 minutes
	system time =     155.66 seconds =       2.59 minutes
	total time  =        754 seconds =      12.57 minutes
Total time:
	user time   =    9229.21 seconds =     153.82 minutes
	system time =     750.69 seconds =      12.51 minutes
	total time  =       2289 seconds =      38.15 minutes
  Constructing Basis Sets for SAPT...

   => Loading Basis Set <=

    Name: (JUN-CC-PVDZ AUX)
    Role: RIFIT
    Keyword: DF_BASIS_SAPT
    atoms 1-2, 4-5, 10, 17-70 entry C          line   100 file /home/gridsan/tfroembgen/.conda/envs/psi4test/share/psi4/basis/jun-cc-pvdz-ri.gbs 
    atoms 3, 6                entry N          line   144 file /home/gridsan/tfroembgen/.conda/envs/psi4test/share/psi4/basis/jun-cc-pvdz-ri.gbs 
    atoms 7-9, 11-16, 71-88   entry H          line    30 file /home/gridsan/tfroembgen/.conda/envs/psi4test/share/psi4/basis/jun-cc-pvdz-ri.gbs 

   => Loading Basis Set <=

    Name: (JUN-CC-PVDZ AUX)
    Role: JKFIT
    Keyword: DF_BASIS_ELST
    atoms 1-2, 4-5, 10, 17-70 entry C          line   146 file /home/gridsan/tfroembgen/.conda/envs/psi4test/share/psi4/basis/jun-cc-pvdz-jkfit.gbs 
    atoms 3, 6                entry N          line   202 file /home/gridsan/tfroembgen/.conda/envs/psi4test/share/psi4/basis/jun-cc-pvdz-jkfit.gbs 
    atoms 7-9, 11-16, 71-88   entry H          line    70 file /home/gridsan/tfroembgen/.conda/envs/psi4test/share/psi4/basis/jun-cc-pvdz-jkfit.gbs 


  //>>>>>>>>>>>>>>>>>>>>>>>>>>>>>>>>>>>//
  //               SSAPT0              //
  //<<<<<<<<<<<<<<<<<<<<<<<<<<<<<<<<<<<//


*** tstart() called on d-16-12-3
*** at Mon Jan 22 20:05:34 2024

        SAPT0  
    Ed Hohenstein
     6 June 2009

      Orbital Information
  --------------------------
    NSO        =      1233
    NMO        =      1219
    NRI        =      4343
    NRI (Elst) =      5440
    NOCC A     =        26
    NOCC B     =       171
    FOCC A     =         7
    FOCC B     =        54
    NVIR A     =      1193
    NVIR B     =      1048

    Elst10,r            =    -0.010428805714 [Eh]
    Exch10              =     0.000162711761 [Eh]
    Exch10 (S^2)        =     0.000162700126 [Eh]

    Iter     Energy [mEh]          dE [mEh]         Residual      Time [s]
       1      -0.04164206       0.041642064       1.839915708           277
       2      -0.03978080      -0.001861267       0.470625922           545
       3      -0.04338031       0.003599509       0.128069857           816
       4      -0.04353982       0.000159517       0.055896418          1076
       5      -0.04337353      -0.000166290       0.016988349          1251
       6      -0.04338434       0.000010803       0.006114930          1523
       7      -0.04339926       0.000014922       0.001538749          1710
       8      -0.04339985       0.000000588       0.000523075          2133
       9      -0.04339914      -0.000000702       0.000164933          2381
      10      -0.04339898      -0.000000159       0.000048504          2574
      11      -0.04339901       0.000000025       0.000013672          2807
      12      -0.04339903       0.000000018       0.000003994          2850
      13      -0.04339903      -0.000000001       0.000001470          2868
      14      -0.04339902      -0.000000002       0.000000344          3045

    CHF Iterations converged


    Iter     Energy [mEh]          dE [mEh]         Residual      Time [s]
       1      -7.98452537       7.984525368      47.132915075           274
       2      -5.39971428      -2.584811089       6.147406850           440
       3      -5.39795129      -0.001762991       2.140171432           479
       4      -5.52739462       0.129443335       0.495221337           512
       5      -5.53441061       0.007015991       0.147345973           547
       6      -5.53160725      -0.002803361       0.075357463           582
       7      -5.53067282      -0.000934434       0.031860421           609
       8      -5.53107490       0.000402085       0.018329211           632
       9      -5.53127924       0.000204338       0.009327536           658
      10      -5.53121831      -0.000060931       0.007612243           695
      11      -5.53116132      -0.000056993       0.003630845           770
      12      -5.53117411       0.000012793       0.001662603           793
      13      -5.53118836       0.000014247       0.000777256           814
      14      -5.53118589      -0.000002467       0.000462711           836
      15      -5.53118225      -0.000003646       0.000204194          1165
      16      -5.53118260       0.000000359       0.000091638          1228
      17      -5.53118352       0.000000914       0.000027580          1263
      18      -5.53118351      -0.000000013       0.000010451          1288
      19      -5.53118344      -0.000000069       0.000005465          1321
      20      -5.53118341      -0.000000027       0.000002321          1347
      21      -5.53118343       0.000000020       0.000001093          1376
      22      -5.53118343       0.000000002       0.000000472          1398

    CHF Iterations converged

    Ind20,r (A<-B)      =    -0.000043399025 [Eh]
    Ind20,r (B<-A)      =    -0.005531183433 [Eh]
    Ind20,r             =    -0.005574582458 [Eh]
    Exch-Ind20,r (A<-B) =     0.000003994489 [Eh]
    Exch-Ind20,r (B<-A) =     0.000025063380 [Eh]
    Exch-Ind20,r        =     0.000029057869 [Eh]
    Disp20              =    -0.005101669738 [Eh]
    Disp20 (SS)         =    -0.002550834869 [Eh]
    Disp20 (OS)         =    -0.002550834869 [Eh]
    Exch-Disp20         =     0.000022578284 [Eh]
    Exch-Disp20 (SS)    =     0.000015051117 [Eh]
    Exch-Disp20 (OS)    =     0.000007527167 [Eh]

    SAPT Results 
  --------------------------------------------------------------------------------------------------------
    Electrostatics                -10.42880571 [mEh]      -6.54417439 [kcal/mol]     -27.38082563 [kJ/mol]
      Elst10,r                    -10.42880571 [mEh]      -6.54417439 [kcal/mol]     -27.38082563 [kJ/mol]

    Exchange                        0.16271176 [mEh]       0.10210317 [kcal/mol]       0.42719967 [kJ/mol]
      Exch10                        0.16271176 [mEh]       0.10210317 [kcal/mol]       0.42719967 [kJ/mol]
      Exch10(S^2)                   0.16270013 [mEh]       0.10209587 [kcal/mol]       0.42716912 [kJ/mol]

    Induction                      -5.83436993 [mEh]      -3.66112240 [kcal/mol]     -15.31813614 [kJ/mol]
      Ind20,r                      -5.57458246 [mEh]      -3.49810330 [kcal/mol]     -14.63606423 [kJ/mol]
      Exch-Ind20,r                  0.02905787 [mEh]       0.01823409 [kcal/mol]       0.07629143 [kJ/mol]
      delta HF,r (2)               -0.28884534 [mEh]      -0.18125319 [kcal/mol]      -0.75836333 [kJ/mol]

    Dispersion                     -5.07909145 [mEh]      -3.18717801 [kcal/mol]     -13.33515278 [kJ/mol]
      Disp20                       -5.10166974 [mEh]      -3.20134609 [kcal/mol]     -13.39443205 [kJ/mol]
      Exch-Disp20                   0.02257828 [mEh]       0.01416809 [kcal/mol]       0.05927928 [kJ/mol]
      Disp20 (SS)                  -2.55083487 [mEh]      -1.60067305 [kcal/mol]      -6.69721603 [kJ/mol]
      Disp20 (OS)                  -2.55083487 [mEh]      -1.60067305 [kcal/mol]      -6.69721603 [kJ/mol]
      Exch-Disp20 (SS)              0.01505112 [mEh]       0.00944472 [kcal/mol]       0.03951670 [kJ/mol]
      Exch-Disp20 (OS)              0.00752717 [mEh]       0.00472337 [kcal/mol]       0.01976257 [kJ/mol]

  Total HF                        -16.10046388 [mEh]     -10.10319362 [kcal/mol]     -42.27176210 [kJ/mol]
  Total SAPT0                     -21.17955534 [mEh]     -13.29037162 [kcal/mol]     -55.60691487 [kJ/mol]

  Special recipe for scaled SAPT0 (see Manual):
    Electrostatics sSAPT0         -10.42880571 [mEh]      -6.54417439 [kcal/mol]     -27.38082563 [kJ/mol]
    Exchange sSAPT0                 0.16271176 [mEh]       0.10210317 [kcal/mol]       0.42719967 [kJ/mol]
    Induction sSAPT0               -5.83436369 [mEh]      -3.66111849 [kcal/mol]     -15.31811977 [kJ/mol]
    Dispersion sSAPT0              -5.07908661 [mEh]      -3.18717497 [kcal/mol]     -13.33514006 [kJ/mol]
  Total sSAPT0                    -21.17954426 [mEh]     -13.29036467 [kcal/mol]     -55.60688579 [kJ/mol]
  --------------------------------------------------------------------------------------------------------

*** tstop() called on d-16-12-3 at Mon Jan 22 22:15:56 2024
Module time:
	user time   =    9752.10 seconds =     162.54 minutes
	system time =    1103.82 seconds =      18.40 minutes
	total time  =       7822 seconds =     130.37 minutes
Total time:
	user time   =   18982.66 seconds =     316.38 minutes
	system time =    1854.53 seconds =      30.91 minutes
	total time  =      10112 seconds =     168.53 minutes

    Psi4 stopped on: Monday, 22 January 2024 10:15PM
    Psi4 wall time for execution: 2:48:33.91

*** Psi4 exiting successfully. Buy a developer a beer!
