
    -----------------------------------------------------------------------
          Psi4: An Open-Source Ab Initio Electronic Structure Package
                               Psi4 1.9 release

                         Git: Rev {} zzzzzzz 


    D. G. A. Smith, L. A. Burns, A. C. Simmonett, R. M. Parrish,
    M. C. Schieber, R. Galvelis, P. Kraus, H. Kruse, R. Di Remigio,
    A. Alenaizan, A. M. James, S. Lehtola, J. P. Misiewicz, M. Scheurer,
    R. A. Shaw, J. B. Schriber, Y. Xie, Z. L. Glick, D. A. Sirianni,
    J. S. O'Brien, J. M. Waldrop, A. Kumar, E. G. Hohenstein,
    B. P. Pritchard, B. R. Brooks, H. F. Schaefer III, A. Yu. Sokolov,
    K. Patkowski, A. E. DePrince III, U. Bozkaya, R. A. King,
    F. A. Evangelista, J. M. Turney, T. D. Crawford, C. D. Sherrill,
    J. Chem. Phys. 152(18) 184108 (2020). https://doi.org/10.1063/5.0006002

                            Additional Code Authors
    E. T. Seidl, C. L. Janssen, E. F. Valeev, M. L. Leininger,
    J. F. Gonthier, R. M. Richard, H. R. McAlexander, M. Saitow, X. Wang,
    P. Verma, M. H. Lechner, A. Jiang, S. Behnle, A. G. Heide,
    M. F. Herbst, and D. L. Poole

             Previous Authors, Complete List of Code Contributors,
                       and Citations for Specific Modules
    https://github.com/psi4/psi4/blob/master/codemeta.json
    https://github.com/psi4/psi4/graphs/contributors
    http://psicode.org/psi4manual/master/introduction.html#citing-psifour

    -----------------------------------------------------------------------


    Psi4 started on: Saturday, 20 January 2024 11:24PM

    Process ID: 496264
    Host:       d-16-9-3
    PSIDATADIR: /home/gridsan/tfroembgen/.conda/envs/psi4test/share/psi4
    Memory:     500.0 MiB
    Threads:    12
    
  ==> Input File <==

--------------------------------------------------------------------------
memory 32 GB # how much memory is available ! Depends on the nodes/cores !

molecule dimer {
# monomer A
-1 1    # Charge and multiplicity
B -1.977592e-04  2.742729e-04 6.200034
F  1.123153e-16  1.430594e-17 7.612819
F  1.147860e+00  6.757812e-01 5.728893
F  1.191806e-02 -1.332011e+00 5.729095
F -1.159666e+00  6.560735e-01 5.729174
--
# monomer B
0 1     # Charge and multiplicity
C   1.22531237526482      0.70753866091955      0.00613762728373
C   1.22532433589282     -0.70753852257020     -0.00619318228664
C   -0.00000567409046      1.41496628609039     -0.00672680580738
C   2.45644923379077      1.41832825917820      0.00902448468363
C   0.00001130712078     -1.41497612663474      0.00347275151708
C   -1.22530046906674      0.70754574598412      0.00838914760619
C   2.45643823516184     -1.41832293188077     -0.00843833914343
C   -0.00000085313587      2.83680140328112     -0.00913035594137
C   3.68182717731192      0.70931832800114     -0.00808954934571
C   2.45512052870677      2.83422403348893     -0.00819210630633
C   3.68182158506039     -0.70933346742900      0.00798293467272
C   -1.22531311884624     -0.70752714354401     -0.00512042085974
C   1.22670006104402      3.54346985599427      0.00816696660346
C   0.00000526469929     -2.83678176723568      0.00832091913869
C   -2.45643555300670      1.41831729028492      0.00842454345199
C   2.45512389762097     -2.83422965658853      0.00783102630520
C   -1.22671388474763      3.54346943575023      0.00827029982280
C   4.91451777504333      1.42717324448953     -0.00160886631602
C   3.69315067131765      3.54279566454522     -0.00155906667985
C   -2.45643712022637     -1.41831290883911     -0.00846337726810
C   1.22670532178455     -3.54347386990643     -0.00780316414624
C   -2.45512491866593      2.83421703463423     -0.00818572995999
C   4.91452486062398     -1.42718653794377      0.00136387641845
C   1.22142509354026      4.97013443726031      0.00150231067809
C   4.89300870916237      2.82518837202648     -0.00039219795739
C   -1.22669652864725     -3.54347062507680     -0.00753595973677
C   -3.68181849668397      0.70932533873199     -0.00807686886569
C   3.69314758099218     -3.54280096939050      0.00148176697923
C   -1.22143177215231      4.97012866986289      0.00168580605083
C   6.13477145276790      0.68054831910577     -0.00083909176631
C   3.65678936045204      4.97295361556775     -0.00065042889723
C   -2.45512642789169     -2.83421472106065      0.00758666850712
C   -3.68181869921921     -0.70932533146830      0.00810055625144
C   4.89301309775526     -2.82519973363176      0.00021895393805
C   -0.00000059327114      5.65044773803267      0.00045449734393
C   6.13477559217374     -0.68055448207492      0.00042622874941
C   2.47813196269732      5.65357712333155      0.00063835075260
C   1.22142288457925     -4.97012668293268     -0.00129718634452
C   -3.69316190412301      3.54279732619245     -0.00139355922051
C   -1.22142804110313     -4.97011793159564     -0.00140994817719
C   -4.91452132810043      1.42717581899491     -0.00153192130862
C   3.65678749952045     -4.97295485423912      0.00080007163680
C   -2.47813805026426      5.65357479452875      0.00092287576113
C   -3.69314125872231     -3.54278984697859      0.00136564082345
C   -4.91451200321153     -1.42718062802730      0.00139857359209
C   -0.00000552908399     -5.65043791501335      0.00005899322272
C   -4.89302000425900      2.82518897091939     -0.00040227981744
C   2.47812647313991     -5.65357317188818     -0.00029052915548
C   -3.65679823041642      4.97295655404175     -0.00047374852278
C   -4.89299899901461     -2.82519139505969      0.00006491824035
C   -2.47812801824129     -5.65356579800621     -0.00056571680280
C   -6.13477002348955      0.68054913825639     -0.00086464346868
C   -3.65678835334731     -4.97294365097028      0.00058578382008
C   -6.13476456307132     -0.68055354348201      0.00040575295444
H   5.83528897565761      3.36927626695423      0.00396712770529
H   7.07385965258860      1.22821762089947     -0.00037744837300
H   4.60066374401555      5.51238117445323     -0.00014522814529
H   5.83528386714679     -3.36930568472863     -0.00423551337640
H   -0.00001167146422      6.73853104613662     -0.00389474766392
H   7.07386165167227     -1.22822657074368     -0.00008250934481
H   2.47331421164041      6.74068466339473      0.00017162982210
H   4.60066897122302     -5.51237575717576      0.00039007446835
H   -2.47331820069565      6.74068209160650      0.00047297644710
H   -0.00000978838621     -6.73852780445195      0.00458867820736
H   -5.83530143450167      3.36927132229595      0.00410314985360
H   2.47330840367253     -6.74068500242887      0.00027980126949
H   -4.60067436136587      5.51237839860371      0.00002010017831
H   -5.83527902699321     -3.36928859177951     -0.00451481925734
H   -2.47329986759855     -6.74067870613986     -0.00016951527498
H   -7.07385728692578      1.22822084484047     -0.00046143985387
H   -4.60067330624313     -5.51236229778631      0.00021776644566
H   -7.07385645456741     -1.22822025997701     -0.00017736581114

    units angstrom      # Angstroms are the default
    no_reorient         # Geometry fixed, default
    symmetry c1         # C1 symmetry, default
}

set {
    scf_type DF         # Density fitting, faster than exact integrals
    freeze_core True    # Freeze core electrons
    basis jun-cc-pVDZ   # Jun-cc-pVDZ basis set, recommended for sSAPT0 in https://doi.org/10.1063/1.4867135
}

energy('ssapt0')        # Compute sSAPT0 energy, includes also SAPT0
--------------------------------------------------------------------------

  Memory set to  29.802 GiB by Python driver.

Scratch directory: /state/partition1/slurm_tmp/24778956.4294967291.0/
   => Loading Basis Set <=

    Name: JUN-CC-PVDZ
    Role: ORBITAL
    Keyword: BASIS
    atoms 1     entry B          line   130 file /home/gridsan/tfroembgen/.conda/envs/psi4test/share/psi4/basis/jun-cc-pvdz.gbs 
    atoms 2-5   entry F          line   266 file /home/gridsan/tfroembgen/.conda/envs/psi4test/share/psi4/basis/jun-cc-pvdz.gbs 
    atoms 6-59  entry C          line   164 file /home/gridsan/tfroembgen/.conda/envs/psi4test/share/psi4/basis/jun-cc-pvdz.gbs 
    atoms 60-77 entry H          line    36 file /home/gridsan/tfroembgen/.conda/envs/psi4test/share/psi4/basis/jun-cc-pvdz.gbs 

   => Loading Basis Set <=

    Name: JUN-CC-PVDZ
    Role: ORBITAL
    Keyword: BASIS
    atoms 1     entry B          line   130 file /home/gridsan/tfroembgen/.conda/envs/psi4test/share/psi4/basis/jun-cc-pvdz.gbs 
    atoms 2-5   entry F          line   266 file /home/gridsan/tfroembgen/.conda/envs/psi4test/share/psi4/basis/jun-cc-pvdz.gbs 
    atoms 6-59  entry C          line   164 file /home/gridsan/tfroembgen/.conda/envs/psi4test/share/psi4/basis/jun-cc-pvdz.gbs 
    atoms 60-77 entry H          line    36 file /home/gridsan/tfroembgen/.conda/envs/psi4test/share/psi4/basis/jun-cc-pvdz.gbs 


  //>>>>>>>>>>>>>>>>>>>>>>>>>>>>>>>>>>>//
  //              Dimer HF             //
  //<<<<<<<<<<<<<<<<<<<<<<<<<<<<<<<<<<<//

   => Libint2 <=

    Primary   basis highest AM E, G, H:  7, 7, 4
    Auxiliary basis highest AM E, G, H:  7, 7, 5
    Onebody   basis highest AM E, G, H:  7, 7, 5
    Solid Harmonics ordering:            gaussian

*** tstart() called on d-16-9-3
*** at Sat Jan 20 23:24:37 2024

   => Loading Basis Set <=

    Name: JUN-CC-PVDZ
    Role: ORBITAL
    Keyword: BASIS
    atoms 1     entry B          line   130 file /home/gridsan/tfroembgen/.conda/envs/psi4test/share/psi4/basis/jun-cc-pvdz.gbs 
    atoms 2-5   entry F          line   266 file /home/gridsan/tfroembgen/.conda/envs/psi4test/share/psi4/basis/jun-cc-pvdz.gbs 
    atoms 6-59  entry C          line   164 file /home/gridsan/tfroembgen/.conda/envs/psi4test/share/psi4/basis/jun-cc-pvdz.gbs 
    atoms 60-77 entry H          line    36 file /home/gridsan/tfroembgen/.conda/envs/psi4test/share/psi4/basis/jun-cc-pvdz.gbs 


         ---------------------------------------------------------
                                   SCF
               by Justin Turney, Rob Parrish, Andy Simmonett
                          and Daniel G. A. Smith
                              RHF Reference
                       12 Threads,  30517 MiB Core
         ---------------------------------------------------------

  ==> Geometry <==

    Molecular point group: c1
    Full point group: C1

    Geometry (in Angstrom), charge = -1, multiplicity = 1:

       Center              X                  Y                   Z               Mass       
    ------------   -----------------  -----------------  -----------------  -----------------
         B           -0.000198161052     0.000273808717     5.483814270362    11.009305360000
         F           -0.000000401852    -0.000000464183     6.896599270362    18.998403162730
         F            1.147859598148     0.675780735817     5.012673270362    18.998403162730
         F            0.011917658148    -1.332011464183     5.012875270362    18.998403162730
         F           -1.159666401852     0.656073035817     5.012954270362    18.998403162730
         C            1.225311973413     0.707538196736    -0.710082102355    12.000000000000
         C            1.225323934041    -0.707538986754    -0.722412911925    12.000000000000
         C           -0.000006075942     1.414965821907    -0.722946535446    12.000000000000
         C            2.456448831939     1.418327794995    -0.707195244955    12.000000000000
         C            0.000010905269    -1.414976590818    -0.712746978121    12.000000000000
         C           -1.225300870919     0.707545281801    -0.707830582032    12.000000000000
         C            2.456437833310    -1.418323396064    -0.724658068782    12.000000000000
         C           -0.000001254988     2.836800939098    -0.725350085580    12.000000000000
         C            3.681826775460     0.709317863818    -0.724309278984    12.000000000000
         C            2.455120126855     2.834223569306    -0.724411835945    12.000000000000
         C            3.681821183209    -0.709333931612    -0.708236794966    12.000000000000
         C           -1.225313520698    -0.707527607727    -0.721340150498    12.000000000000
         C            1.226699659192     3.543469391811    -0.708052763035    12.000000000000
         C            0.000004862847    -2.836782231419    -0.707898810500    12.000000000000
         C           -2.456435954859     1.418316826102    -0.707795186186    12.000000000000
         C            2.455123495769    -2.834230120772    -0.708388703333    12.000000000000
         C           -1.226714286599     3.543468971567    -0.707949429816    12.000000000000
         C            4.914517373191     1.427172780306    -0.717828595954    12.000000000000
         C            3.693150269466     3.542795200362    -0.717778796318    12.000000000000
         C           -2.456437522078    -1.418313373022    -0.724683106907    12.000000000000
         C            1.226704919933    -3.543474334090    -0.724022893785    12.000000000000
         C           -2.455125320518     2.834216570451    -0.724405459598    12.000000000000
         C            4.914524458772    -1.427187002127    -0.714855853220    12.000000000000
         C            1.221424691688     4.970133973077    -0.714717418960    12.000000000000
         C            4.893008307311     2.825187907843    -0.716611927596    12.000000000000
         C           -1.226696930499    -3.543471089260    -0.723755689375    12.000000000000
         C           -3.681818898536     0.709324874549    -0.724296598504    12.000000000000
         C            3.693147179140    -3.542801433574    -0.714737962659    12.000000000000
         C           -1.221432174004     4.970128205680    -0.714533923588    12.000000000000
         C            6.134771050916     0.680547854922    -0.717058821405    12.000000000000
         C            3.656788958600     4.972953151384    -0.716870158536    12.000000000000
         C           -2.455126829744    -2.834215185244    -0.708633061131    12.000000000000
         C           -3.681819101071    -0.709325795652    -0.708119173387    12.000000000000
         C            4.893012695903    -2.825200197815    -0.716000775700    12.000000000000
         C           -0.000000995123     5.650447273849    -0.715765232295    12.000000000000
         C            6.134775190322    -0.680554946258    -0.715793500889    12.000000000000
         C            2.478131560845     5.653576659148    -0.715581378886    12.000000000000
         C            1.221422482727    -4.970127147116    -0.717516915983    12.000000000000
         C           -3.693162305975     3.542796862009    -0.717613288859    12.000000000000
         C           -1.221428442955    -4.970118395779    -0.717629677816    12.000000000000
         C           -4.914521729952     1.427175354812    -0.717751650947    12.000000000000
         C            3.656787097669    -4.972955318422    -0.715419658002    12.000000000000
         C           -2.478138452116     5.653574330345    -0.715296853877    12.000000000000
         C           -3.693141660574    -3.542790311162    -0.714854088815    12.000000000000
         C           -4.914512405063    -1.427181092211    -0.714821156046    12.000000000000
         C           -0.000005930936    -5.650438379197    -0.716160736416    12.000000000000
         C           -4.893020406111     2.825188506736    -0.716622009456    12.000000000000
         C            2.478126071288    -5.653573636072    -0.716510258794    12.000000000000
         C           -3.656798632268     4.972956089858    -0.716693478161    12.000000000000
         C           -4.892999400866    -2.825191859243    -0.716154811398    12.000000000000
         C           -2.478128420093    -5.653566262190    -0.716785446441    12.000000000000
         C           -6.134770425341     0.680548674073    -0.717084373107    12.000000000000
         C           -3.656788755199    -4.972944115154    -0.715633945818    12.000000000000
         C           -6.134764964923    -0.680554007665    -0.715813976684    12.000000000000
         H            5.835288573806     3.369275802771    -0.712252601933     1.007825032230
         H            7.073859250737     1.228217156716    -0.716597178011     1.007825032230
         H            4.600663342164     5.512380710270    -0.716364957784     1.007825032230
         H            5.835283465295    -3.369306148912    -0.720455243015     1.007825032230
         H           -0.000012073316     6.738530581953    -0.720114477302     1.007825032230
         H            7.073861249820    -1.228227034927    -0.716302238983     1.007825032230
         H            2.473313809789     6.740684199211    -0.716048099816     1.007825032230
         H            4.600668569371    -5.512376221359    -0.715829655170     1.007825032230
         H           -2.473318602548     6.740681627423    -0.715746753191     1.007825032230
         H           -0.000010190238    -6.738528268635    -0.711631051431     1.007825032230
         H           -5.835301836354     3.369270858113    -0.712116579785     1.007825032230
         H            2.473308001821    -6.740685466612    -0.715939928369     1.007825032230
         H           -4.600674763218     5.512377934420    -0.716199629460     1.007825032230
         H           -5.835279428845    -3.369289055963    -0.720734548896     1.007825032230
         H           -2.473300269450    -6.740679170323    -0.716389244913     1.007825032230
         H           -7.073857688778     1.228220380657    -0.716681169492     1.007825032230
         H           -4.600673708095    -5.512362761970    -0.716001963193     1.007825032230
         H           -7.073856856419    -1.228220724160    -0.716397095450     1.007825032230

  Running in c1 symmetry.

  Rotational constants: A =      0.00158  B =      0.00158  C =      0.00110 [cm^-1]
  Rotational constants: A =     47.40854  B =     47.40334  C =     33.02251 [MHz]
  Nuclear repulsion = 7591.146902736493757

  Charge       = -1
  Multiplicity = 1
  Electrons    = 384
  Nalpha       = 192
  Nbeta        = 192

  ==> Algorithm <==

  SCF Algorithm Type is DF.
  DIIS enabled.
  MOM disabled.
  Fractional occupation disabled.
  Guess Type is SAD.
  Energy threshold   = 1.00e-08
  Density threshold  = 1.00e-08
  Integral threshold = 1.00e-12

  ==> Primary Basis <==

  Basis Set: JUN-CC-PVDZ
    Blend: JUN-CC-PVDZ
    Number of shells: 526
    Number of basis functions: 1152
    Number of Cartesian functions: 1211
    Spherical Harmonics?: true
    Max angular momentum: 2

   => Loading Basis Set <=

    Name: (JUN-CC-PVDZ AUX)
    Role: JKFIT
    Keyword: DF_BASIS_SCF
    atoms 1     entry B          line    90 file /home/gridsan/tfroembgen/.conda/envs/psi4test/share/psi4/basis/jun-cc-pvdz-jkfit.gbs 
    atoms 2-5   entry F          line   314 file /home/gridsan/tfroembgen/.conda/envs/psi4test/share/psi4/basis/jun-cc-pvdz-jkfit.gbs 
    atoms 6-59  entry C          line   146 file /home/gridsan/tfroembgen/.conda/envs/psi4test/share/psi4/basis/jun-cc-pvdz-jkfit.gbs 
    atoms 60-77 entry H          line    70 file /home/gridsan/tfroembgen/.conda/envs/psi4test/share/psi4/basis/jun-cc-pvdz-jkfit.gbs 

  ==> Integral Setup <==

  ==> DiskDFJK: Density-Fitted J/K Matrices <==

    J tasked:                  Yes
    K tasked:                  Yes
    wK tasked:                  No
    OpenMP threads:             12
    Integrals threads:          12
    Memory [MiB]:            22888
    Algorithm:                Core
    Integral Cache:           SAVE
    Schwarz Cutoff:          1E-12
    Fitting Condition:       1E-10

   => Auxiliary Basis Set <=

  Basis Set: (JUN-CC-PVDZ AUX)
    Blend: JUN-CC-PVDZ-JKFIT
    Number of shells: 1755
    Number of basis functions: 5075
    Number of Cartesian functions: 5819
    Spherical Harmonics?: true
    Max angular momentum: 3

  Minimum eigenvalue in the overlap matrix is 8.3864799910E-10.
  Reciprocal condition number of the overlap matrix is 3.7388913141E-11.
    Using canonical orthogonalization.
  Overall, 14 of 1152 possible MOs eliminated.


  ==> Pre-Iterations <==

  SCF Guess: Superposition of Atomic Densities via on-the-fly atomic UHF (no occupation information).

   -------------------------
    Irrep   Nso     Nmo    
   -------------------------
     A       1152    1138 
   -------------------------
    Total    1152    1138
   -------------------------

  ==> Iterations <==

                           Total Energy        Delta E     RMS |[F,P]|

   @DF-RHF iter SAD: -2483.26123499665391   -2.48326e+03   0.00000e+00 
   @DF-RHF iter   1: -2477.61997536018634    5.64126e+00   1.09985e-03 ADIIS/DIIS
   @DF-RHF iter   2: -2478.50914963587638   -8.89174e-01   4.76510e-04 ADIIS/DIIS
   @DF-RHF iter   3: -2478.64191919441782   -1.32770e-01   1.31708e-04 ADIIS/DIIS
   @DF-RHF iter   4: -2478.65503737207246   -1.31182e-02   5.38235e-05 DIIS
   @DF-RHF iter   5: -2478.65745225251521   -2.41488e-03   1.60709e-05 DIIS
   @DF-RHF iter   6: -2478.65773525252825   -2.83000e-04   5.38623e-06 DIIS
   @DF-RHF iter   7: -2478.65781604647009   -8.07939e-05   2.64971e-06 DIIS
   @DF-RHF iter   8: -2478.65783832915577   -2.22827e-05   1.21553e-06 DIIS
   @DF-RHF iter   9: -2478.65784494272248   -6.61357e-06   2.49842e-07 DIIS
   @DF-RHF iter  10: -2478.65784516163467   -2.18912e-07   8.81470e-08 DIIS
   @DF-RHF iter  11: -2478.65784517811244   -1.64778e-08   3.40837e-08 DIIS
   @DF-RHF iter  12: -2478.65784518153941   -3.42698e-09   1.15125e-08 DIIS
   @DF-RHF iter  13: -2478.65784518189184   -3.52429e-10   4.19303e-09 DIIS
  Energy and wave function converged.


  ==> Post-Iterations <==

    Orbital Energies [Eh]
    ---------------------

    Doubly Occupied:                                                      

       1A    -26.065132     2A    -26.064813     3A    -26.064718  
       4A    -26.064633     5A    -11.195955     6A    -11.195950  
       7A    -11.195946     8A    -11.195936     9A    -11.195930  
      10A    -11.195923    11A    -11.195863    12A    -11.195857  
      13A    -11.195850    14A    -11.195842    15A    -11.195838  
      16A    -11.195834    17A    -11.194561    18A    -11.194448  
      19A    -11.194447    20A    -11.194287    21A    -11.194285  
      22A    -11.194205    23A    -11.193738    24A    -11.193455  
      25A    -11.193406    26A    -11.193405    27A    -11.193341  
      28A    -11.193340    29A    -11.192857    30A    -11.192856  
      31A    -11.192744    32A    -11.192443    33A    -11.192340  
      34A    -11.192340    35A    -11.192279    36A    -11.192279  
      37A    -11.192177    38A    -11.191946    39A    -11.191945  
      40A    -11.191873    41A    -11.191872    42A    -11.191871  
      43A    -11.191869    44A    -11.191868    45A    -11.191867  
      46A    -11.191544    47A    -11.190453    48A    -11.190451  
      49A    -11.190451    50A    -11.190448    51A    -11.190447  
      52A    -11.190446    53A    -11.189291    54A    -11.189289  
      55A    -11.189288    56A    -11.189220    57A    -11.189220  
      58A    -11.189219    59A     -7.537065    60A     -1.408771  
      61A     -1.349212    62A     -1.348948    63A     -1.348783  
      64A     -1.178897    65A     -1.155840    66A     -1.155839  
      67A     -1.126299    68A     -1.126292    69A     -1.116664  
      70A     -1.095103    71A     -1.085905    72A     -1.071640  
      73A     -1.071634    74A     -1.050842    75A     -1.050837  
      76A     -1.018946    77A     -1.018938    78A     -1.015083  
      79A     -1.003839    80A     -1.003835    81A     -0.976732  
      82A     -0.960207    83A     -0.957702    84A     -0.957659  
      85A     -0.955470    86A     -0.950873    87A     -0.923780  
      88A     -0.923735    89A     -0.899467    90A     -0.899417  
      91A     -0.832004    92A     -0.831976    93A     -0.824020  
      94A     -0.822150    95A     -0.822093    96A     -0.818121  
      97A     -0.818073    98A     -0.799615    99A     -0.776144  
     100A     -0.755727   101A     -0.753107   102A     -0.749047  
     103A     -0.749038   104A     -0.732829   105A     -0.732818  
     106A     -0.683142   107A     -0.681685   108A     -0.670259  
     109A     -0.670253   110A     -0.670247   111A     -0.670227  
     112A     -0.653776   113A     -0.636711   114A     -0.636699  
     115A     -0.630969   116A     -0.630953   117A     -0.600036  
     118A     -0.599457   119A     -0.590410   120A     -0.588634  
     121A     -0.588628   122A     -0.587889   123A     -0.577262  
     124A     -0.577259   125A     -0.566895   126A     -0.564786  
     127A     -0.564772   128A     -0.545613   129A     -0.540216  
     130A     -0.538538   131A     -0.537750   132A     -0.537718  
     133A     -0.530704   134A     -0.527681   135A     -0.527669  
     136A     -0.526306   137A     -0.526208   138A     -0.526123  
     139A     -0.524333   140A     -0.511802   141A     -0.511796  
     142A     -0.505775   143A     -0.505760   144A     -0.503067  
     145A     -0.503051   146A     -0.495800   147A     -0.493227  
     148A     -0.493219   149A     -0.476879   150A     -0.476876  
     151A     -0.474671   152A     -0.474666   153A     -0.467357  
     154A     -0.463123   155A     -0.460523   156A     -0.460516  
     157A     -0.445115   158A     -0.445073   159A     -0.438943  
     160A     -0.433163   161A     -0.431359   162A     -0.424666  
     163A     -0.422108   164A     -0.419272   165A     -0.419264  
     166A     -0.406290   167A     -0.406244   168A     -0.406162  
     169A     -0.405906   170A     -0.405886   171A     -0.387415  
     172A     -0.387336   173A     -0.382851   174A     -0.382788  
     175A     -0.382625   176A     -0.376845   177A     -0.376836  
     178A     -0.340788   179A     -0.340764   180A     -0.339256  
     181A     -0.313527   182A     -0.313525   183A     -0.286127  
     184A     -0.272204   185A     -0.271176   186A     -0.271112  
     187A     -0.248579   188A     -0.236755   189A     -0.220158  
     190A     -0.220107   191A     -0.161990   192A     -0.161923  

    Virtual:                                                              

     193A      0.076683   194A      0.076744   195A      0.100545  
     196A      0.100550   197A      0.102460   198A      0.102999  
     199A      0.103002   200A      0.109917   201A      0.114029  
     202A      0.124979   203A      0.124981   204A      0.128232  
     205A      0.128284   206A      0.137443   207A      0.139748  
     208A      0.139755   209A      0.144150   210A      0.144161  
     211A      0.144559   212A      0.146046   213A      0.146058  
     214A      0.148854   215A      0.151072   216A      0.152650  
     217A      0.152653   218A      0.159502   219A      0.160773  
     220A      0.166168   221A      0.166180   222A      0.169515  
     223A      0.171946   224A      0.176170   225A      0.176170  
     226A      0.178404   227A      0.183492   228A      0.183506  
     229A      0.184365   230A      0.185559   231A      0.185569  
     232A      0.185724   233A      0.189778   234A      0.190274  
     235A      0.190283   236A      0.191999   237A      0.197685  
     238A      0.200862   239A      0.204830   240A      0.204836  
     241A      0.206671   242A      0.206678   243A      0.210115  
     244A      0.210119   245A      0.214909   246A      0.214911  
     247A      0.227570   248A      0.229041   249A      0.229095  
     250A      0.235592   251A      0.235641   252A      0.236326  
     253A      0.238837   254A      0.238850   255A      0.239421  
     256A      0.243939   257A      0.243960   258A      0.245752  
     259A      0.248889   260A      0.248893   261A      0.251157  
     262A      0.255298   263A      0.255309   264A      0.259910  
     265A      0.259933   266A      0.259939   267A      0.265466  
     268A      0.265468   269A      0.266630   270A      0.268600  
     271A      0.268702   272A      0.268746   273A      0.270429  
     274A      0.271485   275A      0.271828   276A      0.273952  
     277A      0.282080   278A      0.282610   279A      0.282620  
     280A      0.283000   281A      0.284718   282A      0.284761  
     283A      0.285830   284A      0.287509   285A      0.287535  
     286A      0.289898   287A      0.293085   288A      0.293107  
     289A      0.300656   290A      0.300660   291A      0.301136  
     292A      0.303826   293A      0.305084   294A      0.305096  
     295A      0.314047   296A      0.314063   297A      0.315104  
     298A      0.315104   299A      0.315872   300A      0.315884  
     301A      0.322258   302A      0.322271   303A      0.328853  
     304A      0.328860   305A      0.331979   306A      0.331983  
     307A      0.336155   308A      0.336378   309A      0.336455  
     310A      0.338410   311A      0.338440   312A      0.341362  
     313A      0.349824   314A      0.349834   315A      0.351733  
     316A      0.351739   317A      0.357949   318A      0.357962  
     319A      0.360999   320A      0.361200   321A      0.361212  
     322A      0.364478   323A      0.365484   324A      0.365516  
     325A      0.367123   326A      0.368656   327A      0.369833  
     328A      0.369845   329A      0.374482   330A      0.374812  
     331A      0.374819   332A      0.379006   333A      0.379037  
     334A      0.379051   335A      0.380094   336A      0.383864  
     337A      0.384630   338A      0.387410   339A      0.390475  
     340A      0.390560   341A      0.391417   342A      0.396731  
     343A      0.396741   344A      0.397581   345A      0.402494  
     346A      0.402499   347A      0.404853   348A      0.407490  
     349A      0.409670   350A      0.409676   351A      0.411309  
     352A      0.411343   353A      0.411349   354A      0.418774  
     355A      0.424376   356A      0.424386   357A      0.426743  
     358A      0.426769   359A      0.427853   360A      0.428243  
     361A      0.428246   362A      0.432092   363A      0.432126  
     364A      0.433509   365A      0.438177   366A      0.444994  
     367A      0.445126   368A      0.448466   369A      0.448474  
     370A      0.450671   371A      0.451520   372A      0.453997  
     373A      0.454047   374A      0.454168   375A      0.455967  
     376A      0.456016   377A      0.458492   378A      0.458514  
     379A      0.463319   380A      0.463344   381A      0.464184  
     382A      0.465544   383A      0.465552   384A      0.465717  
     385A      0.470870   386A      0.472782   387A      0.473711  
     388A      0.473934   389A      0.474252   390A      0.474409  
     391A      0.474711   392A      0.475830   393A      0.475849  
     394A      0.478817   395A      0.478872   396A      0.483398  
     397A      0.485634   398A      0.485649   399A      0.486143  
     400A      0.486661   401A      0.486773   402A      0.496196  
     403A      0.499113   404A      0.499201   405A      0.500188  
     406A      0.500772   407A      0.501745   408A      0.507459  
     409A      0.507515   410A      0.510522   411A      0.510578  
     412A      0.510916   413A      0.512947   414A      0.512986  
     415A      0.513574   416A      0.513618   417A      0.524435  
     418A      0.525119   419A      0.525143   420A      0.527665  
     421A      0.530183   422A      0.530266   423A      0.532199  
     424A      0.532398   425A      0.536885   426A      0.536954  
     427A      0.542253   428A      0.543411   429A      0.543425  
     430A      0.545722   431A      0.545746   432A      0.550105  
     433A      0.550159   434A      0.551212   435A      0.553844  
     436A      0.553883   437A      0.556973   438A      0.556980  
     439A      0.559313   440A      0.560757   441A      0.562058  
     442A      0.567078   443A      0.567114   444A      0.567409  
     445A      0.573753   446A      0.576606   447A      0.576700  
     448A      0.580370   449A      0.580734   450A      0.585473  
     451A      0.585787   452A      0.591454   453A      0.593020  
     454A      0.593035   455A      0.593695   456A      0.593914  
     457A      0.597826   458A      0.601827   459A      0.606199  
     460A      0.608304   461A      0.608378   462A      0.613000  
     463A      0.613320   464A      0.613366   465A      0.614079  
     466A      0.618869   467A      0.619092   468A      0.622374  
     469A      0.623830   470A      0.624864   471A      0.624906  
     472A      0.625661   473A      0.628215   474A      0.632853  
     475A      0.632905   476A      0.637017   477A      0.657965  
     478A      0.658242   479A      0.658461   480A      0.662483  
     481A      0.662502   482A      0.674167   483A      0.681310  
     484A      0.681425   485A      0.688899   486A      0.689028  
     487A      0.689241   488A      0.689338   489A      0.702919  
     490A      0.703113   491A      0.710231   492A      0.715735  
     493A      0.715764   494A      0.719212   495A      0.721217  
     496A      0.731793   497A      0.731814   498A      0.731907  
     499A      0.739958   500A      0.739976   501A      0.741211  
     502A      0.754794   503A      0.767096   504A      0.767279  
     505A      0.778746   506A      0.778774   507A      0.796831  
     508A      0.802505   509A      0.806368   510A      0.806432  
     511A      0.807193   512A      0.807345   513A      0.818932  
     514A      0.818942   515A      0.824467   516A      0.831175  
     517A      0.837478   518A      0.853136   519A      0.859668  
     520A      0.859754   521A      0.867462   522A      0.871254  
     523A      0.874604   524A      0.874678   525A      0.875933  
     526A      0.884437   527A      0.885460   528A      0.885708  
     529A      0.889535   530A      0.889555   531A      0.890069  
     532A      0.898169   533A      0.916780   534A      0.916849  
     535A      0.917584   536A      0.922127   537A      0.922166  
     538A      0.922979   539A      0.924846   540A      0.924901  
     541A      0.928717   542A      0.928817   543A      0.932138  
     544A      0.937648   545A      0.937713   546A      0.940762  
     547A      0.941046   548A      0.950612   549A      0.950650  
     550A      0.958766   551A      0.959383   552A      0.960238  
     553A      0.962457   554A      0.962606   555A      0.962882  
     556A      0.962954   557A      0.969726   558A      0.970111  
     559A      0.972438   560A      0.974350   561A      0.978767  
     562A      0.979102   563A      0.980482   564A      0.982639  
     565A      0.985396   566A      0.985570   567A      0.986044  
     568A      0.988060   569A      0.996129   570A      0.996429  
     571A      0.997850   572A      0.997968   573A      0.998882  
     574A      1.007545   575A      1.007688   576A      1.010464  
     577A      1.010685   578A      1.021489   579A      1.021599  
     580A      1.028303   581A      1.029933   582A      1.031146  
     583A      1.034411   584A      1.034836   585A      1.036579  
     586A      1.036662   587A      1.040139   588A      1.041091  
     589A      1.049764   590A      1.050663   591A      1.050732  
     592A      1.054262   593A      1.062823   594A      1.062900  
     595A      1.068240   596A      1.075604   597A      1.075607  
     598A      1.077403   599A      1.078838   600A      1.078858  
     601A      1.094616   602A      1.094637   603A      1.099856  
     604A      1.100004   605A      1.100033   606A      1.102744  
     607A      1.102836   608A      1.106198   609A      1.106278  
     610A      1.108271   611A      1.108338   612A      1.108462  
     613A      1.110605   614A      1.112081   615A      1.113390  
     616A      1.116328   617A      1.116399   618A      1.122381  
     619A      1.125186   620A      1.128337   621A      1.128695  
     622A      1.133719   623A      1.133749   624A      1.142480  
     625A      1.142569   626A      1.145124   627A      1.146836  
     628A      1.150770   629A      1.150966   630A      1.152815  
     631A      1.154621   632A      1.154646   633A      1.160278  
     634A      1.160294   635A      1.165127   636A      1.166822  
     637A      1.166855   638A      1.170351   639A      1.170486  
     640A      1.178063   641A      1.178112   642A      1.187917  
     643A      1.188624   644A      1.188822   645A      1.188917  
     646A      1.190611   647A      1.190733   648A      1.199750  
     649A      1.201878   650A      1.202051   651A      1.205291  
     652A      1.207293   653A      1.207333   654A      1.210040  
     655A      1.211409   656A      1.217374   657A      1.226531  
     658A      1.238704   659A      1.241798   660A      1.242738  
     661A      1.243046   662A      1.246197   663A      1.249981  
     664A      1.250027   665A      1.258544   666A      1.258624  
     667A      1.263426   668A      1.263532   669A      1.273531  
     670A      1.280325   671A      1.280379   672A      1.283782  
     673A      1.285331   674A      1.285366   675A      1.298754  
     676A      1.298986   677A      1.299195   678A      1.319422  
     679A      1.319499   680A      1.323827   681A      1.323951  
     682A      1.325707   683A      1.325847   684A      1.327740  
     685A      1.327832   686A      1.335824   687A      1.338474  
     688A      1.347402   689A      1.347505   690A      1.350705  
     691A      1.356104   692A      1.356288   693A      1.359625  
     694A      1.360592   695A      1.366680   696A      1.366704  
     697A      1.371048   698A      1.372246   699A      1.372307  
     700A      1.374171   701A      1.381587   702A      1.381610  
     703A      1.384343   704A      1.386975   705A      1.387009  
     706A      1.393090   707A      1.393189   708A      1.402990  
     709A      1.403237   710A      1.409352   711A      1.409418  
     712A      1.415832   713A      1.418697   714A      1.418724  
     715A      1.422258   716A      1.422293   717A      1.423807  
     718A      1.424861   719A      1.424954   720A      1.434645  
     721A      1.434731   722A      1.440878   723A      1.454294  
     724A      1.462485   725A      1.466696   726A      1.466723  
     727A      1.472465   728A      1.472504   729A      1.474476  
     730A      1.474540   731A      1.483403   732A      1.483968  
     733A      1.491328   734A      1.491362   735A      1.493946  
     736A      1.496405   737A      1.498366   738A      1.498387  
     739A      1.502234   740A      1.502399   741A      1.502523  
     742A      1.511147   743A      1.511197   744A      1.511888  
     745A      1.513232   746A      1.529437   747A      1.529461  
     748A      1.539760   749A      1.539930   750A      1.579032  
     751A      1.579084   752A      1.585095   753A      1.585126  
     754A      1.592392   755A      1.616075   756A      1.638559  
     757A      1.644425   758A      1.644482   759A      1.651399  
     760A      1.663698   761A      1.664246   762A      1.665980  
     763A      1.673166   764A      1.673699   765A      1.673715  
     766A      1.679165   767A      1.679349   768A      1.684784  
     769A      1.686766   770A      1.686864   771A      1.696680  
     772A      1.696988   773A      1.703703   774A      1.703721  
     775A      1.707633   776A      1.707969   777A      1.708068  
     778A      1.708636   779A      1.715584   780A      1.724219  
     781A      1.724239   782A      1.730374   783A      1.739026  
     784A      1.739087   785A      1.740935   786A      1.741312  
     787A      1.741437   788A      1.745632   789A      1.750353  
     790A      1.750403   791A      1.758763   792A      1.760431  
     793A      1.761534   794A      1.761577   795A      1.765344  
     796A      1.769641   797A      1.769717   798A      1.778108  
     799A      1.778130   800A      1.804846   801A      1.815325  
     802A      1.821632   803A      1.821680   804A      1.821700  
     805A      1.824438   806A      1.839574   807A      1.839592  
     808A      1.854328   809A      1.854347   810A      1.878571  
     811A      1.878587   812A      1.878622   813A      1.882787  
     814A      1.888719   815A      1.888817   816A      1.893967  
     817A      1.894010   818A      1.899661   819A      1.906232  
     820A      1.906987   821A      1.922430   822A      1.922481  
     823A      1.924330   824A      1.924409   825A      1.926239  
     826A      1.931825   827A      1.935452   828A      1.943855  
     829A      1.943892   830A      1.955192   831A      1.955253  
     832A      1.959504   833A      1.959592   834A      1.960763  
     835A      1.964327   836A      1.964433   837A      1.972329  
     838A      1.972504   839A      1.977140   840A      1.977427  
     841A      1.980864   842A      1.981016   843A      1.982518  
     844A      1.985255   845A      1.985342   846A      2.000686  
     847A      2.003918   848A      2.004049   849A      2.004801  
     850A      2.005254   851A      2.005375   852A      2.007544  
     853A      2.007627   854A      2.018602   855A      2.018696  
     856A      2.019067   857A      2.019097   858A      2.020994  
     859A      2.032534   860A      2.040366   861A      2.047956  
     862A      2.047982   863A      2.051910   864A      2.054464  
     865A      2.054522   866A      2.054598   867A      2.059916  
     868A      2.061301   869A      2.061325   870A      2.067621  
     871A      2.069757   872A      2.075137   873A      2.075304  
     874A      2.091665   875A      2.092693   876A      2.093609  
     877A      2.094044   878A      2.094219   879A      2.094468  
     880A      2.096402   881A      2.111513   882A      2.114651  
     883A      2.114927   884A      2.120452   885A      2.121170  
     886A      2.122866   887A      2.122930   888A      2.127755  
     889A      2.132543   890A      2.135310   891A      2.135712  
     892A      2.136180   893A      2.141244   894A      2.141281  
     895A      2.145875   896A      2.146350   897A      2.146455  
     898A      2.155895   899A      2.156168   900A      2.158874  
     901A      2.159688   902A      2.162939   903A      2.163007  
     904A      2.165055   905A      2.165283   906A      2.170815  
     907A      2.171143   908A      2.171192   909A      2.172272  
     910A      2.175226   911A      2.175500   912A      2.178964  
     913A      2.181857   914A      2.181931   915A      2.184689  
     916A      2.184770   917A      2.190214   918A      2.190414  
     919A      2.191999   920A      2.197288   921A      2.197961  
     922A      2.198025   923A      2.198324   924A      2.205422  
     925A      2.205444   926A      2.218660   927A      2.224406  
     928A      2.224427   929A      2.226270   930A      2.226336  
     931A      2.235829   932A      2.241347   933A      2.241428  
     934A      2.251683   935A      2.252039   936A      2.254613  
     937A      2.256128   938A      2.260960   939A      2.261059  
     940A      2.264311   941A      2.282430   942A      2.284608  
     943A      2.284655   944A      2.289769   945A      2.293051  
     946A      2.293374   947A      2.294670   948A      2.303634  
     949A      2.303943   950A      2.305547   951A      2.305931  
     952A      2.308298   953A      2.321249   954A      2.321363  
     955A      2.332563   956A      2.332574   957A      2.333721  
     958A      2.333767   959A      2.341541   960A      2.362063  
     961A      2.368749   962A      2.374175   963A      2.375928  
     964A      2.385137   965A      2.386363   966A      2.394962  
     967A      2.395914   968A      2.396008   969A      2.398285  
     970A      2.414392   971A      2.414904   972A      2.415453  
     973A      2.415721   974A      2.430165   975A      2.430258  
     976A      2.439827   977A      2.442376   978A      2.477657  
     979A      2.487018   980A      2.487182   981A      2.487220  
     982A      2.498404   983A      2.504771   984A      2.504812  
     985A      2.533247   986A      2.535217   987A      2.535364  
     988A      2.547930   989A      2.547933   990A      2.565131  
     991A      2.581334   992A      2.592553   993A      2.593219  
     994A      2.606399   995A      2.607726   996A      2.607769  
     997A      2.615351   998A      2.615420   999A      2.619168  
    1000A      2.622531  1001A      2.622538  1002A      2.635600  
    1003A      2.636010  1004A      2.636052  1005A      2.636169  
    1006A      2.648307  1007A      2.648456  1008A      2.650736  
    1009A      2.652071  1010A      2.652545  1011A      2.668446  
    1012A      2.685441  1013A      2.685490  1014A      2.689511  
    1015A      2.694982  1016A      2.695507  1017A      2.702899  
    1018A      2.702964  1019A      2.712230  1020A      2.712574  
    1021A      2.718872  1022A      2.745765  1023A      2.746164  
    1024A      2.746947  1025A      2.747821  1026A      2.766757  
    1027A      2.767094  1028A      2.776697  1029A      2.776705  
    1030A      2.782045  1031A      2.782062  1032A      2.785804  
    1033A      2.786033  1034A      2.802551  1035A      2.814364  
    1036A      2.814761  1037A      2.841581  1038A      2.858478  
    1039A      2.858636  1040A      2.879485  1041A      2.891073  
    1042A      2.891186  1043A      2.913585  1044A      2.913731  
    1045A      2.920935  1046A      2.923015  1047A      2.923086  
    1048A      2.923335  1049A      2.930802  1050A      2.971266  
    1051A      2.972389  1052A      2.972436  1053A      2.978813  
    1054A      2.978833  1055A      2.987943  1056A      2.995646  
    1057A      2.995709  1058A      3.012401  1059A      3.012420  
    1060A      3.024887  1061A      3.071816  1062A      3.071904  
    1063A      3.072789  1064A      3.091001  1065A      3.128334  
    1066A      3.128377  1067A      3.133962  1068A      3.134073  
    1069A      3.171763  1070A      3.172554  1071A      3.189639  
    1072A      3.192180  1073A      3.192434  1074A      3.199552  
    1075A      3.208775  1076A      3.208819  1077A      3.209219  
    1078A      3.211211  1079A      3.211225  1080A      3.220131  
    1081A      3.220494  1082A      3.228176  1083A      3.228591  
    1084A      3.253067  1085A      3.272399  1086A      3.276035  
    1087A      3.284610  1088A      3.300083  1089A      3.338028  
    1090A      3.339960  1091A      3.340123  1092A      3.345291  
    1093A      3.345458  1094A      3.480362  1095A      3.480820  
    1096A      3.511248  1097A      3.545967  1098A      3.548615  
    1099A      3.614459  1100A      3.642350  1101A      3.644324  
    1102A      3.658609  1103A      3.689768  1104A      3.691752  
    1105A      3.726108  1106A      3.731936  1107A      3.832833  
    1108A      3.847217  1109A      3.848189  1110A      3.933060  
    1111A      3.933068  1112A      3.975962  1113A      3.976075  
    1114A      4.041010  1115A      4.075067  1116A      4.100024  
    1117A      4.111863  1118A      4.148189  1119A      4.174912  
    1120A      4.175501  1121A      4.175561  1122A      4.203204  
    1123A      4.203288  1124A      4.203392  1125A      4.203422  
    1126A      4.203528  1127A      4.237125  1128A      4.238044  
    1129A      4.238067  1130A      4.449971  1131A      4.450336  
    1132A      4.451136  1133A      4.651890  1134A      4.651969  
    1135A      4.654230  1136A      4.751953  1137A      4.787559  
    1138A      4.787869  

    Final Occupation by Irrep:
              A 
    DOCC [   192 ]
    NA   [   192 ]
    NB   [   192 ]

  @DF-RHF Final Energy: -2478.65784518189184

   => Energetics <=

    Nuclear Repulsion Energy =           7591.1469027364937574
    One-Electron Energy =              -18535.3550973243909539
    Two-Electron Energy =                8465.5503494060048979
    Total Energy =                      -2478.6578451818913891

Computation Completed


Properties will be evaluated at   0.000000,   0.000000,   0.000000 [a0]

Properties computed using the SCF density matrix


 Multipole Moments:

 ------------------------------------------------------------------------------------
     Multipole            Electronic (a.u.)      Nuclear  (a.u.)        Total (a.u.)
 ------------------------------------------------------------------------------------

 L = 1.  Multiply by 2.5417464519 to convert [e a0] to [Debye]
 Dipole X            :         -0.0005510            0.0000481           -0.0005029
 Dipole Y            :          0.0010601           -0.0001453            0.0009148
 Dipole Z            :         28.5158915          -38.0079123           -9.4920209
 Magnitude           :                                                    9.4920209

 ------------------------------------------------------------------------------------

*** tstop() called on d-16-9-3 at Sat Jan 20 23:30:19 2024
Module time:
	user time   =    3177.24 seconds =      52.95 minutes
	system time =      62.94 seconds =       1.05 minutes
	total time  =        342 seconds =       5.70 minutes
Total time:
	user time   =    3177.24 seconds =      52.95 minutes
	system time =      62.94 seconds =       1.05 minutes
	total time  =        342 seconds =       5.70 minutes

  //>>>>>>>>>>>>>>>>>>>>>>>>>>>>>>>>>>>//
  //            Monomer A HF           //
  //<<<<<<<<<<<<<<<<<<<<<<<<<<<<<<<<<<<//

   => Libint2 <=

    Primary   basis highest AM E, G, H:  7, 7, 4
    Auxiliary basis highest AM E, G, H:  7, 7, 5
    Onebody   basis highest AM E, G, H:  7, 7, 5
    Solid Harmonics ordering:            gaussian

*** tstart() called on d-16-9-3
*** at Sat Jan 20 23:30:19 2024

   => Loading Basis Set <=

    Name: JUN-CC-PVDZ
    Role: ORBITAL
    Keyword: BASIS
    atoms 1     entry B          line   130 file /home/gridsan/tfroembgen/.conda/envs/psi4test/share/psi4/basis/jun-cc-pvdz.gbs 
    atoms 2-5   entry F          line   266 file /home/gridsan/tfroembgen/.conda/envs/psi4test/share/psi4/basis/jun-cc-pvdz.gbs 
    atoms 6-59  entry C          line   164 file /home/gridsan/tfroembgen/.conda/envs/psi4test/share/psi4/basis/jun-cc-pvdz.gbs 
    atoms 60-77 entry H          line    36 file /home/gridsan/tfroembgen/.conda/envs/psi4test/share/psi4/basis/jun-cc-pvdz.gbs 


         ---------------------------------------------------------
                                   SCF
               by Justin Turney, Rob Parrish, Andy Simmonett
                          and Daniel G. A. Smith
                              RHF Reference
                       12 Threads,  30517 MiB Core
         ---------------------------------------------------------

  ==> Geometry <==

    Molecular point group: c1
    Full point group: C1

    Geometry (in Angstrom), charge = -1, multiplicity = 1:

       Center              X                  Y                   Z               Mass       
    ------------   -----------------  -----------------  -----------------  -----------------
         B           -0.000198161052     0.000273808717     5.483814270362    11.009305360000
         F           -0.000000401852    -0.000000464183     6.896599270362    18.998403162730
         F            1.147859598148     0.675780735817     5.012673270362    18.998403162730
         F            0.011917658148    -1.332011464183     5.012875270362    18.998403162730
         F           -1.159666401852     0.656073035817     5.012954270362    18.998403162730
      Gh(C)           1.225311973413     0.707538196736    -0.710082102355    12.000000000000
      Gh(C)           1.225323934041    -0.707538986754    -0.722412911925    12.000000000000
      Gh(C)          -0.000006075942     1.414965821907    -0.722946535446    12.000000000000
      Gh(C)           2.456448831939     1.418327794995    -0.707195244955    12.000000000000
      Gh(C)           0.000010905269    -1.414976590818    -0.712746978121    12.000000000000
      Gh(C)          -1.225300870919     0.707545281801    -0.707830582032    12.000000000000
      Gh(C)           2.456437833310    -1.418323396064    -0.724658068782    12.000000000000
      Gh(C)          -0.000001254988     2.836800939098    -0.725350085580    12.000000000000
      Gh(C)           3.681826775460     0.709317863818    -0.724309278984    12.000000000000
      Gh(C)           2.455120126855     2.834223569306    -0.724411835945    12.000000000000
      Gh(C)           3.681821183209    -0.709333931612    -0.708236794966    12.000000000000
      Gh(C)          -1.225313520698    -0.707527607727    -0.721340150498    12.000000000000
      Gh(C)           1.226699659192     3.543469391811    -0.708052763035    12.000000000000
      Gh(C)           0.000004862847    -2.836782231419    -0.707898810500    12.000000000000
      Gh(C)          -2.456435954859     1.418316826102    -0.707795186186    12.000000000000
      Gh(C)           2.455123495769    -2.834230120772    -0.708388703333    12.000000000000
      Gh(C)          -1.226714286599     3.543468971567    -0.707949429816    12.000000000000
      Gh(C)           4.914517373191     1.427172780306    -0.717828595954    12.000000000000
      Gh(C)           3.693150269466     3.542795200362    -0.717778796318    12.000000000000
      Gh(C)          -2.456437522078    -1.418313373022    -0.724683106907    12.000000000000
      Gh(C)           1.226704919933    -3.543474334090    -0.724022893785    12.000000000000
      Gh(C)          -2.455125320518     2.834216570451    -0.724405459598    12.000000000000
      Gh(C)           4.914524458772    -1.427187002127    -0.714855853220    12.000000000000
      Gh(C)           1.221424691688     4.970133973077    -0.714717418960    12.000000000000
      Gh(C)           4.893008307311     2.825187907843    -0.716611927596    12.000000000000
      Gh(C)          -1.226696930499    -3.543471089260    -0.723755689375    12.000000000000
      Gh(C)          -3.681818898536     0.709324874549    -0.724296598504    12.000000000000
      Gh(C)           3.693147179140    -3.542801433574    -0.714737962659    12.000000000000
      Gh(C)          -1.221432174004     4.970128205680    -0.714533923588    12.000000000000
      Gh(C)           6.134771050916     0.680547854922    -0.717058821405    12.000000000000
      Gh(C)           3.656788958600     4.972953151384    -0.716870158536    12.000000000000
      Gh(C)          -2.455126829744    -2.834215185244    -0.708633061131    12.000000000000
      Gh(C)          -3.681819101071    -0.709325795652    -0.708119173387    12.000000000000
      Gh(C)           4.893012695903    -2.825200197815    -0.716000775700    12.000000000000
      Gh(C)          -0.000000995123     5.650447273849    -0.715765232295    12.000000000000
      Gh(C)           6.134775190322    -0.680554946258    -0.715793500889    12.000000000000
      Gh(C)           2.478131560845     5.653576659148    -0.715581378886    12.000000000000
      Gh(C)           1.221422482727    -4.970127147116    -0.717516915983    12.000000000000
      Gh(C)          -3.693162305975     3.542796862009    -0.717613288859    12.000000000000
      Gh(C)          -1.221428442955    -4.970118395779    -0.717629677816    12.000000000000
      Gh(C)          -4.914521729952     1.427175354812    -0.717751650947    12.000000000000
      Gh(C)           3.656787097669    -4.972955318422    -0.715419658002    12.000000000000
      Gh(C)          -2.478138452116     5.653574330345    -0.715296853877    12.000000000000
      Gh(C)          -3.693141660574    -3.542790311162    -0.714854088815    12.000000000000
      Gh(C)          -4.914512405063    -1.427181092211    -0.714821156046    12.000000000000
      Gh(C)          -0.000005930936    -5.650438379197    -0.716160736416    12.000000000000
      Gh(C)          -4.893020406111     2.825188506736    -0.716622009456    12.000000000000
      Gh(C)           2.478126071288    -5.653573636072    -0.716510258794    12.000000000000
      Gh(C)          -3.656798632268     4.972956089858    -0.716693478161    12.000000000000
      Gh(C)          -4.892999400866    -2.825191859243    -0.716154811398    12.000000000000
      Gh(C)          -2.478128420093    -5.653566262190    -0.716785446441    12.000000000000
      Gh(C)          -6.134770425341     0.680548674073    -0.717084373107    12.000000000000
      Gh(C)          -3.656788755199    -4.972944115154    -0.715633945818    12.000000000000
      Gh(C)          -6.134764964923    -0.680554007665    -0.715813976684    12.000000000000
      Gh(H)           5.835288573806     3.369275802771    -0.712252601933     1.007825032230
      Gh(H)           7.073859250737     1.228217156716    -0.716597178011     1.007825032230
      Gh(H)           4.600663342164     5.512380710270    -0.716364957784     1.007825032230
      Gh(H)           5.835283465295    -3.369306148912    -0.720455243015     1.007825032230
      Gh(H)          -0.000012073316     6.738530581953    -0.720114477302     1.007825032230
      Gh(H)           7.073861249820    -1.228227034927    -0.716302238983     1.007825032230
      Gh(H)           2.473313809789     6.740684199211    -0.716048099816     1.007825032230
      Gh(H)           4.600668569371    -5.512376221359    -0.715829655170     1.007825032230
      Gh(H)          -2.473318602548     6.740681627423    -0.715746753191     1.007825032230
      Gh(H)          -0.000010190238    -6.738528268635    -0.711631051431     1.007825032230
      Gh(H)          -5.835301836354     3.369270858113    -0.712116579785     1.007825032230
      Gh(H)           2.473308001821    -6.740685466612    -0.715939928369     1.007825032230
      Gh(H)          -4.600674763218     5.512377934420    -0.716199629460     1.007825032230
      Gh(H)          -5.835279428845    -3.369289055963    -0.720734548896     1.007825032230
      Gh(H)          -2.473300269450    -6.740679170323    -0.716389244913     1.007825032230
      Gh(H)          -7.073857688778     1.228220380657    -0.716681169492     1.007825032230
      Gh(H)          -4.600673708095    -5.512362761970    -0.716001963193     1.007825032230
      Gh(H)          -7.073856856419    -1.228220724160    -0.716397095450     1.007825032230

  Running in c1 symmetry.

  Rotational constants: A =      0.00158  B =      0.00158  C =      0.00110 [cm^-1]
  Rotational constants: A =     47.40854  B =     47.40334  C =     33.02251 [MHz]
  Nuclear repulsion =  178.879455044809106

  Charge       = -1
  Multiplicity = 1
  Electrons    = 42
  Nalpha       = 21
  Nbeta        = 21

  ==> Algorithm <==

  SCF Algorithm Type is DF.
  DIIS enabled.
  MOM disabled.
  Fractional occupation disabled.
  Guess Type is SAD.
  Energy threshold   = 1.00e-08
  Density threshold  = 1.00e-08
  Integral threshold = 1.00e-12

  ==> Primary Basis <==

  Basis Set: JUN-CC-PVDZ
    Blend: JUN-CC-PVDZ
    Number of shells: 526
    Number of basis functions: 1152
    Number of Cartesian functions: 1211
    Spherical Harmonics?: true
    Max angular momentum: 2

   => Loading Basis Set <=

    Name: (JUN-CC-PVDZ AUX)
    Role: JKFIT
    Keyword: DF_BASIS_SCF
    atoms 1     entry B          line    90 file /home/gridsan/tfroembgen/.conda/envs/psi4test/share/psi4/basis/jun-cc-pvdz-jkfit.gbs 
    atoms 2-5   entry F          line   314 file /home/gridsan/tfroembgen/.conda/envs/psi4test/share/psi4/basis/jun-cc-pvdz-jkfit.gbs 
    atoms 6-59  entry C          line   146 file /home/gridsan/tfroembgen/.conda/envs/psi4test/share/psi4/basis/jun-cc-pvdz-jkfit.gbs 
    atoms 60-77 entry H          line    70 file /home/gridsan/tfroembgen/.conda/envs/psi4test/share/psi4/basis/jun-cc-pvdz-jkfit.gbs 

  ==> Integral Setup <==

  ==> DiskDFJK: Density-Fitted J/K Matrices <==

    J tasked:                  Yes
    K tasked:                  Yes
    wK tasked:                  No
    OpenMP threads:             12
    Integrals threads:          12
    Memory [MiB]:            22888
    Algorithm:                Core
    Integral Cache:           LOAD
    Schwarz Cutoff:          1E-12
    Fitting Condition:       1E-10

   => Auxiliary Basis Set <=

  Basis Set: (JUN-CC-PVDZ AUX)
    Blend: JUN-CC-PVDZ-JKFIT
    Number of shells: 1755
    Number of basis functions: 5075
    Number of Cartesian functions: 5819
    Spherical Harmonics?: true
    Max angular momentum: 3

  Minimum eigenvalue in the overlap matrix is 8.3864799910E-10.
  Reciprocal condition number of the overlap matrix is 3.7388913141E-11.
    Using canonical orthogonalization.
  Overall, 14 of 1152 possible MOs eliminated.


  ==> Pre-Iterations <==

  SCF Guess: Superposition of Atomic Densities via on-the-fly atomic UHF (no occupation information).

   -------------------------
    Irrep   Nso     Nmo    
   -------------------------
     A       1152    1138 
   -------------------------
    Total    1152    1138
   -------------------------

  ==> Iterations <==

                           Total Energy        Delta E     RMS |[F,P]|

   @DF-RHF iter SAD:  -421.23044338198110   -4.21230e+02   0.00000e+00 
   @DF-RHF iter   1:  -422.64979436055654   -1.41935e+00   5.29871e-04 ADIIS/DIIS
   @DF-RHF iter   2:  -422.73259188553851   -8.27975e-02   3.23004e-04 ADIIS/DIIS
   @DF-RHF iter   3:  -422.77116609804858   -3.85742e-02   1.73928e-05 DIIS
   @DF-RHF iter   4:  -422.77152666369813   -3.60566e-04   2.75303e-06 DIIS
   @DF-RHF iter   5:  -422.77153530965262   -8.64595e-06   7.02854e-07 DIIS
   @DF-RHF iter   6:  -422.77153586899340   -5.59341e-07   1.45004e-07 DIIS
   @DF-RHF iter   7:  -422.77153589001750   -2.10241e-08   1.56148e-08 DIIS
   @DF-RHF iter   8:  -422.77153589023607   -2.18563e-10   6.38180e-09 DIIS
  Energy and wave function converged.


  ==> Post-Iterations <==

    Orbital Energies [Eh]
    ---------------------

    Doubly Occupied:                                                      

       1A    -26.067088     2A    -26.067020     3A    -26.066991  
       4A    -26.066907     5A     -7.539252     6A     -1.410944  
       7A     -1.351237     8A     -1.351186     9A     -1.351051  
      10A     -0.602222    11A     -0.528431    12A     -0.528401  
      13A     -0.528343    14A     -0.447289    15A     -0.447247  
      16A     -0.408454    17A     -0.408419    18A     -0.408359  
      19A     -0.384978    20A     -0.384934    21A     -0.384889  

    Virtual:                                                              

      22A      0.081241    23A      0.082836    24A      0.082839  
      25A      0.090662    26A      0.090666    27A      0.102417  
      28A      0.103297    29A      0.105162    30A      0.119278  
      31A      0.119280    32A      0.121273    33A      0.121277  
      34A      0.131520    35A      0.136950    36A      0.136964  
      37A      0.137938    38A      0.137949    39A      0.138629  
      40A      0.138648    41A      0.146813    42A      0.149966  
      43A      0.149972    44A      0.158405    45A      0.159133  
      46A      0.159875    47A      0.164178    48A      0.168935  
      49A      0.170475    50A      0.171916    51A      0.171922  
      52A      0.172377    53A      0.179156    54A      0.179171  
      55A      0.180948    56A      0.180953    57A      0.186571  
      58A      0.186604    59A      0.188924    60A      0.188941  
      61A      0.189632    62A      0.192286    63A      0.192289  
      64A      0.195699    65A      0.195709    66A      0.195849  
      67A      0.202059    68A      0.202075    69A      0.206449  
      70A      0.206452    71A      0.210805    72A      0.210813  
      73A      0.211129    74A      0.212298    75A      0.215660  
      76A      0.215670    77A      0.216601    78A      0.218716  
      79A      0.218728    80A      0.220566    81A      0.225170  
      82A      0.225174    83A      0.227768    84A      0.233166  
      85A      0.237567    86A      0.237568    87A      0.238036  
      88A      0.238049    89A      0.240283    90A      0.242550  
      91A      0.242589    92A      0.251483    93A      0.251492  
      94A      0.251678    95A      0.253152    96A      0.253296  
      97A      0.255584    98A      0.256083    99A      0.262146  
     100A      0.262147   101A      0.265698   102A      0.265717  
     103A      0.268898   104A      0.268911   105A      0.272505  
     106A      0.272507   107A      0.272643   108A      0.276801  
     109A      0.276819   110A      0.281610   111A      0.281614  
     112A      0.282313   113A      0.287558   114A      0.288734  
     115A      0.288743   116A      0.291829   117A      0.294223  
     118A      0.294250   119A      0.295387   120A      0.295398  
     121A      0.299932   122A      0.306286   123A      0.306891  
     124A      0.311610   125A      0.311625   126A      0.313477  
     127A      0.315112   128A      0.315117   129A      0.320746  
     130A      0.320759   131A      0.322122   132A      0.322124  
     133A      0.325079   134A      0.325114   135A      0.329471  
     136A      0.336483   137A      0.336491   138A      0.340431  
     139A      0.341378   140A      0.342131   141A      0.342155  
     142A      0.345141   143A      0.345796   144A      0.345802  
     145A      0.346102   146A      0.346107   147A      0.353808  
     148A      0.355153   149A      0.357906   150A      0.363251  
     151A      0.363281   152A      0.364832   153A      0.368864  
     154A      0.368885   155A      0.375381   156A      0.383530  
     157A      0.383544   158A      0.384184   159A      0.384384  
     160A      0.384413   161A      0.390059   162A      0.390118  
     163A      0.390269   164A      0.393870   165A      0.394220  
     166A      0.394225   167A      0.401237   168A      0.402742  
     169A      0.402824   170A      0.405222   171A      0.406436  
     172A      0.406518   173A      0.416349   174A      0.418042  
     175A      0.418065   176A      0.423504   177A      0.423713  
     178A      0.424474   179A      0.428610   180A      0.429753  
     181A      0.429764   182A      0.429930   183A      0.430385  
     184A      0.434060   185A      0.434387   186A      0.435265  
     187A      0.437181   188A      0.437249   189A      0.439131  
     190A      0.444150   191A      0.444947   192A      0.445012  
     193A      0.445997   194A      0.446488   195A      0.449481  
     196A      0.449528   197A      0.454110   198A      0.454159  
     199A      0.455673   200A      0.464278   201A      0.464355  
     202A      0.466761   203A      0.466801   204A      0.472532  
     205A      0.476468   206A      0.476550   207A      0.479669  
     208A      0.481213   209A      0.483577   210A      0.483608  
     211A      0.491128   212A      0.491323   213A      0.494134  
     214A      0.494139   215A      0.496098   216A      0.496137  
     217A      0.496680   218A      0.502320   219A      0.502608  
     220A      0.502705   221A      0.505278   222A      0.505320  
     223A      0.508595   224A      0.509756   225A      0.509951  
     226A      0.510944   227A      0.510986   228A      0.513085  
     229A      0.514106   230A      0.518503   231A      0.518699  
     232A      0.521860   233A      0.522791   234A      0.523047  
     235A      0.532044   236A      0.532652   237A      0.532699  
     238A      0.536827   239A      0.536873   240A      0.539828  
     241A      0.546299   242A      0.546340   243A      0.547048  
     244A      0.547110   245A      0.547839   246A      0.550342  
     247A      0.552337   248A      0.552344   249A      0.559049  
     250A      0.561368   251A      0.561392   252A      0.563688  
     253A      0.563847   254A      0.566851   255A      0.567602  
     256A      0.568862   257A      0.569180   258A      0.574246  
     259A      0.580318   260A      0.580348   261A      0.583648  
     262A      0.589163   263A      0.589183   264A      0.591019  
     265A      0.591333   266A      0.591897   267A      0.591968  
     268A      0.594047   269A      0.595234   270A      0.595274  
     271A      0.597515   272A      0.606226   273A      0.610828  
     274A      0.611982   275A      0.612011   276A      0.615152  
     277A      0.619529   278A      0.619664   279A      0.625749  
     280A      0.630542   281A      0.630544   282A      0.631166  
     283A      0.634298   284A      0.634336   285A      0.638682  
     286A      0.638752   287A      0.642787   288A      0.643694  
     289A      0.645416   290A      0.645429   291A      0.650325  
     292A      0.655506   293A      0.655541   294A      0.657367  
     295A      0.661721   296A      0.661735   297A      0.662398  
     298A      0.674620   299A      0.674675   300A      0.675549  
     301A      0.675590   302A      0.677976   303A      0.678387  
     304A      0.678395   305A      0.684081   306A      0.684085  
     307A      0.687090   308A      0.687121   309A      0.691200  
     310A      0.700973   311A      0.701225   312A      0.703898  
     313A      0.708980   314A      0.710162   315A      0.710167  
     316A      0.711211   317A      0.711240   318A      0.712613  
     319A      0.715433   320A      0.715505   321A      0.716370  
     322A      0.725788   323A      0.732339   324A      0.737011  
     325A      0.741403   326A      0.743343   327A      0.743357  
     328A      0.744225   329A      0.746080   330A      0.746085  
     331A      0.753577   332A      0.757802   333A      0.757806  
     334A      0.762410   335A      0.762858   336A      0.762867  
     337A      0.766043   338A      0.775189   339A      0.775227  
     340A      0.781036   341A      0.781081   342A      0.783024  
     343A      0.783063   344A      0.789250   345A      0.791575  
     346A      0.791815   347A      0.793936   348A      0.793947  
     349A      0.796760   350A      0.807149   351A      0.808643  
     352A      0.808695   353A      0.812331   354A      0.812643  
     355A      0.823919   356A      0.823926   357A      0.824240  
     358A      0.829712   359A      0.836008   360A      0.836027  
     361A      0.840061   362A      0.840134   363A      0.840229  
     364A      0.840456   365A      0.845753   366A      0.847718  
     367A      0.847902   368A      0.851365   369A      0.851398  
     370A      0.855544   371A      0.860006   372A      0.861553  
     373A      0.861934   374A      0.861948   375A      0.866167  
     376A      0.866251   377A      0.868358   378A      0.868406  
     379A      0.870603   380A      0.873286   381A      0.881359  
     382A      0.900464   383A      0.900468   384A      0.913008  
     385A      0.913031   386A      0.935434   387A      0.935594  
     388A      0.941512   389A      0.941525   390A      0.941642  
     391A      0.945653   392A      0.947435   393A      0.947461  
     394A      0.956077   395A      0.956124   396A      0.962281  
     397A      0.963376   398A      0.963410   399A      0.968258  
     400A      0.968380   401A      0.999536   402A      0.999553  
     403A      1.000460   404A      1.014571   405A      1.023293  
     406A      1.023318   407A      1.033857   408A      1.033900  
     409A      1.041744   410A      1.048517   411A      1.056914  
     412A      1.056929   413A      1.075029   414A      1.077321  
     415A      1.100639   416A      1.100695   417A      1.120825  
     418A      1.120884   419A      1.125807   420A      1.127433  
     421A      1.127447   422A      1.137774   423A      1.137813  
     424A      1.162247   425A      1.164680   426A      1.164698  
     427A      1.172522   428A      1.225431   429A      1.225500  
     430A      1.229469   431A      1.229617   432A      1.233607  
     433A      1.243743   434A      1.245787   435A      1.245793  
     436A      1.264824   437A      1.264873   438A      1.283275  
     439A      1.287146   440A      1.287153   441A      1.293038  
     442A      1.301061   443A      1.345856   444A      1.345974  
     445A      1.358676   446A      1.365567   447A      1.365621  
     448A      1.373493   449A      1.374206   450A      1.374253  
     451A      1.387920   452A      1.388015   453A      1.389784  
     454A      1.397214   455A      1.400157   456A      1.428321  
     457A      1.440097   458A      1.440141   459A      1.486926  
     460A      1.515060   461A      1.515601   462A      1.532899  
     463A      1.532922   464A      1.538682   465A      1.539871  
     466A      1.539971   467A      1.542918   468A      1.553055  
     469A      1.553932   470A      1.617908   471A      1.625563  
     472A      1.625695   473A      1.629156   474A      1.630414  
     475A      1.637142   476A      1.639186   477A      1.639258  
     478A      1.646271   479A      1.696757   480A      1.707636  
     481A      1.709823   482A      1.720902   483A      1.723644  
     484A      1.731031   485A      1.738130   486A      1.738252  
     487A      1.756733   488A      1.757251   489A      1.758391  
     490A      1.759578   491A      1.774026   492A      1.810571  
     493A      1.812143   494A      1.812215   495A      1.813323  
     496A      1.815044   497A      1.820282   498A      1.824550  
     499A      1.824861   500A      1.829596   501A      1.838192  
     502A      1.838266   503A      1.846862   504A      1.858428  
     505A      1.859767   506A      1.865803   507A      1.866182  
     508A      1.874125   509A      1.883146   510A      1.894746  
     511A      1.895175   512A      1.896925   513A      1.897030  
     514A      1.897428   515A      1.897949   516A      1.900377  
     517A      1.901213   518A      1.902923   519A      1.908564  
     520A      1.908626   521A      1.913918   522A      1.914120  
     523A      1.918880   524A      1.926924   525A      1.927623  
     526A      1.941914   527A      1.942004   528A      1.943739  
     529A      1.947612   530A      1.951135   531A      1.953753  
     532A      1.954090   533A      1.959118   534A      1.959434  
     535A      1.966248   536A      1.966317   537A      1.975831  
     538A      1.976062   539A      1.976622   540A      1.978884  
     541A      1.979078   542A      1.979990   543A      1.987722  
     544A      1.988111   545A      1.996260   546A      1.996934  
     547A      2.000186   548A      2.003163   549A      2.003363  
     550A      2.004677   551A      2.004996   552A      2.005993  
     553A      2.009445   554A      2.021519   555A      2.021634  
     556A      2.038043   557A      2.039187   558A      2.039528  
     559A      2.041227   560A      2.043651   561A      2.043850  
     562A      2.050626   563A      2.050737   564A      2.050951  
     565A      2.056146   566A      2.056209   567A      2.062397  
     568A      2.064678   569A      2.066764   570A      2.066781  
     571A      2.070093   572A      2.070219   573A      2.070691  
     574A      2.075260   575A      2.090060   576A      2.090104  
     577A      2.098265   578A      2.098512   579A      2.126037  
     580A      2.135765   581A      2.135796   582A      2.140880  
     583A      2.145841   584A      2.146015   585A      2.147563  
     586A      2.148342   587A      2.155311   588A      2.155509  
     589A      2.162801   590A      2.163021   591A      2.166422  
     592A      2.167456   593A      2.171539   594A      2.183370  
     595A      2.183442   596A      2.188072   597A      2.190445  
     598A      2.195364   599A      2.197521   600A      2.197573  
     601A      2.207301   602A      2.207337   603A      2.207547  
     604A      2.208750   605A      2.208767   606A      2.216267  
     607A      2.216321   608A      2.216832   609A      2.217777  
     610A      2.218084   611A      2.218130   612A      2.220321  
     613A      2.223148   614A      2.223200   615A      2.228604  
     616A      2.228613   617A      2.230312   618A      2.232411  
     619A      2.232425   620A      2.236208   621A      2.238458  
     622A      2.238538   623A      2.239627   624A      2.243779  
     625A      2.244199   626A      2.244375   627A      2.244457  
     628A      2.246612   629A      2.246648   630A      2.248600  
     631A      2.248823   632A      2.252907   633A      2.252912  
     634A      2.252940   635A      2.257031   636A      2.257182  
     637A      2.263639   638A      2.263823   639A      2.265228  
     640A      2.267718   641A      2.267845   642A      2.286543  
     643A      2.286570   644A      2.306228   645A      2.306535  
     646A      2.311962   647A      2.311983   648A      2.316705  
     649A      2.316899   650A      2.319814   651A      2.319831  
     652A      2.321875   653A      2.336450   654A      2.337295  
     655A      2.337412   656A      2.342477   657A      2.342559  
     658A      2.343664   659A      2.354260   660A      2.354286  
     661A      2.360489   662A      2.360512   663A      2.366637  
     664A      2.377861   665A      2.377918   666A      2.385810  
     667A      2.396647   668A      2.396723   669A      2.397543  
     670A      2.397648   671A      2.401887   672A      2.408556  
     673A      2.413744   674A      2.413756   675A      2.417323  
     676A      2.427666   677A      2.428711   678A      2.435969  
     679A      2.436081   680A      2.438460   681A      2.438609  
     682A      2.439333   683A      2.439378   684A      2.441036  
     685A      2.443474   686A      2.447912   687A      2.447978  
     688A      2.448150   689A      2.457149   690A      2.457278  
     691A      2.458858   692A      2.462196   693A      2.465741  
     694A      2.478481   695A      2.478552   696A      2.484937  
     697A      2.485164   698A      2.485479   699A      2.490654  
     700A      2.490689   701A      2.496680   702A      2.496791  
     703A      2.499451   704A      2.505152   705A      2.515394  
     706A      2.516129   707A      2.516139   708A      2.523632  
     709A      2.523910   710A      2.524668   711A      2.524825  
     712A      2.534670   713A      2.537013   714A      2.540125  
     715A      2.540174   716A      2.544487   717A      2.554606  
     718A      2.554652   719A      2.554729   720A      2.570898  
     721A      2.570901   722A      2.573882   723A      2.573919  
     724A      2.583193   725A      2.592741   726A      2.595604  
     727A      2.604152   728A      2.604211   729A      2.611117  
     730A      2.611452   731A      2.617244   732A      2.617360  
     733A      2.617705   734A      2.617746   735A      2.625435  
     736A      2.628890   737A      2.628951   738A      2.633817  
     739A      2.641613   740A      2.648915   741A      2.649079  
     742A      2.652097   743A      2.673824   744A      2.673884  
     745A      2.691355   746A      2.693626   747A      2.693704  
     748A      2.700848   749A      2.700905   750A      2.701151  
     751A      2.701207   752A      2.701979   753A      2.716179  
     754A      2.717961   755A      2.718270   756A      2.721627  
     757A      2.725840   758A      2.726238   759A      2.727579  
     760A      2.727613   761A      2.744810   762A      2.744970  
     763A      2.760777   764A      2.760822   765A      2.769551  
     766A      2.769828   767A      2.776627   768A      2.778980  
     769A      2.780147   770A      2.783259   771A      2.783493  
     772A      2.787871   773A      2.787911   774A      2.793046  
     775A      2.793132   776A      2.812563   777A      2.812714  
     778A      2.814144   779A      2.814595   780A      2.814687  
     781A      2.818627   782A      2.827056   783A      2.827139  
     784A      2.828116   785A      2.837428   786A      2.839160  
[...]
     709A      1.371064   710A      1.380081   711A      1.391611  
     712A      1.403269   713A      1.404848   714A      1.404878  
     715A      1.408529   716A      1.408564   717A      1.412837  
     718A      1.412897   719A      1.420074   720A      1.422934  
     721A      1.428617   722A      1.428644   723A      1.429603  
     724A      1.433689   725A      1.436385   726A      1.436410  
     727A      1.439903   728A      1.440146   729A      1.440249  
     730A      1.443953   731A      1.448786   732A      1.448820  
     733A      1.450523   734A      1.464664   735A      1.464687  
     736A      1.475488   737A      1.475659   738A      1.516537  
     739A      1.516566   740A      1.521445   741A      1.521471  
     742A      1.531741   743A      1.552353   744A      1.576436  
     745A      1.599541   746A      1.599791   747A      1.600327  
     748A      1.608165   749A      1.609070   750A      1.609115  
     751A      1.612862   752A      1.613022   753A      1.613164  
     754A      1.621966   755A      1.622402   756A      1.622540  
     757A      1.631195   758A      1.631507   759A      1.640389  
     760A      1.640405   761A      1.643539   762A      1.643672  
     763A      1.643751   764A      1.644303   765A      1.648931  
     766A      1.648945   767A      1.650866   768A      1.659854  
     769A      1.661302   770A      1.661322   771A      1.667555  
     772A      1.676378   773A      1.676411   774A      1.676792  
     775A      1.676841   776A      1.677045   777A      1.683769  
     778A      1.686731   779A      1.686783   780A      1.696079  
     781A      1.698596   782A      1.699180   783A      1.699225  
     784A      1.701350   785A      1.704802   786A      1.704877  
     787A      1.715839   788A      1.715860   789A      1.741688  
     790A      1.745343   791A      1.745530   792A      1.751434  
     793A      1.760457   794A      1.760477   795A      1.761075  
     796A      1.761874   797A      1.776822   798A      1.776844  
     799A      1.791648   800A      1.791668   801A      1.816737  
     802A      1.816777   803A      1.817394   804A      1.818564  
     805A      1.824685   806A      1.824784   807A      1.831176  
     808A      1.831232   809A      1.836071   810A      1.838222  
     811A      1.842411   812A      1.843109   813A      1.860945  
     814A      1.860994   815A      1.863079   816A      1.863145  
     817A      1.864135   818A      1.869393   819A      1.872665  
     820A      1.880184   821A      1.880237   822A      1.896255  
     823A      1.896347   824A      1.899687   825A      1.902992  
     826A      1.903115   827A      1.908572   828A      1.908725  
     829A      1.914755   830A      1.915019   831A      1.917712  
     832A      1.917861   833A      1.919245   834A      1.922029  
     835A      1.922114   836A      1.940459   837A      1.941979  
     838A      1.942225   839A      1.942398   840A      1.946678  
     841A      1.946708   842A      1.954506   843A      1.954573  
     844A      1.955362   845A      1.955397   846A      1.958022  
     847A      1.971972   848A      1.983678   849A      1.983729  
     850A      1.990769   851A      1.997119   852A      1.998724  
     853A      1.998735   854A      2.005468   855A      2.008272  
     856A      2.012558   857A      2.012730   858A      2.027866  
     859A      2.029192   860A      2.030316   861A      2.030650  
     862A      2.030844   863A      2.031418   864A      2.031526  
     865A      2.048071   866A      2.052248   867A      2.052603  
     868A      2.057867   869A      2.058375   870A      2.061335  
     871A      2.061720   872A      2.068533   873A      2.071331  
     874A      2.071972   875A      2.072337   876A      2.077244  
     877A      2.077270   878A      2.082947   879A      2.086396  
     880A      2.086453   881A      2.093321   882A      2.095106  
     883A      2.096410   884A      2.096864   885A      2.100614  
     886A      2.100676   887A      2.108294   888A      2.108353  
     889A      2.108446   890A      2.111031   891A      2.111223  
     892A      2.115146   893A      2.115291   894A      2.119498  
     895A      2.119561   896A      2.120961   897A      2.121023  
     898A      2.126810   899A      2.126876   900A      2.134203  
     901A      2.134583   902A      2.135987   903A      2.136056  
     904A      2.143206   905A      2.143227   906A      2.156176  
     907A      2.159944   908A      2.160007   909A      2.163073  
     910A      2.163130   911A      2.171425   912A      2.178628  
     913A      2.178697   914A      2.190545   915A      2.190930  
     916A      2.192506   917A      2.193835   918A      2.195809  
     919A      2.195904   920A      2.199525   921A      2.219676  
     922A      2.220303   923A      2.220335   924A      2.228109  
     925A      2.228502   926A      2.229300   927A      2.229618  
     928A      2.243285   929A      2.243631   930A      2.244078  
     931A      2.244493   932A      2.247271   933A      2.260168  
     934A      2.260278   935A      2.270222   936A      2.270232  
     937A      2.272084   938A      2.272129   939A      2.281054  
     940A      2.300190   941A      2.306676   942A      2.310546  
     943A      2.312422   944A      2.320946   945A      2.322491  
     946A      2.331028   947A      2.331087   948A      2.331140  
     949A      2.334025   950A      2.350787   951A      2.351466  
     952A      2.352504   953A      2.352591   954A      2.366373  
     955A      2.366497   956A      2.374663   957A      2.379753  
     958A      2.415915   959A      2.424010   960A      2.424399  
     961A      2.424423   962A      2.436456   963A      2.441201  
     964A      2.441242   965A      2.469964   966A      2.472931  
     967A      2.473084   968A      2.485541   969A      2.485555  
     970A      2.502303   971A      2.519616   972A      2.529838  
     973A      2.530179   974A      2.544685   975A      2.545839  
     976A      2.545868   977A      2.554452   978A      2.554516  
     979A      2.554815   980A      2.559879   981A      2.559884  
     982A      2.573001   983A      2.573036   984A      2.574665  
     985A      2.575217   986A      2.586173   987A      2.586289  
     988A      2.587376   989A      2.589768   990A      2.591396  
     991A      2.606471   992A      2.623681   993A      2.623732  
     994A      2.626576   995A      2.631468   996A      2.632008  
     997A      2.641273   998A      2.641336   999A      2.650818  
    1000A      2.651173  1001A      2.656855  1002A      2.682197  
    1003A      2.683372  1004A      2.684010  1005A      2.687060  
    1006A      2.702123  1007A      2.702447  1008A      2.713028  
    1009A      2.713035  1010A      2.718733  1011A      2.718754  
    1012A      2.722921  1013A      2.723152  1014A      2.738783  
    1015A      2.752283  1016A      2.752670  1017A      2.777452  
    1018A      2.794738  1019A      2.794897  1020A      2.816233  
    1021A      2.818872  1022A      2.819514  1023A      2.821951  
    1024A      2.827101  1025A      2.827978  1026A      2.852679  
    1027A      2.852844  1028A      2.856045  1029A      2.858329  
    1030A      2.859565  1031A      2.859663  1032A      2.869073  
    1033A      2.917044  1034A      2.917069  1035A      2.924419  
    1036A      2.933609  1037A      2.933671  1038A      2.949698  
    1039A      2.949717  1040A      2.963001  1041A      3.008163  
    1042A      3.008316  1043A      3.011873  1044A      3.029526  
    1045A      3.064213  1046A      3.064257  1047A      3.070638  
    1048A      3.070753  1049A      3.109620  1050A      3.110421  
    1051A      3.128494  1052A      3.129851  1053A      3.130107  
    1054A      3.137456  1055A      3.146573  1056A      3.146616  
    1057A      3.147007  1058A      3.149280  1059A      3.149292  
    1060A      3.158020  1061A      3.158376  1062A      3.166055  
    1063A      3.166481  1064A      3.191738  1065A      3.211141  
    1066A      3.219173  1067A      3.237667  1068A      3.273750  
    1069A      3.276947  1070A      3.277092  1071A      3.282088  
    1072A      3.282255  1073A      3.416325  1074A      3.416796  
    1075A      3.443059  1076A      3.481401  1077A      3.484071  
    1078A      3.549411  1079A      3.577201  1080A      3.579194  
    1081A      3.593848  1082A      3.626594  1083A      3.628569  
    1084A      3.663050  1085A      3.668811  1086A      3.769227  
    1087A      3.782777  1088A      3.783721  1089A      3.870879  
    1090A      3.870888  1091A      3.913223  1092A      3.913338  
    1093A      3.976919  1094A      4.010889  1095A      4.033361  
    1096A      4.045175  1097A      4.081375  1098A      4.202206  
    1099A      4.205823  1100A      4.205992  1101A      4.334129  
    1102A      5.748485  1103A      5.748486  1104A      5.749773  
    1105A      5.753586  1106A      5.753594  1107A      5.759795  
    1108A      5.759797  1109A      5.760134  1110A      5.780148  
    1111A      5.780202  1112A      5.780970  1113A      6.019843  
    1114A      6.020174  1115A      6.021219  1116A      6.193093  
    1117A      6.326632  1118A      6.326961  1119A      6.375117  
    1120A      6.375475  1121A      6.376001  1122A      7.163744  
    1123A      7.163856  1124A      7.224496  1125A      7.224624  
    1126A      7.250497  1127A      7.266869  1128A      7.266920  
    1129A      7.271285  1130A      7.465075  1131A      7.465250  
    1132A      7.466281  1133A      7.609853  1134A     12.597973  
    1135A     42.909834  1136A     42.913849  1137A     42.913882  
    1138A     42.939628  

    Final Occupation by Irrep:
              A 
    DOCC [   171 ]
    NA   [   171 ]
    NB   [   171 ]

  @DF-RHF Final Energy: -2055.89182816265748

   => Energetics <=

    Nuclear Repulsion Energy =           6452.5568002797772351
    One-Electron Energy =              -15636.4317261782089190
    Two-Electron Energy =                7127.9830977357742086
    Total Energy =                      -2055.8918281626574753

Computation Completed


Properties will be evaluated at   0.000000,   0.000000,   0.000000 [a0]

Properties computed using the SCF density matrix


 Multipole Moments:

 ------------------------------------------------------------------------------------
     Multipole            Electronic (a.u.)      Nuclear  (a.u.)        Total (a.u.)
 ------------------------------------------------------------------------------------

 L = 1.  Multiply by 2.5417464519 to convert [e a0] to [Debye]
 Dipole X            :          0.0000485            0.0000419            0.0000904
 Dipole Y            :          0.0000254           -0.0000426           -0.0000171
 Dipole Z            :        462.8814987         -462.8844670           -0.0029683
 Magnitude           :                                                    0.0029697

 ------------------------------------------------------------------------------------

*** tstop() called on d-16-9-3 at Sat Jan 20 23:36:17 2024
Module time:
	user time   =    2310.90 seconds =      38.51 minutes
	system time =      52.09 seconds =       0.87 minutes
	total time  =        242 seconds =       4.03 minutes
Total time:
	user time   =    6551.78 seconds =     109.20 minutes
	system time =     130.80 seconds =       2.18 minutes
	total time  =        700 seconds =      11.67 minutes
  Constructing Basis Sets for SAPT...

   => Loading Basis Set <=

    Name: (JUN-CC-PVDZ AUX)
    Role: RIFIT
    Keyword: DF_BASIS_SAPT
    atoms 1     entry B          line    56 file /home/gridsan/tfroembgen/.conda/envs/psi4test/share/psi4/basis/jun-cc-pvdz-ri.gbs 
    atoms 2-5   entry F          line   232 file /home/gridsan/tfroembgen/.conda/envs/psi4test/share/psi4/basis/jun-cc-pvdz-ri.gbs 
    atoms 6-59  entry C          line   100 file /home/gridsan/tfroembgen/.conda/envs/psi4test/share/psi4/basis/jun-cc-pvdz-ri.gbs 
    atoms 60-77 entry H          line    30 file /home/gridsan/tfroembgen/.conda/envs/psi4test/share/psi4/basis/jun-cc-pvdz-ri.gbs 

   => Loading Basis Set <=

    Name: (JUN-CC-PVDZ AUX)
    Role: JKFIT
    Keyword: DF_BASIS_ELST
    atoms 1     entry B          line    90 file /home/gridsan/tfroembgen/.conda/envs/psi4test/share/psi4/basis/jun-cc-pvdz-jkfit.gbs 
    atoms 2-5   entry F          line   314 file /home/gridsan/tfroembgen/.conda/envs/psi4test/share/psi4/basis/jun-cc-pvdz-jkfit.gbs 
    atoms 6-59  entry C          line   146 file /home/gridsan/tfroembgen/.conda/envs/psi4test/share/psi4/basis/jun-cc-pvdz-jkfit.gbs 
    atoms 60-77 entry H          line    70 file /home/gridsan/tfroembgen/.conda/envs/psi4test/share/psi4/basis/jun-cc-pvdz-jkfit.gbs 


  //>>>>>>>>>>>>>>>>>>>>>>>>>>>>>>>>>>>//
  //               SSAPT0              //
  //<<<<<<<<<<<<<<<<<<<<<<<<<<<<<<<<<<<//


*** tstart() called on d-16-9-3
*** at Sat Jan 20 23:36:18 2024

        SAPT0  
    Ed Hohenstein
     6 June 2009

      Orbital Information
  --------------------------
    NSO        =      1152
    NMO        =      1138
    NRI        =      4087
    NRI (Elst) =      5075
    NOCC A     =        21
    NOCC B     =       171
    FOCC A     =         5
    FOCC B     =        54
    NVIR A     =      1117
    NVIR B     =       967

    Elst10,r            =     0.008839545020 [Eh]
    Exch10              =     0.000000127285 [Eh]
    Exch10 (S^2)        =     0.000000127288 [Eh]

    Iter     Energy [mEh]          dE [mEh]         Residual      Time [s]
       1      -0.00636945       0.006369450       0.553595308           370
       2      -0.00742377       0.001054324       0.284109421           456
       3      -0.00781671       0.000392938       0.059016168           565
       4      -0.00783237       0.000015658       0.011380064           580
       5      -0.00781845      -0.000013916       0.001438951           594
       6      -0.00781981       0.000001360       0.000294641           607
       7      -0.00781976      -0.000000054       0.000069920           622
       8      -0.00781974      -0.000000022       0.000015564           716
       9      -0.00781974      -0.000000001       0.000003808           730
      10      -0.00781974       0.000000001       0.000000743           742

    CHF Iterations converged


    Iter     Energy [mEh]          dE [mEh]         Residual      Time [s]
       1      -4.82223066       4.822230664      36.505097081           219
       2      -3.26331755      -1.558913112       4.642051528           444
       3      -3.26182091      -0.001496646       1.616987810           472
       4      -3.33781465       0.075993741       0.367368334           491
       5      -3.34152814       0.003713489       0.102238199           508
       6      -3.34009677      -0.001431363       0.047331205           525
       7      -3.33960806      -0.000488713       0.018945831           545
       8      -3.33981775       0.000209687       0.010316698           564
       9      -3.33989420       0.000076457       0.005792377           582
      10      -3.33984239      -0.000051814       0.004051880           601
      11      -3.33983314      -0.000009247       0.001797445           619
      12      -3.33984180       0.000008660       0.000823112           636
      13      -3.33984555       0.000003741       0.000326344           652
      14      -3.33984510      -0.000000446       0.000107149           670
      15      -3.33984421      -0.000000886       0.000032334           687
      16      -3.33984432       0.000000109       0.000018891           706
      17      -3.33984443       0.000000107       0.000009036           728
      18      -3.33984442      -0.000000012       0.000003072           746
      19      -3.33984440      -0.000000017       0.000001265           774
      20      -3.33984440      -0.000000002       0.000000446           796

    CHF Iterations converged

    Ind20,r (A<-B)      =    -0.000007819739 [Eh]
    Ind20,r (B<-A)      =    -0.003339844399 [Eh]
    Ind20,r             =    -0.003347664138 [Eh]
    Exch-Ind20,r (A<-B) =     0.000000172966 [Eh]
    Exch-Ind20,r (B<-A) =     0.000000291944 [Eh]
    Exch-Ind20,r        =     0.000000464910 [Eh]
    Disp20              =    -0.000691773474 [Eh]
    Disp20 (SS)         =    -0.000345886737 [Eh]
    Disp20 (OS)         =    -0.000345886737 [Eh]
    Exch-Disp20         =     0.000000541262 [Eh]
    Exch-Disp20 (SS)    =     0.000000418573 [Eh]
    Exch-Disp20 (OS)    =     0.000000122689 [Eh]

    SAPT Results 
  --------------------------------------------------------------------------------------------------------
    Electrostatics                  8.83954502 [mEh]       5.54689824 [kcal/mol]      23.20822225 [kJ/mol]
      Elst10,r                      8.83954502 [mEh]       5.54689824 [kcal/mol]      23.20822225 [kJ/mol]

    Exchange                        0.00012729 [mEh]       0.00007987 [kcal/mol]       0.00033419 [kJ/mol]
      Exch10                        0.00012729 [mEh]       0.00007987 [kcal/mol]       0.00033419 [kJ/mol]
      Exch10(S^2)                   0.00012729 [mEh]       0.00007987 [kcal/mol]       0.00033420 [kJ/mol]

    Induction                      -3.32080130 [mEh]      -2.08383428 [kcal/mol]      -8.71876262 [kJ/mol]
      Ind20,r                      -3.34766414 [mEh]      -2.10069096 [kcal/mol]      -8.78929098 [kJ/mol]
      Exch-Ind20,r                  0.00046491 [mEh]       0.00029174 [kcal/mol]       0.00122062 [kJ/mol]
      delta HF,r (2)                0.02639792 [mEh]       0.01656495 [kcal/mol]       0.06930774 [kJ/mol]

    Dispersion                     -0.69123221 [mEh]      -0.43375476 [kcal/mol]      -1.81482992 [kJ/mol]
      Disp20                       -0.69177347 [mEh]      -0.43409441 [kcal/mol]      -1.81625101 [kJ/mol]
      Exch-Disp20                   0.00054126 [mEh]       0.00033965 [kcal/mol]       0.00142108 [kJ/mol]
      Disp20 (SS)                  -0.34588674 [mEh]      -0.21704720 [kcal/mol]      -0.90812550 [kJ/mol]
      Disp20 (OS)                  -0.34588674 [mEh]      -0.21704720 [kcal/mol]      -0.90812550 [kJ/mol]
      Exch-Disp20 (SS)              0.00041857 [mEh]       0.00026266 [kcal/mol]       0.00109896 [kJ/mol]
      Exch-Disp20 (OS)              0.00012269 [mEh]       0.00007699 [kcal/mol]       0.00032212 [kJ/mol]

  Total HF                          5.51887100 [mEh]       3.46314384 [kcal/mol]      14.48979382 [kJ/mol]
  Total SAPT0                       4.82763879 [mEh]       3.02938908 [kcal/mol]      12.67496390 [kJ/mol]

  Special recipe for scaled SAPT0 (see Manual):
    Electrostatics sSAPT0           8.83954502 [mEh]       5.54689824 [kcal/mol]      23.20822225 [kJ/mol]
    Exchange sSAPT0                 0.00012729 [mEh]       0.00007987 [kcal/mol]       0.00033419 [kJ/mol]
    Induction sSAPT0               -3.32080130 [mEh]      -2.08383428 [kcal/mol]      -8.71876262 [kJ/mol]
    Dispersion sSAPT0              -0.69123221 [mEh]      -0.43375476 [kcal/mol]      -1.81482992 [kJ/mol]
  Total sSAPT0                      4.82763879 [mEh]       3.02938908 [kcal/mol]      12.67496390 [kJ/mol]
  --------------------------------------------------------------------------------------------------------

*** tstop() called on d-16-9-3 at Sun Jan 21 00:43:27 2024
Module time:
	user time   =    6926.41 seconds =     115.44 minutes
	system time =     666.50 seconds =      11.11 minutes
	total time  =       4029 seconds =      67.15 minutes
Total time:
	user time   =   13479.84 seconds =     224.66 minutes
	system time =     797.34 seconds =      13.29 minutes
	total time  =       4730 seconds =      78.83 minutes

    Psi4 stopped on: Sunday, 21 January 2024 12:43AM
    Psi4 wall time for execution: 1:18:50.29

*** Psi4 exiting successfully. Buy a developer a beer!
