
    -----------------------------------------------------------------------
          Psi4: An Open-Source Ab Initio Electronic Structure Package
                               Psi4 1.9 release

                         Git: Rev {} zzzzzzz 


    D. G. A. Smith, L. A. Burns, A. C. Simmonett, R. M. Parrish,
    M. C. Schieber, R. Galvelis, P. Kraus, H. Kruse, R. Di Remigio,
    A. Alenaizan, A. M. James, S. Lehtola, J. P. Misiewicz, M. Scheurer,
    R. A. Shaw, J. B. Schriber, Y. Xie, Z. L. Glick, D. A. Sirianni,
    J. S. O'Brien, J. M. Waldrop, A. Kumar, E. G. Hohenstein,
    B. P. Pritchard, B. R. Brooks, H. F. Schaefer III, A. Yu. Sokolov,
    K. Patkowski, A. E. DePrince III, U. Bozkaya, R. A. King,
    F. A. Evangelista, J. M. Turney, T. D. Crawford, C. D. Sherrill,
    J. Chem. Phys. 152(18) 184108 (2020). https://doi.org/10.1063/5.0006002

                            Additional Code Authors
    E. T. Seidl, C. L. Janssen, E. F. Valeev, M. L. Leininger,
    J. F. Gonthier, R. M. Richard, H. R. McAlexander, M. Saitow, X. Wang,
    P. Verma, M. H. Lechner, A. Jiang, S. Behnle, A. G. Heide,
    M. F. Herbst, and D. L. Poole

             Previous Authors, Complete List of Code Contributors,
                       and Citations for Specific Modules
    https://github.com/psi4/psi4/blob/master/codemeta.json
    https://github.com/psi4/psi4/graphs/contributors
    http://psicode.org/psi4manual/master/introduction.html#citing-psifour

    -----------------------------------------------------------------------


    Psi4 started on: Saturday, 10 February 2024 01:34PM

    Process ID: 1746855
    Host:       n2cn1075
    PSIDATADIR: /opt/software/pc2/EB-SW/software/PSI4/1.9-foss-2022a/share/psi4
    Memory:     500.0 MiB
    Threads:    16
    
  ==> Input File <==

--------------------------------------------------------------------------
memory 80 GB # how much memory is available ! Depends on the nodes/cores !

molecule dimer {
# monomer A
+1 1    # Charge and multiplicity
C  0.680067 -1.215929 3.308042
C -0.680504 -1.215545 3.306014
N -1.085635  0.102779 3.305016
C  0.000108  0.884180 3.301740
C -2.477365  0.570758 3.255610
N  1.085222  0.102779 3.305016
H  1.385146 -2.033368 3.315870
H -1.385302 -2.033214 3.306204
H -0.000009  1.965269 3.299993
C  2.478117  0.567877 3.321908
H  2.490592  1.658130 3.294563
H  2.967028  0.220701 4.235354
H  3.001428  0.176405 2.446425
H -2.857359  0.490799 2.233539
H -3.082679 -0.042306 3.925694
H -2.518128  1.610706 3.582594
--
# monomer B
0 1     # Charge and multiplicity
C   -3.66844126402057      7.80375217008252      0.00190004133558
C   -4.84759871934653      7.13124183134024     -0.00046653359696
C   -4.89495929917518      5.69633040353158     -0.00103944469517
C   -3.65374067877320      4.98073034095895      0.00662099703436
C   -2.40942512149445      7.11398103667468      0.00209438359570
C   -2.42547734410473      5.68112195090346     -0.00491050527438
C   -1.19474401643570      7.78614419430947      0.00356656413763
C   0.03795902893699      7.09942164575698      0.00139585983271
C   0.03033258741920      5.66948955970466     -0.00408752508301
C   -1.20098450790502      4.96927034791531      0.00488220885047
C   1.27795782581485      7.77285944319479      0.00277170839332
C   2.48535808472416      7.08769688523756      0.00049722048857
C   2.48612868491717      5.65477081024076     -0.00644052849921
C   1.25408291964399      4.95607811366431      0.00518741308898
C   3.75171459140595      7.76391215098033      0.00062407186893
C   4.92356605618520      7.07878077698995     -0.00143240883900
C   4.95560727132542      5.64344746336949     -0.00159282164606
C   3.70680153420475      4.94121020833308      0.00349873852374
H   -3.65852113775815      8.89082741913536      0.00358502958574
H   -1.18921332975660      8.87412108735996      0.00753844057883
H   1.28429423888630      8.86083343548850      0.00693053253426
H   3.75354208679975      8.85103527897216      0.00214659618464
H   5.86995870320703      7.61379483465560     -0.00235777588134
H   -5.78823170750226      7.67630221293400     -0.00202638095293
C   -6.09197395869619      4.99326001364347     -0.00291168518608
C   -6.12866148031747      3.58258016879823     -0.00171050815740
C   -3.66457974004527      3.56418217974434     -0.00463560277484
C   -4.89429820469869      2.86108077590057      0.00453338221034
C   -2.43733499489796      2.84761165708481      0.00719617576166
C   -1.20922785759670      3.54788693497833     -0.00648285103018
C   1.24714157216223      3.53468075142962     -0.00729145743546
C   0.01517603956900      2.83311183930540      0.00439272578912
C   2.46764517244071      2.82128997725533      0.00449278391269
C   3.70254947457969      3.52466015442405     -0.00899517692985
C   6.14498038638375      4.92757236613191     -0.00282626685777
C   6.16658835886151      3.51658447594213     -0.00065971342101
C   4.92460995845939      2.80840792535402      0.00587903281610
H   7.08990550964105      5.46688776622306     -0.00658814770723
H   -7.03104175110130      5.54268795285765     -0.00714490013730
C   -7.33969804112295      2.85841153457957     -0.00333767559888
C   -7.36488195805880      1.47032337158330     -0.00157213747140
C   -4.90350460894690      1.44442681216000     -0.00628840166334
C   -6.13225715261081      0.73993935705394      0.00600164231964
C   -3.67687480051673      0.72669714267312      0.00433931473643
C   -2.44565658606518      1.42964113326212     -0.00597039546461
C   -1.22360068130162      0.71532450163492      0.00545886906656
C   0.00763786931376      1.41738314923765      0.00392452278437
C   1.23121980774686      0.70211669058719     -0.01490206287210
C   2.46082110053113      1.40329203612573      0.00460244601878
C   3.68443025419614      0.68719842821222      0.00377365974158
C   4.91870890153864      1.39173456118907     -0.00862816189375
C   7.36980207796101      2.77948220318441     -0.00242013321349
C   7.38016266612146      1.39121750785509     -0.00087345036788
C   6.13979953912259      0.67411862320065      0.00545489144369
H   -8.27919079934664      3.40711804112415     -0.00763522772059
H   8.31511347147953      3.31811809662368     -0.00663070901292
C   -8.59175593758115      0.72483255304480     -0.00123170985383
C   -8.59902460370342     -0.63263980622873      0.00089141472904
C   -6.13981313911873     -0.67413663715361     -0.00609792660607
C   -7.38018411213749     -1.39126618958160      0.00131813493501
C   -4.91868448025621     -1.39175501803000      0.00624257154343
C   -3.68443829568458     -0.68723731573599     -0.00478966852105
C   -2.46081704024768     -1.40334517882457      0.00575341766833
C   -1.23116201232071     -0.70217386488055     -0.00636696112346
C   -0.00756962538737     -1.41741884941102      0.00108956317991
C   1.22364771588843     -0.71527537726392      0.01109518512883
C   2.44567064933149     -1.42964328900682     -0.00065482763106
C   3.67686670284649     -0.72670743155550     -0.00479541202602
C   6.13224884641929     -0.73997883984993     -0.00632338623858
C   4.90351914550401     -1.44445752054090      0.00751768830159
C   8.59901484869081      0.63260386666793     -0.00101133422380
C   8.59174548810050     -0.72485086719319      0.00072504603735
C   7.36486276438985     -1.47033266560598      0.00049486934466
H   -9.52830597181814      1.27684744919284     -0.00270163681798
H   9.54141097460619      1.17457248844457     -0.00206336648518
C   -7.36983790976868     -2.77954514593389      0.00312634335708
C   -4.92459910905015     -2.80843725734101     -0.00460528907921
C   -6.16662249566744     -3.51665219282533      0.00169655107992
C   -3.70251035970491     -3.52468154912026      0.00571878010666
C   -2.46764698511392     -2.82132596280400     -0.00632585824990
C   -0.01513347410770     -2.83314164539971     -0.00604426974092
C   -1.24712184122656     -3.53473217556300      0.00551968366725
C   1.20924506964357     -3.54791467864352      0.00805871345849
C   2.43733602215464     -2.84764173817541     -0.00608104485234
C   4.89430234377080     -2.86112296828604     -0.00526030478103
C   3.66461525504104     -3.56421984553201      0.00761911515957
C   6.12863901474565     -3.58258405771778      0.00096495711699
C   7.33967266469532     -2.85841330737039      0.00248018319869
H   -9.54144911125902     -1.17456346666430      0.00226083090216
H   9.52826186807155     -1.27691907390448      0.00197485379837
H   -8.31516504384864     -3.31814985321231      0.00729857188773
H   8.27915514249207     -3.40714078989363      0.00681973918158
C   -6.14499418870218     -4.92764727278338      0.00302254913999
C   -3.70678334799751     -4.94126171411716     -0.00679841894792
C   -4.95559005800169     -5.64349397349412      0.00116871569699
C   -2.48612132622665     -5.65478557440947      0.00614125209662
C   -1.25405833548005     -4.95612205000132     -0.00503435388927
C   1.20101257386816     -4.96928038819302     -0.00385322963129
C   -0.03033667441341     -5.66952030313900      0.00398997003238
C   3.65375010132847     -4.98074377541453     -0.00309522988330
C   2.42549269587528     -5.68117463552727      0.00628170066869
C   6.09196561781097     -4.99325796338655      0.00325918379042
C   4.89497644461045     -5.69634842095790      0.00202298796027
H   -7.08989238804069     -5.46699984223871      0.00742531082125
H   7.03105520920009     -5.54265853633254      0.00683896355417
C   -4.92354532219813     -7.07882109967734      0.00061394679214
C   -2.48534208823777     -7.08772807792913     -0.00189594564379
C   -3.75168589177895     -7.76394715763627     -0.00170126671874
C   -0.03794895698805     -7.09946487446944     -0.00168022049625
C   -1.27795610040136     -7.77290438466689     -0.00366491325785
C   2.40944432072629     -7.11402201200282     -0.00081701968533
C   1.19474993715296     -7.78618536556242     -0.00296931056689
C   4.84762105249800     -7.13126211057943      0.00168979497423
C   3.66847160587561     -7.80378799294376     -0.00065863938960
H   -5.86994035041618     -7.61383059804164      0.00215798365757
H   5.78824962538815     -7.67633218931421      0.00281691445618
H   -3.75352693944918     -8.85107156923607     -0.00353718114765
H   -1.28430440589466     -8.86087539249706     -0.00809229711623
H   1.18922157469537     -8.87416062058945     -0.00706194725726
H   3.65854661482387     -8.89086063405326     -0.00231318081200

    units angstrom      # Angstroms are the default
    no_reorient         # Geometry fixed, default
    symmetry c1         # C1 symmetry, default
}

set {
    scf_type DF         # Density fitting, faster than exact integrals
    freeze_core True    # Freeze core electrons
    basis jun-cc-pVDZ   # Jun-cc-pVDZ basis set, recommended for sSAPT0 in https://doi.org/10.1063/1.4867135
}

energy('ssapt0')        # Compute sSAPT0 energy, includes also SAPT0
--------------------------------------------------------------------------

  Memory set to  74.506 GiB by Python driver.

Scratch directory: /tmp/
   => Loading Basis Set <=

    Name: JUN-CC-PVDZ
    Role: ORBITAL
    Keyword: BASIS
    atoms 1-2, 4-5, 10, 17-34, 41-53, 56-70, 73-89, 92-104, 109-119, 122-130 entry C          line   164 file /opt/software/pc2/EB-SW/software/PSI4/1.9-foss-2022a/share/psi4/basis/jun-cc-pvdz.gbs 
    atoms 3, 6                                                               entry N          line   198 file /opt/software/pc2/EB-SW/software/PSI4/1.9-foss-2022a/share/psi4/basis/jun-cc-pvdz.gbs 
    atoms 7-9, 11-16, 35-40, 54-55, 71-72, 90-91, 105-108, 120-121, 131-136  entry H          line    36 file /opt/software/pc2/EB-SW/software/PSI4/1.9-foss-2022a/share/psi4/basis/jun-cc-pvdz.gbs 

   => Loading Basis Set <=

    Name: JUN-CC-PVDZ
    Role: ORBITAL
    Keyword: BASIS
    atoms 1-2, 4-5, 10, 17-34, 41-53, 56-70, 73-89, 92-104, 109-119, 122-130 entry C          line   164 file /opt/software/pc2/EB-SW/software/PSI4/1.9-foss-2022a/share/psi4/basis/jun-cc-pvdz.gbs 
    atoms 3, 6                                                               entry N          line   198 file /opt/software/pc2/EB-SW/software/PSI4/1.9-foss-2022a/share/psi4/basis/jun-cc-pvdz.gbs 
    atoms 7-9, 11-16, 35-40, 54-55, 71-72, 90-91, 105-108, 120-121, 131-136  entry H          line    36 file /opt/software/pc2/EB-SW/software/PSI4/1.9-foss-2022a/share/psi4/basis/jun-cc-pvdz.gbs 


  //>>>>>>>>>>>>>>>>>>>>>>>>>>>>>>>>>>>//
  //              Dimer HF             //
  //<<<<<<<<<<<<<<<<<<<<<<<<<<<<<<<<<<<//

   => Libint2 <=

    Primary   basis highest AM E, G, H:  5, 4, 3
    Auxiliary basis highest AM E, G, H:  6, 5, 4
    Onebody   basis highest AM E, G, H:  6, 5, 4
    Solid Harmonics ordering:            gaussian

*** tstart() called on n2cn1075
*** at Sat Feb 10 13:34:35 2024

   => Loading Basis Set <=

    Name: JUN-CC-PVDZ
    Role: ORBITAL
    Keyword: BASIS
    atoms 1-2, 4-5, 10, 17-34, 41-53, 56-70, 73-89, 92-104, 109-119, 122-130 entry C          line   164 file /opt/software/pc2/EB-SW/software/PSI4/1.9-foss-2022a/share/psi4/basis/jun-cc-pvdz.gbs 
    atoms 3, 6                                                               entry N          line   198 file /opt/software/pc2/EB-SW/software/PSI4/1.9-foss-2022a/share/psi4/basis/jun-cc-pvdz.gbs 
    atoms 7-9, 11-16, 35-40, 54-55, 71-72, 90-91, 105-108, 120-121, 131-136  entry H          line    36 file /opt/software/pc2/EB-SW/software/PSI4/1.9-foss-2022a/share/psi4/basis/jun-cc-pvdz.gbs 


         ---------------------------------------------------------
                                   SCF
               by Justin Turney, Rob Parrish, Andy Simmonett
                          and Daniel G. A. Smith
                              RHF Reference
                       16 Threads,  76293 MiB Core
         ---------------------------------------------------------

  ==> Geometry <==

    Molecular point group: c1
    Full point group: C1

    Geometry (in Angstrom), charge = 1, multiplicity = 1:

       Center              X                  Y                   Z               Mass       
    ------------   -----------------  -----------------  -----------------  -----------------
         C            0.680062820275    -1.215917226251     3.056439379518    12.000000000000
         C           -0.680508179725    -1.215533226251     3.054411379518    12.000000000000
         N           -1.085639179725     0.102790773749     3.053413379518    14.003074004430
         C            0.000103820275     0.884191773749     3.050137379518    12.000000000000
         C           -2.477369179725     0.570769773749     3.004007379518    12.000000000000
         N            1.085217820275     0.102790773749     3.053413379518    14.003074004430
         H            1.385141820275    -2.033356226251     3.064267379518     1.007825032230
         H           -1.385306179725    -2.033202226251     3.054601379518     1.007825032230
         H           -0.000013179725     1.965280773749     3.048390379518     1.007825032230
         C            2.478112820275     0.567888773749     3.070305379518    12.000000000000
         H            2.490587820275     1.658141773750     3.042960379518     1.007825032230
         H            2.967023820275     0.220712773749     3.983751379518     1.007825032230
         H            3.001423820275     0.176416773749     2.194822379518     1.007825032230
         H           -2.857363179725     0.490810773749     1.981936379518     1.007825032230
         H           -3.082683179725    -0.042294226251     3.674091379518     1.007825032230
         H           -2.518132179725     1.610717773749     3.330991379518     1.007825032230
         C           -3.668445443746     7.803763943832    -0.249702579147    12.000000000000
         C           -4.847602899072     7.131253605090    -0.252069154079    12.000000000000
         C           -4.894963478901     5.696342177281    -0.252642065178    12.000000000000
         C           -3.653744858499     4.980742114708    -0.244981623448    12.000000000000
         C           -2.409429301220     7.113992810424    -0.249508236887    12.000000000000
         C           -2.425481523830     5.681133724653    -0.256513125757    12.000000000000
         C           -1.194748196161     7.786155968059    -0.248036056345    12.000000000000
         C            0.037954849212     7.099433419506    -0.250206760650    12.000000000000
         C            0.030328407694     5.669501333454    -0.255690145565    12.000000000000
         C           -1.200988687630     4.969282121665    -0.246720411632    12.000000000000
         C            1.277953646089     7.772871216944    -0.248830912089    12.000000000000
         C            2.485353904999     7.087708658987    -0.251105399994    12.000000000000
         C            2.486124505192     5.654782583990    -0.258043148982    12.000000000000
         C            1.254078739919     4.956089887414    -0.246415207393    12.000000000000
         C            3.751710411681     7.763923924730    -0.250978548614    12.000000000000
         C            4.923561876460     7.078792550739    -0.253035029321    12.000000000000
         C            4.955603091600     5.643459237119    -0.253195442129    12.000000000000
         C            3.706797354479     4.941221982083    -0.248103881959    12.000000000000
         H           -3.658525317484     8.890839192885    -0.248017590897     1.007825032230
         H           -1.189217509482     8.874132861109    -0.244064179904     1.007825032230
         H            1.284290059161     8.860845209238    -0.244672087948     1.007825032230
         H            3.753537907074     8.851047052722    -0.249456024298     1.007825032230
         H            5.869954523482     7.613806608405    -0.253960396364     1.007825032230
         H           -5.788235887228     7.676313986684    -0.253629001435     1.007825032230
         C           -6.091978138422     4.993271787393    -0.254514305669    12.000000000000
         C           -6.128665660043     3.582591942548    -0.253313128640    12.000000000000
         C           -3.664583919771     3.564193953494    -0.256238223257    12.000000000000
         C           -4.894302384424     2.861092549650    -0.247069238272    12.000000000000
         C           -2.437339174623     2.847623430834    -0.244406444721    12.000000000000
         C           -1.209232037322     3.547898708728    -0.258085471513    12.000000000000
         C            1.247137392437     3.534692525179    -0.258894077918    12.000000000000
         C            0.015171859844     2.833123613055    -0.247209894693    12.000000000000
         C            2.467640992715     2.821301751005    -0.247109836570    12.000000000000
         C            3.702545294854     3.524671928174    -0.260597797412    12.000000000000
         C            6.144976206658     4.927584139881    -0.254428887340    12.000000000000
         C            6.166584179136     3.516596249692    -0.252262333903    12.000000000000
         C            4.924605778734     2.808419699104    -0.245723587666    12.000000000000
         H            7.089901329916     5.466899539973    -0.258190768190     1.007825032230
         H           -7.031045930827     5.542699726607    -0.258747520620     1.007825032230
         C           -7.339702220848     2.858423308329    -0.254940296081    12.000000000000
         C           -7.364886137784     1.470335145333    -0.253174757954    12.000000000000
         C           -4.903508788672     1.444438585909    -0.257891022146    12.000000000000
         C           -6.132261332336     0.739951130803    -0.245600978163    12.000000000000
         C           -3.676878980242     0.726708916423    -0.247263305746    12.000000000000
         C           -2.445660765791     1.429652907012    -0.257573015947    12.000000000000
         C           -1.223604861027     0.715336275384    -0.246143751416    12.000000000000
         C            0.007633689588     1.417394922987    -0.247678097698    12.000000000000
         C            1.231215628021     0.702128464337    -0.266504683355    12.000000000000
         C            2.460816920806     1.403303809875    -0.247000174464    12.000000000000
         C            3.684426074471     0.687210201962    -0.247828960741    12.000000000000
         C            4.918704721813     1.391746334939    -0.260230782376    12.000000000000
         C            7.369797898236     2.779493976934    -0.254022753696    12.000000000000
         C            7.380158486396     1.391229281605    -0.252476070850    12.000000000000
         C            6.139795359397     0.674130396950    -0.246147729039    12.000000000000
         H           -8.279194979072     3.407129814874    -0.259237848203     1.007825032230
         H            8.315109291754     3.318129870373    -0.258233329495     1.007825032230
         C           -8.591760117307     0.724844326794    -0.252834330336    12.000000000000
         C           -8.599028783429    -0.632628032479    -0.250711205753    12.000000000000
         C           -6.139817318844    -0.674124863404    -0.257700547089    12.000000000000
         C           -7.380188291863    -1.391254415832    -0.250284485547    12.000000000000
         C           -4.918688659982    -1.391743244281    -0.245360048939    12.000000000000
         C           -3.684442475410    -0.687225541986    -0.256392289003    12.000000000000
         C           -2.460821219973    -1.403333405075    -0.245849202814    12.000000000000
         C           -1.231166192046    -0.702162091131    -0.257969581606    12.000000000000
         C           -0.007573805113    -1.417407075662    -0.250513057303    12.000000000000
         C            1.223643536163    -0.715263603514    -0.240507435354    12.000000000000
         C            2.445666469606    -1.429631515257    -0.252257448114    12.000000000000
         C            3.676862523121    -0.726695657806    -0.256398032508    12.000000000000
         C            6.132244666694    -0.739967066100    -0.257926006721    12.000000000000
         C            4.903514965779    -1.444445746791    -0.244084932181    12.000000000000
         C            8.599010668965     0.632615640417    -0.252613954706    12.000000000000
         C            8.591741308375    -0.724839093444    -0.250877574445    12.000000000000
         C            7.364858584664    -1.470320891856    -0.251107751138    12.000000000000
         H           -9.528310151544     1.276859222942    -0.254304257300     1.007825032230
         H            9.541406794881     1.174584262194    -0.253665986968     1.007825032230
         C           -7.369842089494    -2.779533372184    -0.248476277125    12.000000000000
         C           -4.924603288776    -2.808425483592    -0.256207909562    12.000000000000
         C           -6.166626675393    -3.516640419076    -0.249906069403    12.000000000000
         C           -3.702514539430    -3.524669775371    -0.245883840376    12.000000000000
         C           -2.467651164839    -2.821314189055    -0.257928478732    12.000000000000
         C           -0.015137653833    -2.833129871650    -0.257646890223    12.000000000000
         C           -1.247126020952    -3.534720401814    -0.246082936815    12.000000000000
         C            1.209240889918    -3.547902904894    -0.243543907024    12.000000000000
         C            2.437331842429    -2.847629964426    -0.257683665335    12.000000000000
         C            4.894298164045    -2.861111194537    -0.256862925263    12.000000000000
         C            3.664611075316    -3.564208071783    -0.243983505323    12.000000000000
         C            6.128634835020    -3.582572283968    -0.250637663365    12.000000000000
         C            7.339668484970    -2.858401533621    -0.249122437284    12.000000000000
         H           -9.541453290984    -1.174551692915    -0.249341789580     1.007825032230
         H            9.528257688346    -1.276907300155    -0.249627766684     1.007825032230
         H           -8.315169223574    -3.318138079463    -0.244304048595     1.007825032230
         H            8.279150962767    -3.407129016144    -0.244782881301     1.007825032230
         C           -6.144998368428    -4.927635499034    -0.248580071342    12.000000000000
         C           -3.706787527723    -4.941249940368    -0.258401039430    12.000000000000
         C           -4.955594237727    -5.643482199745    -0.250433904785    12.000000000000
         C           -2.486125505952    -5.654773800660    -0.245461368386    12.000000000000
         C           -1.254062515205    -4.956110276252    -0.256636974372    12.000000000000
         C            1.201008394143    -4.969268614444    -0.255455850114    12.000000000000
         C           -0.030340854139    -5.669508529390    -0.247612650450    12.000000000000
         C            3.653745921603    -4.980732001665    -0.254697850366    12.000000000000
         C            2.425488516150    -5.681162861778    -0.245320919814    12.000000000000
         C            6.091961438086    -4.993246189637    -0.248343436692    12.000000000000
         C            4.894972264885    -5.696336647208    -0.249579632522    12.000000000000
         H           -7.089896567766    -5.466988068489    -0.244177309661     1.007825032230
         H            7.031051029475    -5.542646762583    -0.244763656928     1.007825032230
         C           -4.923549501924    -7.078809325928    -0.250988673690    12.000000000000
         C           -2.485346267963    -7.087716304180    -0.253498566126    12.000000000000
         C           -3.751690071504    -7.763935383887    -0.253303887201    12.000000000000
         C           -0.037953136713    -7.099453100720    -0.253282840979    12.000000000000
         C           -1.277960280127    -7.772892610917    -0.255267533740    12.000000000000
         C            2.409440141001    -7.114010238253    -0.252419640168    12.000000000000
         C            1.194745757428    -7.786173591813    -0.254571931049    12.000000000000
         C            4.847616872773    -7.131250336830    -0.249912825508    12.000000000000
         C            3.668467426150    -7.803776219194    -0.252261259872    12.000000000000
         H           -5.869944530142    -7.613818824292    -0.249444636825     1.007825032230
         H            5.788245445663    -7.676320415565    -0.248785706026     1.007825032230
         H           -3.753531119175    -8.851059795487    -0.255139801630     1.007825032230
         H           -1.284308585620    -8.860863618748    -0.259694917599     1.007825032230
         H            1.189217394970    -8.874148846840    -0.258664567740     1.007825032230
         H            3.658542435098    -8.890848860304    -0.253915801294     1.007825032230

  Running in c1 symmetry.

  Rotational constants: A =      0.00068  B =      0.00067  C =      0.00035 [cm^-1]
  Rotational constants: A =     20.25469  B =     20.11872  C =     10.50436 [MHz]
  Nuclear repulsion = 18476.356240779670770

  Charge       = 1
  Multiplicity = 1
  Electrons    = 652
  Nalpha       = 326
  Nbeta        = 326

  ==> Algorithm <==

  SCF Algorithm Type is DF.
  DIIS enabled.
  MOM disabled.
  Fractional occupation disabled.
  Guess Type is SAD.
  Energy threshold   = 1.00e-08
  Density threshold  = 1.00e-08
  Integral threshold = 1.00e-12

  ==> Primary Basis <==

  Basis Set: JUN-CC-PVDZ
    Blend: JUN-CC-PVDZ
    Number of shells: 923
    Number of basis functions: 2019
    Number of Cartesian functions: 2122
    Spherical Harmonics?: true
    Max angular momentum: 2

   => Loading Basis Set <=

    Name: (JUN-CC-PVDZ AUX)
    Role: JKFIT
    Keyword: DF_BASIS_SCF
    atoms 1-2, 4-5, 10, 17-34, 41-53, 56-70, 73-89, 92-104, 109-119, 122-130 entry C          line   146 file /opt/software/pc2/EB-SW/software/PSI4/1.9-foss-2022a/share/psi4/basis/jun-cc-pvdz-jkfit.gbs 
    atoms 3, 6                                                               entry N          line   202 file /opt/software/pc2/EB-SW/software/PSI4/1.9-foss-2022a/share/psi4/basis/jun-cc-pvdz-jkfit.gbs 
    atoms 7-9, 11-16, 35-40, 54-55, 71-72, 90-91, 105-108, 120-121, 131-136  entry H          line    70 file /opt/software/pc2/EB-SW/software/PSI4/1.9-foss-2022a/share/psi4/basis/jun-cc-pvdz-jkfit.gbs 

  ==> Integral Setup <==

  ==> DiskDFJK: Density-Fitted J/K Matrices <==

    J tasked:                  Yes
    K tasked:                  Yes
    wK tasked:                  No
    OpenMP threads:             16
    Integrals threads:          16
    Memory [MiB]:            57220
    Algorithm:                Disk
    Integral Cache:           SAVE
    Schwarz Cutoff:          1E-12
    Fitting Condition:       1E-10

   => Auxiliary Basis Set <=

  Basis Set: (JUN-CC-PVDZ AUX)
    Blend: JUN-CC-PVDZ-JKFIT
    Number of shells: 3078
    Number of basis functions: 8896
    Number of Cartesian functions: 10198
    Spherical Harmonics?: true
    Max angular momentum: 3

  Minimum eigenvalue in the overlap matrix is 6.8327799976E-11.
  Reciprocal condition number of the overlap matrix is 2.6140172596E-12.
    Using canonical orthogonalization.
  Overall, 41 of 2019 possible MOs eliminated.


  ==> Pre-Iterations <==

  SCF Guess: Superposition of Atomic Densities via on-the-fly atomic UHF (no occupation information).

   -------------------------
    Irrep   Nso     Nmo    
   -------------------------
     A       2019    1978 
   -------------------------
    Total    2019    1978
   -------------------------

  ==> Iterations <==

                           Total Energy        Delta E     RMS |[F,P]|

   @DF-RHF iter SAD: -3967.77085290947980   -3.96777e+03   0.00000e+00 
   @DF-RHF iter   1: -3952.11270982409314    1.56581e+01   7.16167e-04 DIIS/ADIIS
   @DF-RHF iter   2: -3953.49845406997110   -1.38574e+00   2.35247e-04 DIIS/ADIIS
   @DF-RHF iter   3: -3953.62072780226663   -1.22274e-01   1.05544e-04 DIIS/ADIIS
   @DF-RHF iter   4: -3953.64454655574536   -2.38188e-02   4.56534e-05 DIIS
   @DF-RHF iter   5: -3953.64964695691606   -5.10040e-03   1.25191e-05 DIIS
   @DF-RHF iter   6: -3953.65019396751768   -5.47011e-04   4.82219e-06 DIIS
   @DF-RHF iter   7: -3953.65039193187386   -1.97964e-04   2.29832e-06 DIIS
   @DF-RHF iter   8: -3953.65045834072225   -6.64088e-05   1.13399e-06 DIIS
   @DF-RHF iter   9: -3953.65047755691103   -1.92162e-05   3.78333e-07 DIIS
   @DF-RHF iter  10: -3953.65047888573554   -1.32882e-06   1.56314e-07 DIIS
   @DF-RHF iter  11: -3953.65047904817175   -1.62436e-07   7.12037e-08 DIIS
   @DF-RHF iter  12: -3953.65047908343467   -3.52629e-08   3.85788e-08 DIIS
   @DF-RHF iter  13: -3953.65047909535087   -1.19162e-08   1.43365e-08 DIIS
   @DF-RHF iter  14: -3953.65047909722398   -1.87310e-09   7.08184e-09 DIIS
  Energy and wave function converged.


  ==> Post-Iterations <==

    Orbital Energies [Eh]
    ---------------------

    Doubly Occupied:                                                      

       1A    -15.786105     2A    -15.785493     3A    -11.481906  
       4A    -11.412358     5A    -11.410810     6A    -11.402614  
       7A    -11.399910     8A    -11.343774     9A    -11.343291  
      10A    -11.342736    11A    -11.342308    12A    -11.342059  
      13A    -11.341569    14A    -11.341391    15A    -11.341157  
      16A    -11.341110    17A    -11.340904    18A    -11.340501  
      19A    -11.339478    20A    -11.339381    21A    -11.339205  
      22A    -11.339117    23A    -11.339014    24A    -11.338205  
      25A    -11.338107    26A    -11.338027    27A    -11.337926  
      28A    -11.337862    29A    -11.337771    30A    -11.336717  
      31A    -11.336551    32A    -11.334191    33A    -11.333888  
      34A    -11.333691    35A    -11.333545    36A    -11.333434  
      37A    -11.333379    38A    -11.333228    39A    -11.333072  
      40A    -11.332518    41A    -11.332461    42A    -11.331949  
      43A    -11.331793    44A    -11.330815    45A    -11.330655  
      46A    -11.330596    47A    -11.330480    48A    -11.330414  
      49A    -11.330350    50A    -11.330040    51A    -11.329904  
      52A    -11.329798    53A    -11.329767    54A    -11.329610  
      55A    -11.329434    56A    -11.329407    57A    -11.329381  
      58A    -11.329373    59A    -11.329344    60A    -11.329279  
      61A    -11.328949    62A    -11.328824    63A    -11.328718  
      64A    -11.328623    65A    -11.328364    66A    -11.328311  
      67A    -11.327807    68A    -11.327739    69A    -11.327653  
      70A    -11.327633    71A    -11.327565    72A    -11.327394  
      73A    -11.327387    74A    -11.327369    75A    -11.327274  
      76A    -11.326779    77A    -11.326725    78A    -11.326367  
      79A    -11.326352    80A    -11.320608    81A    -11.320505  
      82A    -11.320482    83A    -11.320430    84A    -11.320404  
      85A    -11.320397    86A    -11.320379    87A    -11.320306  
      88A    -11.319771    89A    -11.319691    90A    -11.319375  
      91A    -11.319291    92A    -11.317167    93A    -11.317112  
      94A    -11.317084    95A    -11.317070    96A    -11.316204  
      97A    -11.316174    98A    -11.315685    99A    -11.315639  
     100A    -11.315605   101A    -11.315598   102A    -11.314729  
     103A    -11.314699   104A     -1.529737   105A     -1.385520  
     106A     -1.330826   107A     -1.312685   108A     -1.311726  
     109A     -1.291478   110A     -1.291295   111A     -1.288657  
     112A     -1.270149   113A     -1.265469   114A     -1.261432  
     115A     -1.260591   116A     -1.242295   117A     -1.242262  
     118A     -1.228001   119A     -1.227625   120A     -1.225090  
     121A     -1.212631   122A     -1.212603   123A     -1.199100  
     124A     -1.191310   125A     -1.186527   126A     -1.184732  
     127A     -1.183892   128A     -1.180843   129A     -1.179050  
     130A     -1.158569   131A     -1.158534   132A     -1.144407  
     133A     -1.144380   134A     -1.142549   135A     -1.138619  
     136A     -1.138183   137A     -1.136483   138A     -1.116012  
     139A     -1.115993   140A     -1.110112   141A     -1.106135  
     142A     -1.106041   143A     -1.097552   144A     -1.095265  
     145A     -1.094695   146A     -1.077243   147A     -1.075385  
     148A     -1.072844   149A     -1.072450   150A     -1.071470  
     151A     -1.070752   152A     -1.057794   153A     -1.041009  
     154A     -1.040900   155A     -1.023955   156A     -1.023897  
     157A     -0.978943   158A     -0.978698   159A     -0.977978  
     160A     -0.974813   161A     -0.972079   162A     -0.972057  
     163A     -0.965294   164A     -0.965147   165A     -0.961586  
     166A     -0.961540   167A     -0.960210   168A     -0.949895  
     169A     -0.939652   170A     -0.934399   171A     -0.920709  
     172A     -0.919236   173A     -0.918840   174A     -0.916054  
     175A     -0.913514   176A     -0.903533   177A     -0.903436  
     178A     -0.894795   179A     -0.894734   180A     -0.870378  
     181A     -0.856119   182A     -0.855814   183A     -0.853068  
     184A     -0.851778   185A     -0.851735   186A     -0.850383  
     187A     -0.850346   188A     -0.836853   189A     -0.832878  
     190A     -0.820861   191A     -0.806704   192A     -0.800965  
     193A     -0.796630   194A     -0.796254   195A     -0.794693  
     196A     -0.794010   197A     -0.793745   198A     -0.789368  
     199A     -0.784526   200A     -0.784353   201A     -0.769843  
     202A     -0.767847   203A     -0.767590   204A     -0.765946  
     205A     -0.756998   206A     -0.754006   207A     -0.753932  
     208A     -0.750853   209A     -0.750795   210A     -0.748139  
     211A     -0.745622   212A     -0.742629   213A     -0.735792  
     214A     -0.721258   215A     -0.720647   216A     -0.720438  
     217A     -0.719306   218A     -0.719270   219A     -0.717287  
     220A     -0.711614   221A     -0.711309   222A     -0.708421  
     223A     -0.706911   224A     -0.705759   225A     -0.705574  
     226A     -0.698161   227A     -0.695191   228A     -0.684246  
     229A     -0.682121   230A     -0.682009   231A     -0.681194  
     232A     -0.677448   233A     -0.677441   234A     -0.675853  
     235A     -0.671208   236A     -0.670197   237A     -0.669209  
     238A     -0.669001   239A     -0.668756   240A     -0.667320  
     241A     -0.664071   242A     -0.663636   243A     -0.663488  
     244A     -0.663273   245A     -0.659472   246A     -0.659379  
     247A     -0.659046   248A     -0.646456   249A     -0.644814  
     250A     -0.643473   251A     -0.643335   252A     -0.642562  
     253A     -0.641528   254A     -0.639319   255A     -0.639188  
     256A     -0.634473   257A     -0.634244   258A     -0.628328  
     259A     -0.628021   260A     -0.626221   261A     -0.624653  
     262A     -0.623084   263A     -0.619318   264A     -0.613853  
     265A     -0.612415   266A     -0.608711   267A     -0.606892  
     268A     -0.601964   269A     -0.601826   270A     -0.598892  
     271A     -0.595553   272A     -0.595496   273A     -0.586199  
     274A     -0.586009   275A     -0.583421   276A     -0.583248  
     277A     -0.576751   278A     -0.576650   279A     -0.566866  
     280A     -0.566649   281A     -0.565278   282A     -0.565227  
     283A     -0.564933   284A     -0.561940   285A     -0.550932  
     286A     -0.548348   287A     -0.544683   288A     -0.544543  
     289A     -0.541881   290A     -0.539788   291A     -0.535658  
     292A     -0.535560   293A     -0.528198   294A     -0.518703  
     295A     -0.518514   296A     -0.516309   297A     -0.513218  
     298A     -0.512904   299A     -0.501197   300A     -0.500766  
     301A     -0.477883   302A     -0.477667   303A     -0.474449  
     304A     -0.458028   305A     -0.457482   306A     -0.455532  
     307A     -0.452121   308A     -0.451609   309A     -0.423404  
     310A     -0.423378   311A     -0.420359   312A     -0.413826  
     313A     -0.411657   314A     -0.409965   315A     -0.399125  
     316A     -0.398870   317A     -0.378990   318A     -0.374839  
     319A     -0.374662   320A     -0.368976   321A     -0.354319  
     322A     -0.324890   323A     -0.324715   324A     -0.321235  
     325A     -0.273570   326A     -0.273192  

    Virtual:                                                              

     327A     -0.080728   328A     -0.080261   329A     -0.042155  
     330A     -0.037502   331A     -0.036624   332A     -0.024994  
     333A     -0.023157   334A     -0.019161   335A     -0.011228  
     336A     -0.006001   337A     -0.005159   338A     -0.004330  
     339A     -0.004123   340A     -0.003891   341A     -0.002279  
     342A     -0.001869   343A     -0.001658   344A      0.002091  
     345A      0.002653   346A      0.003078   347A      0.003184  
     348A      0.006749   349A      0.007081   350A      0.007768  
     351A      0.011750   352A      0.012796   353A      0.012839  
     354A      0.014014   355A      0.016036   356A      0.016697  
     357A      0.018848   358A      0.023764   359A      0.023858  
     360A      0.023913   361A      0.026771   362A      0.027497  
     363A      0.030155   364A      0.032749   365A      0.033424  
     366A      0.034040   367A      0.037590   368A      0.038605  
     369A      0.039430   370A      0.040020   371A      0.040657  
     372A      0.042662   373A      0.043452   374A      0.045364  
     375A      0.048188   376A      0.048771   377A      0.048979  
     378A      0.049668   379A      0.049955   380A      0.051176  
     381A      0.051219   382A      0.051911   383A      0.053003  
     384A      0.055343   385A      0.055687   386A      0.057626  
     387A      0.058183   388A      0.061088   389A      0.061434  
     390A      0.064939   391A      0.067033   392A      0.067388  
     393A      0.070984   394A      0.071770   395A      0.074048  
     396A      0.074196   397A      0.074900   398A      0.076243  
     399A      0.076814   400A      0.078092   401A      0.080654  
     402A      0.082276   403A      0.082733   404A      0.083392  
     405A      0.083437   406A      0.085585   407A      0.086595  
     408A      0.087112   409A      0.089634   410A      0.092569  
     411A      0.093577   412A      0.093667   413A      0.096910  
     414A      0.098350   415A      0.101268   416A      0.102559  
     417A      0.104614   418A      0.105401   419A      0.105737  
     420A      0.106053   421A      0.106078   422A      0.109602  
     423A      0.110502   424A      0.111279   425A      0.112930  
     426A      0.113009   427A      0.113653   428A      0.114286  
     429A      0.117284   430A      0.122039   431A      0.123024  
     432A      0.125320   433A      0.125370   434A      0.126343  
     435A      0.126662   436A      0.127567   437A      0.129504  
     438A      0.130940   439A      0.132672   440A      0.133402  
     441A      0.133678   442A      0.134686   443A      0.135759  
     444A      0.138367   445A      0.140688   446A      0.141786  
     447A      0.142187   448A      0.143742   449A      0.144375  
     450A      0.144818   451A      0.145266   452A      0.145449  
     453A      0.145942   454A      0.148618   455A      0.150350  
     456A      0.150641   457A      0.151028   458A      0.151240  
     459A      0.152034   460A      0.152807   461A      0.153580  
     462A      0.153781   463A      0.156168   464A      0.156939  
     465A      0.157093   466A      0.158921   467A      0.159723  
     468A      0.160640   469A      0.163131   470A      0.164070  
     471A      0.164821   472A      0.165971   473A      0.166525  
     474A      0.168503   475A      0.169859   476A      0.170613  
     477A      0.171734   478A      0.171987   479A      0.172593  
     480A      0.172648   481A      0.173289   482A      0.174643  
     483A      0.175524   484A      0.177674   485A      0.179121  
     486A      0.180446   487A      0.182098   488A      0.182465  
     489A      0.182692   490A      0.183898   491A      0.186946  
     492A      0.188813   493A      0.190471   494A      0.191789  
     495A      0.192212   496A      0.192332   497A      0.192871  
     498A      0.195324   499A      0.196212   500A      0.199221  
     501A      0.199647   502A      0.200420   503A      0.200651  
     504A      0.202775   505A      0.203555   506A      0.204121  
     507A      0.205291   508A      0.205540   509A      0.206380  
     510A      0.207647   511A      0.208131   512A      0.208620  
     513A      0.210000   514A      0.210384   515A      0.210989  
     516A      0.211303   517A      0.212596   518A      0.213889  
     519A      0.215174   520A      0.215988   521A      0.218493  
     522A      0.218984   523A      0.220549   524A      0.223347  
     525A      0.223506   526A      0.224850   527A      0.225750  
     528A      0.226384   529A      0.226562   530A      0.227534  
     531A      0.228492   532A      0.228931   533A      0.231304  
     534A      0.232028   535A      0.234329   536A      0.234927  
     537A      0.235663   538A      0.237264   539A      0.238531  
     540A      0.239641   541A      0.240141   542A      0.240453  
     543A      0.241946   544A      0.242264   545A      0.243825  
     546A      0.244187   547A      0.244833   548A      0.247420  
     549A      0.248283   550A      0.248477   551A      0.251636  
     552A      0.252434   553A      0.252756   554A      0.254381  
     555A      0.254914   556A      0.255591   557A      0.256805  
     558A      0.257593   559A      0.257626   560A      0.259092  
     561A      0.259431   562A      0.259982   563A      0.261175  
     564A      0.261395   565A      0.262194   566A      0.263390  
     567A      0.265020   568A      0.266129   569A      0.266242  
     570A      0.267493   571A      0.268376   572A      0.270151  
     573A      0.270248   574A      0.270803   575A      0.271396  
     576A      0.272165   577A      0.272822   578A      0.273156  
     579A      0.274432   580A      0.276803   581A      0.276985  
     582A      0.277949   583A      0.279182   584A      0.279936  
     585A      0.282028   586A      0.283847   587A      0.284369  
     588A      0.286185   589A      0.286376   590A      0.286760  
     591A      0.287277   592A      0.288269   593A      0.289062  
     594A      0.289571   595A      0.290779   596A      0.292605  
     597A      0.293030   598A      0.294249   599A      0.295667  
     600A      0.296355   601A      0.297875   602A      0.298108  
     603A      0.298964   604A      0.299653   605A      0.300721  
     606A      0.301083   607A      0.303904   608A      0.305352  
     609A      0.305640   610A      0.307861   611A      0.309031  
     612A      0.309754   613A      0.311493   614A      0.311633  
     615A      0.312506   616A      0.315141   617A      0.315336  
     618A      0.315739   619A      0.316597   620A      0.317587  
     621A      0.318710   622A      0.319211   623A      0.319427  
     624A      0.320180   625A      0.321034   626A      0.321327  
     627A      0.323167   628A      0.323384   629A      0.324656  
     630A      0.326408   631A      0.327795   632A      0.328621  
     633A      0.329268   634A      0.329563   635A      0.330888  
     636A      0.331387   637A      0.333778   638A      0.333810  
     639A      0.333992   640A      0.334837   641A      0.335195  
     642A      0.336617   643A      0.337637   644A      0.339122  
     645A      0.339556   646A      0.339974   647A      0.340157  
     648A      0.341147   649A      0.341343   650A      0.341722  
     651A      0.342718   652A      0.343349   653A      0.343986  
     654A      0.344687   655A      0.345194   656A      0.346189  
     657A      0.346895   658A      0.348904   659A      0.350416  
     660A      0.350944   661A      0.352255   662A      0.352727  
     663A      0.353317   664A      0.354045   665A      0.356089  
     666A      0.356897   667A      0.357010   668A      0.358179  
     669A      0.358863   670A      0.360837   671A      0.362195  
     672A      0.363309   673A      0.364282   674A      0.364844  
     675A      0.365420   676A      0.366489   677A      0.367178  
     678A      0.367668   679A      0.368504   680A      0.370480  
     681A      0.371236   682A      0.372250   683A      0.373875  
     684A      0.375142   685A      0.376533   686A      0.377245  
     687A      0.378382   688A      0.378819   689A      0.380100  
     690A      0.381224   691A      0.383026   692A      0.383749  
     693A      0.384851   694A      0.386498   695A      0.386844  
     696A      0.388051   697A      0.388567   698A      0.388982  
     699A      0.389687   700A      0.390505   701A      0.391225  
     702A      0.391773   703A      0.392537   704A      0.393640  
     705A      0.395416   706A      0.397820   707A      0.398855  
     708A      0.399480   709A      0.401100   710A      0.401833  
     711A      0.403120   712A      0.403619   713A      0.403983  
     714A      0.404759   715A      0.405713   716A      0.406305  
     717A      0.408004   718A      0.409148   719A      0.409911  
     720A      0.410281   721A      0.411252   722A      0.411511  
     723A      0.412666   724A      0.415110   725A      0.416746  
     726A      0.417522   727A      0.418227   728A      0.419419  
     729A      0.420912   730A      0.421816   731A      0.423119  
     732A      0.423477   733A      0.425818   734A      0.426510  
     735A      0.429039   736A      0.430109   737A      0.430572  
     738A      0.430905   739A      0.431415   740A      0.432234  
     741A      0.433497   742A      0.435016   743A      0.435581  
     744A      0.437253   745A      0.437895   746A      0.438956  
     747A      0.440370   748A      0.440542   749A      0.442034  
     750A      0.442729   751A      0.445142   752A      0.445216  
     753A      0.446758   754A      0.448902   755A      0.450745  
     756A      0.452850   757A      0.453040   758A      0.454013  
     759A      0.454271   760A      0.455604   761A      0.456691  
     762A      0.457968   763A      0.458275   764A      0.460361  
     765A      0.461055   766A      0.461412   767A      0.463896  
     768A      0.464303   769A      0.465983   770A      0.468916  
     771A      0.470105   772A      0.470843   773A      0.472562  
     774A      0.473905   775A      0.474325   776A      0.475764  
     777A      0.476594   778A      0.477708   779A      0.478652  
     780A      0.478799   781A      0.484895   782A      0.487654  
     783A      0.491857   784A      0.494545   785A      0.495556  
     786A      0.496516   787A      0.497047   788A      0.498521  
     789A      0.499176   790A      0.500293   791A      0.503262  
     792A      0.505127   793A      0.507603   794A      0.508665  
     795A      0.509761   796A      0.510734   797A      0.511235  
     798A      0.512074   799A      0.512607   800A      0.513677  
     801A      0.514763   802A      0.517219   803A      0.518414  
     804A      0.518596   805A      0.519239   806A      0.520565  
     807A      0.521764   808A      0.524055   809A      0.524738  
     810A      0.530440   811A      0.531361   812A      0.532156  
     813A      0.532927   814A      0.535285   815A      0.537262  
     816A      0.538031   817A      0.538779   818A      0.540307  
     819A      0.542240   820A      0.542881   821A      0.547656  
     822A      0.548620   823A      0.553400   824A      0.553893  
     825A      0.554449   826A      0.556622   827A      0.558271  
     828A      0.561217   829A      0.565394   830A      0.566442  
     831A      0.571185   832A      0.571700   833A      0.572332  
     834A      0.580013   835A      0.582000   836A      0.585947  
     837A      0.588084   838A      0.589134   839A      0.589737  
     840A      0.591323   841A      0.592159   842A      0.593674  
     843A      0.598666   844A      0.601325   845A      0.604245  
     846A      0.607636   847A      0.608638   848A      0.611413  
     849A      0.611557   850A      0.613506   851A      0.617499  
     852A      0.620378   853A      0.623560   854A      0.624158  
     855A      0.625418   856A      0.628026   857A      0.630140  
     858A      0.631328   859A      0.634037   860A      0.635171  
     861A      0.638421   862A      0.641207   863A      0.643344  
     864A      0.648146   865A      0.657018   866A      0.657714  
     867A      0.665244   868A      0.668827   869A      0.671626  
     870A      0.673300   871A      0.673972   872A      0.676398  
     873A      0.677882   874A      0.680314   875A      0.681018  
     876A      0.682117   877A      0.685270   878A      0.699615  
     879A      0.709551   880A      0.716642   881A      0.716893  
     882A      0.719807   883A      0.721691   884A      0.724302  
     885A      0.726506   886A      0.726783   887A      0.729429  
     888A      0.732174   889A      0.736461   890A      0.738338  
     891A      0.742946   892A      0.744584   893A      0.745392  
     894A      0.749114   895A      0.751613   896A      0.754089  
     897A      0.755198   898A      0.757688   899A      0.758721  
     900A      0.761125   901A      0.763511   902A      0.766654  
     903A      0.767208   904A      0.768479   905A      0.770031  
     906A      0.771505   907A      0.773529   908A      0.775606  
     909A      0.779287   910A      0.780552   911A      0.781294  
     912A      0.784882   913A      0.786902   914A      0.788537  
     915A      0.790756   916A      0.791525   917A      0.793949  
     918A      0.794489   919A      0.797737   920A      0.800412  
     921A      0.800920   922A      0.803015   923A      0.804510  
     924A      0.805137   925A      0.807187   926A      0.808327  
     927A      0.809967   928A      0.812344   929A      0.814072  
     930A      0.814276   931A      0.815196   932A      0.818396  
     933A      0.820458   934A      0.821193   935A      0.821666  
     936A      0.823887   937A      0.824712   938A      0.825666  
     939A      0.825990   940A      0.827538   941A      0.829706  
     942A      0.831993   943A      0.835393   944A      0.836057  
     945A      0.838169   946A      0.839030   947A      0.841051  
     948A      0.843024   949A      0.843659   950A      0.846003  
     951A      0.847470   952A      0.850277   953A      0.851704  
     954A      0.853391   955A      0.854077   956A      0.854836  
     957A      0.855726   958A      0.856757   959A      0.857244  
     960A      0.859016   961A      0.862728   962A      0.862779  
     963A      0.864692   964A      0.865590   965A      0.867666  
     966A      0.870558   967A      0.870759   968A      0.872037  
     969A      0.875912   970A      0.877678   971A      0.877983  
     972A      0.878526   973A      0.878727   974A      0.880223  
     975A      0.880684   976A      0.881676   977A      0.884755  
     978A      0.885331   979A      0.887957   980A      0.888741  
     981A      0.889387   982A      0.891456   983A      0.891929  
     984A      0.893883   985A      0.894648   986A      0.895896  
     987A      0.896032   988A      0.898126   989A      0.900404  
     990A      0.902124   991A      0.904711   992A      0.907274  
     993A      0.911819   994A      0.914332   995A      0.917422  
     996A      0.920578   997A      0.921785   998A      0.923101  
     999A      0.925209  1000A      0.925668  1001A      0.925816  
    1002A      0.927617  1003A      0.928166  1004A      0.930361  
    1005A      0.933404  1006A      0.934543  1007A      0.936522  
    1008A      0.938138  1009A      0.939135  1010A      0.939569  
    1011A      0.940471  1012A      0.941747  1013A      0.942580  
    1014A      0.945780  1015A      0.946150  1016A      0.947806  
    1017A      0.949049  1018A      0.950364  1019A      0.952664  
    1020A      0.956857  1021A      0.957405  1022A      0.958211  
    1023A      0.959251  1024A      0.959765  1025A      0.961264  
    1026A      0.963413  1027A      0.965302  1028A      0.968296  
    1029A      0.968659  1030A      0.970597  1031A      0.970839  
    1032A      0.971075  1033A      0.972876  1034A      0.976652  
    1035A      0.977677  1036A      0.978063  1037A      0.979998  
    1038A      0.980954  1039A      0.982189  1040A      0.982985  
    1041A      0.984756  1042A      0.984940  1043A      0.985719  
    1044A      0.987306  1045A      0.988870  1046A      0.990573  
    1047A      0.991778  1048A      0.993489  1049A      0.994620  
    1050A      0.994841  1051A      0.996174  1052A      0.998134  
    1053A      0.999070  1054A      1.000405  1055A      1.001062  
    1056A      1.002776  1057A      1.003361  1058A      1.003719  
    1059A      1.005319  1060A      1.006219  1061A      1.006729  
    1062A      1.006940  1063A      1.008038  1064A      1.008116  
    1065A      1.009982  1066A      1.011218  1067A      1.011979  
    1068A      1.012500  1069A      1.013496  1070A      1.013948  
    1071A      1.014846  1072A      1.016095  1073A      1.016884  
    1074A      1.017362  1075A      1.019656  1076A      1.020070  
    1077A      1.021914  1078A      1.022151  1079A      1.022771  
    1080A      1.023759  1081A      1.024717  1082A      1.025755  
    1083A      1.026908  1084A      1.027367  1085A      1.027894  
    1086A      1.030190  1087A      1.031048  1088A      1.032839  
    1089A      1.033713  1090A      1.034524  1091A      1.036067  
    1092A      1.037434  1093A      1.039282  1094A      1.040094  
    1095A      1.040376  1096A      1.042817  1097A      1.044021  
    1098A      1.045864  1099A      1.046817  1100A      1.048537  
    1101A      1.049815  1102A      1.050401  1103A      1.052295  
    1104A      1.055710  1105A      1.057355  1106A      1.058117  
    1107A      1.060103  1108A      1.062198  1109A      1.063232  
    1110A      1.064725  1111A      1.066470  1112A      1.067340  
    1113A      1.067737  1114A      1.073368  1115A      1.074271  
    1116A      1.076663  1117A      1.076957  1118A      1.078012  
    1119A      1.080833  1120A      1.081962  1121A      1.082800  
    1122A      1.084258  1123A      1.086322  1124A      1.088313  
    1125A      1.090162  1126A      1.090752  1127A      1.092564  
    1128A      1.093285  1129A      1.094200  1130A      1.096556  
    1131A      1.098633  1132A      1.099586  1133A      1.100616  
    1134A      1.102664  1135A      1.104168  1136A      1.105485  
    1137A      1.106371  1138A      1.110902  1139A      1.115968  
    1140A      1.118019  1141A      1.118739  1142A      1.119951  
    1143A      1.123409  1144A      1.124781  1145A      1.125947  
    1146A      1.128623  1147A      1.132013  1148A      1.133308  
    1149A      1.135206  1150A      1.136927  1151A      1.140510  
    1152A      1.143130  1153A      1.144916  1154A      1.146493  
    1155A      1.150351  1156A      1.150811  1157A      1.152686  
    1158A      1.154172  1159A      1.154769  1160A      1.155602  
    1161A      1.157486  1162A      1.159039  1163A      1.160839  
    1164A      1.165757  1165A      1.167323  1166A      1.168760  
    1167A      1.170126  1168A      1.172146  1169A      1.174009  
    1170A      1.177693  1171A      1.180465  1172A      1.181789  
    1173A      1.184558  1174A      1.185450  1175A      1.188152  
    1176A      1.192802  1177A      1.194900  1178A      1.195982  
    1179A      1.196688  1180A      1.198817  1181A      1.200060  
    1182A      1.205489  1183A      1.206576  1184A      1.212141  
    1185A      1.213614  1186A      1.215711  1187A      1.219148  
    1188A      1.220440  1189A      1.222039  1190A      1.224460  
    1191A      1.226773  1192A      1.227261  1193A      1.227998  
    1194A      1.229111  1195A      1.230759  1196A      1.232850  
    1197A      1.234227  1198A      1.234523  1199A      1.238400  
    1200A      1.239796  1201A      1.243664  1202A      1.245464  
    1203A      1.246099  1204A      1.246589  1205A      1.249479  
    1206A      1.252351  1207A      1.253926  1208A      1.255410  
    1209A      1.255543  1210A      1.256666  1211A      1.258570  
    1212A      1.260541  1213A      1.262817  1214A      1.264603  
    1215A      1.267028  1216A      1.267499  1217A      1.271072  
    1218A      1.271588  1219A      1.272164  1220A      1.272454  
    1221A      1.274826  1222A      1.276710  1223A      1.278044  
    1224A      1.279667  1225A      1.285693  1226A      1.285913  
    1227A      1.287945  1228A      1.290516  1229A      1.294101  
    1230A      1.295252  1231A      1.297249  1232A      1.298964  
    1233A      1.300117  1234A      1.301270  1235A      1.302113  
    1236A      1.304066  1237A      1.307344  1238A      1.309693  
    1239A      1.311270  1240A      1.313646  1241A      1.315429  
    1242A      1.320541  1243A      1.321630  1244A      1.324185  
    1245A      1.325244  1246A      1.325790  1247A      1.329828  
    1248A      1.330494  1249A      1.331549  1250A      1.334346  
    1251A      1.335076  1252A      1.341379  1253A      1.342911  
    1254A      1.344180  1255A      1.346071  1256A      1.350095  
    1257A      1.351930  1258A      1.352715  1259A      1.355365  
    1260A      1.355743  1261A      1.360708  1262A      1.361675  
    1263A      1.363068  1264A      1.363913  1265A      1.364346  
    1266A      1.365797  1267A      1.367772  1268A      1.371035  
    1269A      1.372551  1270A      1.373994  1271A      1.379349  
    1272A      1.380018  1273A      1.382552  1274A      1.383888  
    1275A      1.384913  1276A      1.387416  1277A      1.388438  
    1278A      1.389299  1279A      1.389435  1280A      1.389942  
    1281A      1.392239  1282A      1.394672  1283A      1.398634  
    1284A      1.400871  1285A      1.404309  1286A      1.407994  
    1287A      1.409686  1288A      1.412100  1289A      1.414114  
    1290A      1.417674  1291A      1.418708  1292A      1.421314  
    1293A      1.423183  1294A      1.430248  1295A      1.435440  
    1296A      1.436190  1297A      1.436910  1298A      1.438638  
    1299A      1.439200  1300A      1.448740  1301A      1.450392  
    1302A      1.453729  1303A      1.462095  1304A      1.468175  
    1305A      1.472358  1306A      1.473437  1307A      1.476562  
    1308A      1.481603  1309A      1.482057  1310A      1.484534  
    1311A      1.486995  1312A      1.489453  1313A      1.507639  
    1314A      1.510729  1315A      1.512983  1316A      1.521471  
    1317A      1.524332  1318A      1.528856  1319A      1.529368  
    1320A      1.531884  1321A      1.534740  1322A      1.538174  
    1323A      1.540456  1324A      1.542465  1325A      1.543781  
    1326A      1.546034  1327A      1.547861  1328A      1.548845  
    1329A      1.550260  1330A      1.551056  1331A      1.553498  
    1332A      1.554314  1333A      1.555101  1334A      1.557178  
    1335A      1.559238  1336A      1.561488  1337A      1.562239  
    1338A      1.562842  1339A      1.564347  1340A      1.566106  
    1341A      1.566827  1342A      1.568093  1343A      1.569758  
    1344A      1.571342  1345A      1.573141  1346A      1.573315  
    1347A      1.574567  1348A      1.576681  1349A      1.577636  
    1350A      1.578868  1351A      1.581593  1352A      1.585387  
    1353A      1.586553  1354A      1.588721  1355A      1.589156  
    1356A      1.591486  1357A      1.592659  1358A      1.593150  
    1359A      1.594692  1360A      1.595747  1361A      1.596951  
    1362A      1.598471  1363A      1.598975  1364A      1.601058  
    1365A      1.602895  1366A      1.605457  1367A      1.606504  
    1368A      1.607710  1369A      1.609100  1370A      1.612320  
    1371A      1.617628  1372A      1.618493  1373A      1.621982  
    1374A      1.624092  1375A      1.628447  1376A      1.629101  
    1377A      1.629935  1378A      1.630885  1379A      1.632261  
    1380A      1.637878  1381A      1.638932  1382A      1.640610  
    1383A      1.642968  1384A      1.646076  1385A      1.647385  
    1386A      1.648818  1387A      1.650731  1388A      1.652854  
    1389A      1.653712  1390A      1.655287  1391A      1.657911  
    1392A      1.661332  1393A      1.663141  1394A      1.669929  
    1395A      1.672288  1396A      1.672647  1397A      1.677413  
    1398A      1.679747  1399A      1.680614  1400A      1.682763  
    1401A      1.686413  1402A      1.690971  1403A      1.695440  
    1404A      1.697597  1405A      1.702458  1406A      1.704959  
    1407A      1.710789  1408A      1.714930  1409A      1.720922  
    1410A      1.721618  1411A      1.723896  1412A      1.729636  
    1413A      1.731310  1414A      1.741806  1415A      1.744688  
    1416A      1.747840  1417A      1.753085  1418A      1.756183  
    1419A      1.757946  1420A      1.759229  1421A      1.760427  
    1422A      1.762146  1423A      1.763626  1424A      1.764801  
    1425A      1.766469  1426A      1.768017  1427A      1.769931  
    1428A      1.770961  1429A      1.773702  1430A      1.777374  
    1431A      1.778157  1432A      1.781674  1433A      1.783599  
    1434A      1.786977  1435A      1.790169  1436A      1.790376  
    1437A      1.791953  1438A      1.792752  1439A      1.793875  
    1440A      1.795411  1441A      1.799369  1442A      1.803790  
    1443A      1.804197  1444A      1.807785  1445A      1.808656  
    1446A      1.811050  1447A      1.812373  1448A      1.814105  
    1449A      1.815243  1450A      1.815592  1451A      1.816345  
    1452A      1.818513  1453A      1.819927  1454A      1.820591  
    1455A      1.821912  1456A      1.822707  1457A      1.825897  
    1458A      1.830406  1459A      1.832550  1460A      1.834808  
    1461A      1.837198  1462A      1.840021  1463A      1.841724  
    1464A      1.843403  1465A      1.846495  1466A      1.848248  
    1467A      1.851231  1468A      1.852113  1469A      1.854015  
    1470A      1.855111  1471A      1.855578  1472A      1.858038  
    1473A      1.859525  1474A      1.863136  1475A      1.867091  
    1476A      1.869699  1477A      1.872215  1478A      1.873592  
    1479A      1.875042  1480A      1.875477  1481A      1.877041  
    1482A      1.879216  1483A      1.879959  1484A      1.880621  
    1485A      1.884142  1486A      1.885364  1487A      1.886502  
    1488A      1.889666  1489A      1.891018  1490A      1.893251  
    1491A      1.895891  1492A      1.897192  1493A      1.899020  
    1494A      1.899564  1495A      1.900056  1496A      1.902247  
    1497A      1.903503  1498A      1.905015  1499A      1.905705  
    1500A      1.907251  1501A      1.910756  1502A      1.912505  
    1503A      1.914241  1504A      1.918471  1505A      1.920623  
    1506A      1.922978  1507A      1.924791  1508A      1.926457  
    1509A      1.927634  1510A      1.930020  1511A      1.933807  
    1512A      1.935556  1513A      1.939035  1514A      1.940419  
    1515A      1.942697  1516A      1.943428  1517A      1.944962  
    1518A      1.948244  1519A      1.948727  1520A      1.949769  
    1521A      1.950480  1522A      1.951240  1523A      1.952768  
    1524A      1.953219  1525A      1.955422  1526A      1.956571  
    1527A      1.960768  1528A      1.961415  1529A      1.962883  
    1530A      1.966655  1531A      1.969219  1532A      1.970274  
    1533A      1.972561  1534A      1.974082  1535A      1.975964  
    1536A      1.978657  1537A      1.979095  1538A      1.982056  
    1539A      1.982902  1540A      1.984868  1541A      1.986342  
    1542A      1.987358  1543A      1.989640  1544A      1.993088  
    1545A      1.996106  1546A      1.997310  1547A      1.999545  
    1548A      2.000323  1549A      2.001981  1550A      2.003468  
    1551A      2.004272  1552A      2.006583  1553A      2.007530  
    1554A      2.008507  1555A      2.010420  1556A      2.010977  
    1557A      2.013613  1558A      2.013794  1559A      2.014620  
    1560A      2.016101  1561A      2.017155  1562A      2.017371  
    1563A      2.019061  1564A      2.021456  1565A      2.023106  
    1566A      2.024181  1567A      2.026565  1568A      2.026865  
    1569A      2.027829  1570A      2.028943  1571A      2.029626  
    1572A      2.030335  1573A      2.031131  1574A      2.032369  
    1575A      2.035085  1576A      2.036415  1577A      2.037211  
    1578A      2.038241  1579A      2.040877  1580A      2.044347  
    1581A      2.045010  1582A      2.046677  1583A      2.049616  
    1584A      2.049994  1585A      2.050985  1586A      2.051717  
    1587A      2.053986  1588A      2.054151  1589A      2.056330  
    1590A      2.056684  1591A      2.058166  1592A      2.059715  
    1593A      2.061116  1594A      2.061755  1595A      2.062506  
    1596A      2.064150  1597A      2.065465  1598A      2.066411  
    1599A      2.069083  1600A      2.070497  1601A      2.073334  
    1602A      2.077200  1603A      2.078009  1604A      2.078563  
    1605A      2.080312  1606A      2.082132  1607A      2.085110  
    1608A      2.087288  1609A      2.089383  1610A      2.090697  
    1611A      2.092222  1612A      2.093534  1613A      2.094108  
    1614A      2.095007  1615A      2.098787  1616A      2.100112  
    1617A      2.101070  1618A      2.103795  1619A      2.104298  
    1620A      2.108430  1621A      2.111450  1622A      2.113912  
    1623A      2.114131  1624A      2.115608  1625A      2.117751  
    1626A      2.119390  1627A      2.121267  1628A      2.123325  
    1629A      2.125367  1630A      2.125958  1631A      2.126526  
    1632A      2.128457  1633A      2.129143  1634A      2.130644  
    1635A      2.135337  1636A      2.135988  1637A      2.137869  
    1638A      2.139674  1639A      2.140869  1640A      2.145153  
    1641A      2.145733  1642A      2.146549  1643A      2.149006  
    1644A      2.151269  1645A      2.152120  1646A      2.155224  
    1647A      2.156927  1648A      2.158206  1649A      2.159963  
    1650A      2.161563  1651A      2.163276  1652A      2.165472  
    1653A      2.167082  1654A      2.168614  1655A      2.168800  
    1656A      2.171366  1657A      2.175744  1658A      2.176199  
    1659A      2.177780  1660A      2.182824  1661A      2.183216  
    1662A      2.185987  1663A      2.187243  1664A      2.194785  
    1665A      2.201445  1666A      2.202269  1667A      2.204205  
    1668A      2.208898  1669A      2.209367  1670A      2.214237  
    1671A      2.215947  1672A      2.217888  1673A      2.218443  
    1674A      2.222898  1675A      2.225721  1676A      2.227054  
    1677A      2.229991  1678A      2.231027  1679A      2.233338  
    1680A      2.239808  1681A      2.241819  1682A      2.243478  
    1683A      2.249971  1684A      2.253244  1685A      2.257222  
    1686A      2.258590  1687A      2.260996  1688A      2.261854  
    1689A      2.262928  1690A      2.263995  1691A      2.265142  
    1692A      2.266818  1693A      2.268483  1694A      2.269765  
    1695A      2.273144  1696A      2.273579  1697A      2.274493  
    1698A      2.274929  1699A      2.275817  1700A      2.279051  
    1701A      2.280743  1702A      2.282744  1703A      2.286051  
    1704A      2.291354  1705A      2.301449  1706A      2.305734  
    1707A      2.308508  1708A      2.316787  1709A      2.318126  
    1710A      2.319837  1711A      2.321548  1712A      2.324139  
    1713A      2.332226  1714A      2.337832  1715A      2.342033  
    1716A      2.346761  1717A      2.351011  1718A      2.353385  
    1719A      2.357605  1720A      2.359935  1721A      2.363632  
    1722A      2.364605  1723A      2.377327  1724A      2.382422  
    1725A      2.384527  1726A      2.387110  1727A      2.395276  
    1728A      2.397894  1729A      2.398144  1730A      2.401889  
    1731A      2.404242  1732A      2.404598  1733A      2.404954  
    1734A      2.422929  1735A      2.426499  1736A      2.429092  
    1737A      2.436179  1738A      2.436955  1739A      2.439406  
    1740A      2.442094  1741A      2.446078  1742A      2.452007  
    1743A      2.456428  1744A      2.469604  1745A      2.472239  
    1746A      2.473712  1747A      2.475628  1748A      2.475829  
    1749A      2.481047  1750A      2.483019  1751A      2.484422  
    1752A      2.484522  1753A      2.485760  1754A      2.486584  
    1755A      2.488238  1756A      2.495539  1757A      2.501111  
    1758A      2.504133  1759A      2.507112  1760A      2.518170  
    1761A      2.519657  1762A      2.520816  1763A      2.522420  
    1764A      2.522539  1765A      2.525229  1766A      2.525516  
    1767A      2.528407  1768A      2.531597  1769A      2.536043  
    1770A      2.537096  1771A      2.545838  1772A      2.546192  
    1773A      2.548052  1774A      2.548531  1775A      2.549593  
    1776A      2.551263  1777A      2.551334  1778A      2.565626  
    1779A      2.567506  1780A      2.576543  1781A      2.578557  
    1782A      2.579129  1783A      2.582054  1784A      2.583397  
    1785A      2.584933  1786A      2.589908  1787A      2.590061  
    1788A      2.592302  1789A      2.593463  1790A      2.594240  
    1791A      2.599890  1792A      2.602571  1793A      2.604743  
    1794A      2.604983  1795A      2.609715  1796A      2.611419  
    1797A      2.616595  1798A      2.619443  1799A      2.620694  
    1800A      2.621274  1801A      2.623487  1802A      2.623942  
    1803A      2.626665  1804A      2.627505  1805A      2.630111  
    1806A      2.631262  1807A      2.633546  1808A      2.639401  
    1809A      2.657375  1810A      2.659320  1811A      2.659463  
    1812A      2.663918  1813A      2.668206  1814A      2.669874  
    1815A      2.678548  1816A      2.692183  1817A      2.697269  
    1818A      2.699471  1819A      2.708055  1820A      2.713284  
    1821A      2.717977  1822A      2.718828  1823A      2.728452  
    1824A      2.729270  1825A      2.730640  1826A      2.731945  
    1827A      2.735186  1828A      2.737800  1829A      2.741896  
    1830A      2.743165  1831A      2.745749  1832A      2.749318  
    1833A      2.750897  1834A      2.751950  1835A      2.755996  
    1836A      2.757908  1837A      2.761223  1838A      2.765470  
    1839A      2.771269  1840A      2.773015  1841A      2.776589  
    1842A      2.779085  1843A      2.779703  1844A      2.785561  
    1845A      2.794911  1846A      2.796063  1847A      2.799773  
    1848A      2.804520  1849A      2.807962  1850A      2.810787  
    1851A      2.820839  1852A      2.821527  1853A      2.822893  
    1854A      2.839142  1855A      2.849863  1856A      2.853316  
    1857A      2.854705  1858A      2.865635  1859A      2.865804  
    1860A      2.867929  1861A      2.869827  1862A      2.873485  
    1863A      2.895134  1864A      2.898156  1865A      2.901684  
    1866A      2.904680  1867A      2.909810  1868A      2.912519  
    1869A      2.924516  1870A      2.933996  1871A      2.940711  
    1872A      2.961235  1873A      2.962053  1874A      2.978647  
    1875A      2.982957  1876A      2.984033  1877A      2.986800  
    1878A      2.988146  1879A      2.991372  1880A      2.993957  
    1881A      3.003860  1882A      3.007659  1883A      3.039310  
    1884A      3.045215  1885A      3.047982  1886A      3.048417  
    1887A      3.056690  1888A      3.063510  1889A      3.064778  
    1890A      3.072341  1891A      3.075533  1892A      3.077196  
    1893A      3.079201  1894A      3.086404  1895A      3.089136  
    1896A      3.089910  1897A      3.091311  1898A      3.092096  
    1899A      3.092589  1900A      3.096196  1901A      3.098013  
    1902A      3.111448  1903A      3.113749  1904A      3.117567  
    1905A      3.126580  1906A      3.129470  1907A      3.139281  
    1908A      3.144135  1909A      3.156698  1910A      3.192324  
    1911A      3.196208  1912A      3.196376  1913A      3.197670  
    1914A      3.200490  1915A      3.205972  1916A      3.208915  
    1917A      3.210677  1918A      3.211874  1919A      3.216983  
    1920A      3.229338  1921A      3.230883  1922A      3.247376  
    1923A      3.257207  1924A      3.294772  1925A      3.295512  
    1926A      3.314872  1927A      3.346672  1928A      3.369985  
    1929A      3.381501  1930A      3.385964  1931A      3.393450  
    1932A      3.397365  1933A      3.399817  1934A      3.407252  
    1935A      3.410673  1936A      3.415310  1937A      3.421909  
    1938A      3.424965  1939A      3.436609  1940A      3.448798  
    1941A      3.466145  1942A      3.492209  1943A      3.513997  
    1944A      3.516354  1945A      3.521293  1946A      3.523665  
    1947A      3.535807  1948A      3.581254  1949A      3.605810  
    1950A      3.608001  1951A      3.615613  1952A      3.639262  
    1953A      3.647961  1954A      3.690149  1955A      3.695071  
    1956A      3.702135  1957A      3.709735  1958A      3.711897  
    1959A      3.731743  1960A      3.778458  1961A      3.782952  
    1962A      3.808842  1963A      3.810945  1964A      3.856963  
    1965A      3.860705  1966A      3.879682  1967A      3.881547  
    1968A      3.895893  1969A      3.899177  1970A      3.906019  
    1971A      3.916566  1972A      3.921224  1973A      3.952286  
    1974A      3.954321  1975A      4.026090  1976A      4.227123  
    1977A      4.290155  1978A      4.394306  

    Final Occupation by Irrep:
              A 
    DOCC [   326 ]
    NA   [   326 ]
    NB   [   326 ]

  @DF-RHF Final Energy: -3953.65047909722398

   => Energetics <=

    Nuclear Repulsion Energy =          18476.3562407796707703
    One-Electron Energy =              -42155.8895274743481423
    Two-Electron Energy =               19725.8828075974524836
    Total Energy =                      -3953.6504790972248884

Computation Completed


Properties will be evaluated at   0.000000,   0.000000,   0.000000 [a0]

Properties computed using the SCF density matrix


 Multipole Moments:

 ------------------------------------------------------------------------------------
     Multipole            Electronic (a.u.)      Nuclear  (a.u.)        Total (a.u.)
 ------------------------------------------------------------------------------------

 L = 1.  Multiply by 2.5417464519 to convert [e a0] to [Debye]
 Dipole X            :          0.0005438            0.0004804            0.0010242
 Dipole Y            :         -1.6394998            1.8866171            0.2471173
 Dipole Z            :        -16.0541402           19.9850400            3.9308998
 Magnitude           :                                                    3.9386599

 ------------------------------------------------------------------------------------

*** tstop() called on n2cn1075 at Sat Feb 10 14:28:53 2024
Module time:
	user time   =   28837.47 seconds =     480.62 minutes
	system time =    1722.72 seconds =      28.71 minutes
	total time  =       3258 seconds =      54.30 minutes
Total time:
	user time   =   28837.47 seconds =     480.62 minutes
	system time =    1722.72 seconds =      28.71 minutes
	total time  =       3258 seconds =      54.30 minutes

  //>>>>>>>>>>>>>>>>>>>>>>>>>>>>>>>>>>>//
  //            Monomer A HF           //
  //<<<<<<<<<<<<<<<<<<<<<<<<<<<<<<<<<<<//

   => Libint2 <=

    Primary   basis highest AM E, G, H:  5, 4, 3
    Auxiliary basis highest AM E, G, H:  6, 5, 4
    Onebody   basis highest AM E, G, H:  6, 5, 4
    Solid Harmonics ordering:            gaussian

*** tstart() called on n2cn1075
*** at Sat Feb 10 14:28:53 2024

   => Loading Basis Set <=

    Name: JUN-CC-PVDZ
    Role: ORBITAL
    Keyword: BASIS
    atoms 1-2, 4-5, 10, 17-34, 41-53, 56-70, 73-89, 92-104, 109-119, 122-130 entry C          line   164 file /opt/software/pc2/EB-SW/software/PSI4/1.9-foss-2022a/share/psi4/basis/jun-cc-pvdz.gbs 
    atoms 3, 6                                                               entry N          line   198 file /opt/software/pc2/EB-SW/software/PSI4/1.9-foss-2022a/share/psi4/basis/jun-cc-pvdz.gbs 
    atoms 7-9, 11-16, 35-40, 54-55, 71-72, 90-91, 105-108, 120-121, 131-136  entry H          line    36 file /opt/software/pc2/EB-SW/software/PSI4/1.9-foss-2022a/share/psi4/basis/jun-cc-pvdz.gbs 


         ---------------------------------------------------------
                                   SCF
               by Justin Turney, Rob Parrish, Andy Simmonett
                          and Daniel G. A. Smith
                              RHF Reference
                       16 Threads,  76293 MiB Core
         ---------------------------------------------------------

  ==> Geometry <==

    Molecular point group: c1
    Full point group: C1

    Geometry (in Angstrom), charge = 1, multiplicity = 1:

       Center              X                  Y                   Z               Mass       
    ------------   -----------------  -----------------  -----------------  -----------------
         C            0.680062820275    -1.215917226251     3.056439379518    12.000000000000
         C           -0.680508179725    -1.215533226251     3.054411379518    12.000000000000
         N           -1.085639179725     0.102790773749     3.053413379518    14.003074004430
         C            0.000103820275     0.884191773749     3.050137379518    12.000000000000
[...]
    1594A      2.222879  1595A      2.223606  1596A      2.225101  
    1597A      2.226068  1598A      2.228812  1599A      2.230071  
    1600A      2.233044  1601A      2.233807  1602A      2.235538  
    1603A      2.237120  1604A      2.238190  1605A      2.239421  
    1606A      2.241542  1607A      2.242859  1608A      2.249067  
    1609A      2.250598  1610A      2.252438  1611A      2.252894  
    1612A      2.255598  1613A      2.260937  1614A      2.263141  
    1615A      2.265587  1616A      2.270224  1617A      2.273424  
    1618A      2.274656  1619A      2.276542  1620A      2.278275  
    1621A      2.283177  1622A      2.285126  1623A      2.285335  
    1624A      2.286919  1625A      2.290231  1626A      2.294113  
    1627A      2.295548  1628A      2.298608  1629A      2.301410  
    1630A      2.304743  1631A      2.309115  1632A      2.312486  
    1633A      2.319687  1634A      2.322037  1635A      2.324083  
    1636A      2.326123  1637A      2.327920  1638A      2.330724  
    1639A      2.330990  1640A      2.332100  1641A      2.332417  
    1642A      2.334137  1643A      2.334858  1644A      2.337393  
    1645A      2.340301  1646A      2.341242  1647A      2.342318  
    1648A      2.343060  1649A      2.343831  1650A      2.344993  
    1651A      2.346170  1652A      2.348102  1653A      2.349190  
    1654A      2.352914  1655A      2.356220  1656A      2.366690  
    1657A      2.370955  1658A      2.373400  1659A      2.378334  
    1660A      2.383143  1661A      2.386438  1662A      2.389464  
    1663A      2.394012  1664A      2.395134  1665A      2.401723  
    1666A      2.409973  1667A      2.410837  1668A      2.412928  
    1669A      2.417416  1670A      2.419922  1671A      2.421102  
    1672A      2.425482  1673A      2.427347  1674A      2.430866  
    1675A      2.433513  1676A      2.438442  1677A      2.444185  
    1678A      2.451462  1679A      2.453557  1680A      2.459454  
    1681A      2.462389  1682A      2.464886  1683A      2.466486  
    1684A      2.467630  1685A      2.470008  1686A      2.472268  
    1687A      2.473101  1688A      2.481437  1689A      2.490176  
    1690A      2.494301  1691A      2.497398  1692A      2.502437  
    1693A      2.504343  1694A      2.509209  1695A      2.512698  
    1696A      2.514190  1697A      2.516353  1698A      2.518156  
    1699A      2.525517  1700A      2.540552  1701A      2.541148  
    1702A      2.541494  1703A      2.545249  1704A      2.546763  
    1705A      2.548062  1706A      2.550876  1707A      2.551028  
    1708A      2.551438  1709A      2.555402  1710A      2.557188  
    1711A      2.557495  1712A      2.564724  1713A      2.568117  
    1714A      2.572280  1715A      2.572446  1716A      2.580486  
    1717A      2.584367  1718A      2.586027  1719A      2.586515  
    1720A      2.586808  1721A      2.589361  1722A      2.589591  
    1723A      2.593495  1724A      2.594474  1725A      2.598951  
    1726A      2.603277  1727A      2.604395  1728A      2.610522  
    1729A      2.611805  1730A      2.614982  1731A      2.616194  
    1732A      2.616847  1733A      2.617812  1734A      2.621580  
    1735A      2.630411  1736A      2.639407  1737A      2.640360  
    1738A      2.645049  1739A      2.646868  1740A      2.647163  
    1741A      2.648650  1742A      2.650951  1743A      2.653602  
    1744A      2.654342  1745A      2.659187  1746A      2.659924  
    1747A      2.662518  1748A      2.665179  1749A      2.666631  
    1750A      2.670674  1751A      2.671366  1752A      2.673426  
    1753A      2.675575  1754A      2.680336  1755A      2.681499  
    1756A      2.684001  1757A      2.689970  1758A      2.690499  
    1759A      2.691886  1760A      2.693315  1761A      2.695946  
    1762A      2.696656  1763A      2.698357  1764A      2.702979  
    1765A      2.706199  1766A      2.710599  1767A      2.712247  
    1768A      2.720399  1769A      2.723311  1770A      2.724828  
    1771A      2.729736  1772A      2.733042  1773A      2.738778  
    1774A      2.741977  1775A      2.747357  1776A      2.754959  
    1777A      2.758353  1778A      2.760791  1779A      2.779197  
    1780A      2.781177  1781A      2.785312  1782A      2.791869  
    1783A      2.793891  1784A      2.800441  1785A      2.800638  
    1786A      2.802634  1787A      2.802810  1788A      2.803609  
    1789A      2.808034  1790A      2.816138  1791A      2.816909  
    1792A      2.820741  1793A      2.823212  1794A      2.826247  
    1795A      2.833691  1796A      2.834111  1797A      2.836796  
    1798A      2.839428  1799A      2.841153  1800A      2.844070  
    1801A      2.847575  1802A      2.850950  1803A      2.864396  
    1804A      2.866076  1805A      2.868574  1806A      2.869542  
    1807A      2.873938  1808A      2.876970  1809A      2.879933  
    1810A      2.895328  1811A      2.896206  1812A      2.897425  
    1813A      2.899106  1814A      2.917416  1815A      2.919884  
    1816A      2.922546  1817A      2.929185  1818A      2.933612  
    1819A      2.934155  1820A      2.937498  1821A      2.944255  
    1822A      2.948004  1823A      2.961168  1824A      2.967173  
    1825A      2.971823  1826A      2.972754  1827A      2.976742  
    1828A      2.986982  1829A      2.993902  1830A      2.997368  
    1831A      3.018364  1832A      3.023189  1833A      3.033380  
    1834A      3.036721  1835A      3.046900  1836A      3.049890  
    1837A      3.052219  1838A      3.054752  1839A      3.057172  
    1840A      3.060512  1841A      3.060827  1842A      3.064766  
    1843A      3.071973  1844A      3.075307  1845A      3.096305  
    1846A      3.109996  1847A      3.114190  1848A      3.114729  
    1849A      3.123885  1850A      3.131454  1851A      3.132500  
    1852A      3.136363  1853A      3.143067  1854A      3.143895  
    1855A      3.147477  1856A      3.149322  1857A      3.154463  
    1858A      3.155507  1859A      3.155998  1860A      3.162266  
    1861A      3.163518  1862A      3.167336  1863A      3.168218  
    1864A      3.169193  1865A      3.178921  1866A      3.182005  
    1867A      3.191450  1868A      3.197808  1869A      3.198515  
    1870A      3.221270  1871A      3.250195  1872A      3.261893  
    1873A      3.264759  1874A      3.266616  1875A      3.266933  
    1876A      3.269638  1877A      3.272934  1878A      3.274913  
    1879A      3.278346  1880A      3.281229  1881A      3.288466  
    1882A      3.289744  1883A      3.300598  1884A      3.304034  
    1885A      3.309810  1886A      3.316628  1887A      3.324269  
    1888A      3.354788  1889A      3.363784  1890A      3.367307  
    1891A      3.383520  1892A      3.405266  1893A      3.411210  
    1894A      3.419569  1895A      3.435970  1896A      3.447887  
    1897A      3.461494  1898A      3.468031  1899A      3.471308  
    1900A      3.473642  1901A      3.484927  1902A      3.490630  
    1903A      3.493979  1904A      3.494815  1905A      3.500414  
    1906A      3.517256  1907A      3.524999  1908A      3.528214  
    1909A      3.554493  1910A      3.569635  1911A      3.585198  
    1912A      3.589102  1913A      3.592923  1914A      3.602632  
    1915A      3.628545  1916A      3.648935  1917A      3.672120  
    1918A      3.674082  1919A      3.680876  1920A      3.685904  
    1921A      3.702735  1922A      3.716098  1923A      3.759157  
    1924A      3.764758  1925A      3.768639  1926A      3.774006  
    1927A      3.780042  1928A      3.789438  1929A      3.810580  
    1930A      3.844083  1931A      3.851030  1932A      3.852440  
    1933A      3.879134  1934A      3.881899  1935A      3.904629  
    1936A      3.925841  1937A      3.929699  1938A      3.949569  
    1939A      3.950921  1940A      3.971844  1941A      3.975378  
    1942A      3.977717  1943A      3.987956  1944A      3.995507  
    1945A      4.016463  1946A      4.025272  1947A      4.028039  
    1948A      4.097667  1949A      4.282508  1950A      4.285615  
    1951A      4.315168  1952A      4.375865  1953A      4.446428  
    1954A      4.583761  1955A      4.636739  1956A      4.652380  
    1957A      4.835594  1958A      4.864841  1959A      4.891032  
    1960A      4.936402  1961A      4.999291  1962A      5.097925  
    1963A      5.113293  1964A      5.114923  1965A      5.168849  
    1966A      5.205432  1967A      5.415824  1968A      5.449583  
    1969A      5.783396  1970A      5.789880  1971A      6.084539  
    1972A     18.225580  1973A     18.486693  1974A     18.504898  
    1975A     18.602585  1976A     18.913512  1977A     25.374220  
    1978A     25.412731  

    Final Occupation by Irrep:
              A 
    DOCC [   300 ]
    NA   [   300 ]
    NB   [   300 ]

  @DF-RHF Final Energy: -3650.34240730703414

   => Energetics <=

    Nuclear Repulsion Energy =          15611.4211649754324753
    One-Electron Energy =              -36072.2152641207721899
    Two-Electron Energy =               16810.4516918383051234
    Total Energy =                      -3650.3424073070345912

Computation Completed


Properties will be evaluated at   0.000000,   0.000000,   0.000000 [a0]

Properties computed using the SCF density matrix


 Multipole Moments:

 ------------------------------------------------------------------------------------
     Multipole            Electronic (a.u.)      Nuclear  (a.u.)        Total (a.u.)
 ------------------------------------------------------------------------------------

 L = 1.  Multiply by 2.5417464519 to convert [e a0] to [Debye]
 Dipole X            :          0.0007994            0.0002112            0.0010106
 Dipole Y            :          0.0030297           -0.0044281           -0.0013984
 Dipole Z            :        285.2676837         -285.2726352           -0.0049515
 Magnitude           :                                                    0.0052435

 ------------------------------------------------------------------------------------

*** tstop() called on n2cn1075 at Sat Feb 10 15:18:26 2024
Module time:
	user time   =   19837.53 seconds =     330.63 minutes
	system time =    1216.58 seconds =      20.28 minutes
	total time  =       1970 seconds =      32.83 minutes
Total time:
	user time   =   55397.75 seconds =     923.30 minutes
	system time =    3400.37 seconds =      56.67 minutes
	total time  =       6231 seconds =     103.85 minutes
  Constructing Basis Sets for SAPT...

   => Loading Basis Set <=

    Name: (JUN-CC-PVDZ AUX)
    Role: RIFIT
    Keyword: DF_BASIS_SAPT
    atoms 1-2, 4-5, 10, 17-34, 41-53, 56-70, 73-89, 92-104, 109-119, 122-130 entry C          line   100 file /opt/software/pc2/EB-SW/software/PSI4/1.9-foss-2022a/share/psi4/basis/jun-cc-pvdz-ri.gbs 
    atoms 3, 6                                                               entry N          line   144 file /opt/software/pc2/EB-SW/software/PSI4/1.9-foss-2022a/share/psi4/basis/jun-cc-pvdz-ri.gbs 
    atoms 7-9, 11-16, 35-40, 54-55, 71-72, 90-91, 105-108, 120-121, 131-136  entry H          line    30 file /opt/software/pc2/EB-SW/software/PSI4/1.9-foss-2022a/share/psi4/basis/jun-cc-pvdz-ri.gbs 

   => Loading Basis Set <=

    Name: (JUN-CC-PVDZ AUX)
    Role: JKFIT
    Keyword: DF_BASIS_ELST
    atoms 1-2, 4-5, 10, 17-34, 41-53, 56-70, 73-89, 92-104, 109-119, 122-130 entry C          line   146 file /opt/software/pc2/EB-SW/software/PSI4/1.9-foss-2022a/share/psi4/basis/jun-cc-pvdz-jkfit.gbs 
    atoms 3, 6                                                               entry N          line   202 file /opt/software/pc2/EB-SW/software/PSI4/1.9-foss-2022a/share/psi4/basis/jun-cc-pvdz-jkfit.gbs 
    atoms 7-9, 11-16, 35-40, 54-55, 71-72, 90-91, 105-108, 120-121, 131-136  entry H          line    70 file /opt/software/pc2/EB-SW/software/PSI4/1.9-foss-2022a/share/psi4/basis/jun-cc-pvdz-jkfit.gbs 


  //>>>>>>>>>>>>>>>>>>>>>>>>>>>>>>>>>>>//
  //               SSAPT0              //
  //<<<<<<<<<<<<<<<<<<<<<<<<<<<<<<<<<<<//


*** tstart() called on n2cn1075
*** at Sat Feb 10 15:18:27 2024

        SAPT0  
    Ed Hohenstein
     6 June 2009

      Orbital Information
  --------------------------
    NSO        =      2019
    NMO        =      1978
    NRI        =      7157
    NRI (Elst) =      8896
    NOCC A     =        26
    NOCC B     =       300
    FOCC A     =         7
    FOCC B     =        96
    NVIR A     =      1952
    NVIR B     =      1678

    Elst10,r            =    -0.025113830200 [Eh]
    Exch10              =     0.036259667879 [Eh]
    Exch10 (S^2)        =     0.036108258260 [Eh]

    Iter     Energy [mEh]          dE [mEh]         Residual      Time [s]
       1      -3.87568006       3.875680060       8.672704748           100
       2      -4.86703067       0.991350612       1.643759870           201
       3      -4.87894351       0.011912835       0.574839593           307
       4      -4.86753989      -0.011403622       0.194722374           400
       5      -4.86638554      -0.001154349       0.046723395           496
       6      -4.86705324       0.000667706       0.019568886           599
       7      -4.86719899       0.000145743       0.006717543           698
       8      -4.86710528      -0.000093707       0.002211211           798
       9      -4.86711502       0.000009745       0.000872242           903
      10      -4.86711989       0.000004868       0.000262765          1003
      11      -4.86711882      -0.000001071       0.000081516          1098
      12      -4.86711852      -0.000000303       0.000027168          1197
      13      -4.86711857       0.000000051       0.000008297          1302
      14      -4.86711860       0.000000036       0.000003145          1397
      15      -4.86711860      -0.000000006       0.000001346          1496
      16      -4.86711859      -0.000000006       0.000000393          1588

    CHF Iterations converged


    Iter     Energy [mEh]          dE [mEh]         Residual      Time [s]
       1     -29.73277311      29.732773109      84.734102101           125
       2     -21.75908553      -7.973687582      12.329021921           245
       3     -22.37890004       0.619814517       5.516554467           369
       4     -23.06747507       0.688575026       1.303689587           489
       5     -23.10681956       0.039344488       0.513277334           610
       6     -23.08588245      -0.020937106       0.309987593           739
       7     -23.07530995      -0.010572505       0.134107128           855
       8     -23.07924544       0.003935492       0.075842387           973
       9     -23.08166125       0.002415815       0.042118922          1091
      10     -23.08057450      -0.001086753       0.036743428          1213
      11     -23.08002922      -0.000545283       0.018613622          1344
      12     -23.08023024       0.000201027       0.009316088          1506
      13     -23.08042155       0.000191309       0.004046804          1630
      14     -23.08041314      -0.000008418       0.002478856          1760
      15     -23.08037632      -0.000036810       0.001537118          1887
      16     -23.08036516      -0.000011162       0.000709453          2015
      17     -23.08038265       0.000017485       0.000307207          2140
      18     -23.08038355       0.000000901       0.000171773          2269
      19     -23.08038003      -0.000003523       0.000100360          2395
      20     -23.08037917      -0.000000858       0.000051010          2518
      21     -23.08038018       0.000001016       0.000026002          2647
      22     -23.08038039       0.000000201       0.000012310          2775
      23     -23.08038021      -0.000000174       0.000006253          2901
      24     -23.08038015      -0.000000061       0.000003524          3027
      25     -23.08038018       0.000000027       0.000001938          3152
      26     -23.08038020       0.000000024       0.000000939          3275

    CHF Iterations converged

    Ind20,r (A<-B)      =    -0.004867118592 [Eh]
    Ind20,r (B<-A)      =    -0.023080380201 [Eh]
    Ind20,r             =    -0.027947498793 [Eh]
    Exch-Ind20,r (A<-B) =     0.004711029088 [Eh]
    Exch-Ind20,r (B<-A) =     0.007133826182 [Eh]
    Exch-Ind20,r        =     0.011844855270 [Eh]
    Disp20              =    -0.047029107678 [Eh]
    Disp20 (SS)         =    -0.023514553839 [Eh]
    Disp20 (OS)         =    -0.023514553839 [Eh]
    Exch-Disp20         =     0.003957528606 [Eh]
    Exch-Disp20 (SS)    =     0.002396713974 [Eh]
    Exch-Disp20 (OS)    =     0.001560814632 [Eh]

    SAPT Results 
  --------------------------------------------------------------------------------------------------------
    Electrostatics                -25.11383020 [mEh]     -15.75916637 [kcal/mol]     -65.93635211 [kJ/mol]
      Elst10,r                    -25.11383020 [mEh]     -15.75916637 [kcal/mol]     -65.93635211 [kJ/mol]

    Exchange                       36.25966788 [mEh]      22.75328511 [kcal/mol]      95.19974490 [kJ/mol]
      Exch10                       36.25966788 [mEh]      22.75328511 [kcal/mol]      95.19974490 [kJ/mol]
      Exch10(S^2)                  36.10825826 [mEh]      22.65827414 [kcal/mol]      94.80221900 [kJ/mol]

    Induction                     -19.79025512 [mEh]     -12.41857258 [kcal/mol]     -51.95930766 [kJ/mol]
      Ind20,r                     -27.94749879 [mEh]     -17.53732026 [kcal/mol]     -73.37614797 [kJ/mol]
      Exch-Ind20,r                 11.84485527 [mEh]       7.43275890 [kcal/mol]      31.09866323 [kJ/mol]
      delta HF,r (2)               -3.68761160 [mEh]      -2.31401121 [kcal/mol]      -9.68182291 [kJ/mol]

    Dispersion                    -43.07157907 [mEh]     -27.02782392 [kcal/mol]    -113.08441527 [kJ/mol]
      Disp20                      -47.02910768 [mEh]     -29.51121061 [kcal/mol]    -123.47490520 [kJ/mol]
      Exch-Disp20                   3.95752861 [mEh]       2.48338669 [kcal/mol]      10.39048992 [kJ/mol]
      Disp20 (SS)                 -23.51455384 [mEh]     -14.75560531 [kcal/mol]     -61.73745260 [kJ/mol]
      Disp20 (OS)                 -23.51455384 [mEh]     -14.75560531 [kcal/mol]     -61.73745260 [kJ/mol]
      Exch-Disp20 (SS)              2.39671397 [mEh]       1.50396072 [kcal/mol]       6.29257167 [kJ/mol]
      Exch-Disp20 (OS)              1.56081463 [mEh]       0.97942597 [kcal/mol]       4.09791825 [kJ/mol]

  Total HF                         -8.64441744 [mEh]      -5.42445384 [kcal/mol]     -22.69591486 [kJ/mol]
  Total SAPT0                     -51.71599651 [mEh]     -32.45227776 [kcal/mol]    -135.78033013 [kJ/mol]

  Special recipe for scaled SAPT0 (see Manual):
    Electrostatics sSAPT0         -25.11383020 [mEh]     -15.75916637 [kcal/mol]     -65.93635211 [kJ/mol]
    Exchange sSAPT0                36.25966788 [mEh]      22.75328511 [kcal/mol]      95.19974490 [kJ/mol]
    Induction sSAPT0              -19.64062544 [mEh]     -12.32467853 [kcal/mol]     -51.56645498 [kJ/mol]
    Dispersion sSAPT0             -43.02158574 [mEh]     -26.99645263 [kcal/mol]    -112.95315780 [kJ/mol]
  Total sSAPT0                    -51.51637350 [mEh]     -32.32701242 [kcal/mol]    -135.25621999 [kJ/mol]
  --------------------------------------------------------------------------------------------------------

*** tstop() called on n2cn1075 at Sat Feb 10 19:11:59 2024
Module time:
	user time   =   80518.97 seconds =    1341.98 minutes
	system time =    3932.56 seconds =      65.54 minutes
	total time  =      14012 seconds =     233.53 minutes
Total time:
	user time   =  135918.26 seconds =    2265.30 minutes
	system time =    7332.94 seconds =     122.22 minutes
	total time  =      20244 seconds =     337.40 minutes

    Psi4 stopped on: Saturday, 10 February 2024 07:11PM
    Psi4 wall time for execution: 5:37:25.90

*** Psi4 exiting successfully. Buy a developer a beer!
