
    -----------------------------------------------------------------------
          Psi4: An Open-Source Ab Initio Electronic Structure Package
                               Psi4 1.9 release

                         Git: Rev {} zzzzzzz 


    D. G. A. Smith, L. A. Burns, A. C. Simmonett, R. M. Parrish,
    M. C. Schieber, R. Galvelis, P. Kraus, H. Kruse, R. Di Remigio,
    A. Alenaizan, A. M. James, S. Lehtola, J. P. Misiewicz, M. Scheurer,
    R. A. Shaw, J. B. Schriber, Y. Xie, Z. L. Glick, D. A. Sirianni,
    J. S. O'Brien, J. M. Waldrop, A. Kumar, E. G. Hohenstein,
    B. P. Pritchard, B. R. Brooks, H. F. Schaefer III, A. Yu. Sokolov,
    K. Patkowski, A. E. DePrince III, U. Bozkaya, R. A. King,
    F. A. Evangelista, J. M. Turney, T. D. Crawford, C. D. Sherrill,
    J. Chem. Phys. 152(18) 184108 (2020). https://doi.org/10.1063/5.0006002

                            Additional Code Authors
    E. T. Seidl, C. L. Janssen, E. F. Valeev, M. L. Leininger,
    J. F. Gonthier, R. M. Richard, H. R. McAlexander, M. Saitow, X. Wang,
    P. Verma, M. H. Lechner, A. Jiang, S. Behnle, A. G. Heide,
    M. F. Herbst, and D. L. Poole

             Previous Authors, Complete List of Code Contributors,
                       and Citations for Specific Modules
    https://github.com/psi4/psi4/blob/master/codemeta.json
    https://github.com/psi4/psi4/graphs/contributors
    http://psicode.org/psi4manual/master/introduction.html#citing-psifour

    -----------------------------------------------------------------------


    Psi4 started on: Monday, 22 January 2024 04:39PM

    Process ID: 361626
    Host:       d-16-5-1
    PSIDATADIR: /home/gridsan/tfroembgen/.conda/envs/psi4test/share/psi4
    Memory:     500.0 MiB
    Threads:    12
    
  ==> Input File <==

--------------------------------------------------------------------------
memory 32 GB # how much memory is available ! Depends on the nodes/cores !

molecule dimer {
# monomer A
+1 1    # Charge and multiplicity
C  0.680067 -1.215929 3.408042
C -0.680504 -1.215545 3.406014
N -1.085635  0.102779 3.405016
C  0.000108  0.884180 3.401740
C -2.477365  0.570758 3.355610
N  1.085222  0.102779 3.405016
H  1.385146 -2.033368 3.415870
H -1.385302 -2.033214 3.406204
H -0.000009  1.965269 3.399993
C  2.478117  0.567877 3.421908
H  2.490592  1.658130 3.394563
H  2.967028  0.220701 4.335354
H  3.001428  0.176405 2.546425
H -2.857359  0.490799 2.333539
H -3.082679 -0.042306 4.025694
H -2.518128  1.610706 3.682594
--
# monomer B
0 1     # Charge and multiplicity
C   1.22531237526482      0.70753866091955      0.00613762728373
C   1.22532433589282     -0.70753852257020     -0.00619318228664
C   -0.00000567409046      1.41496628609039     -0.00672680580738
C   2.45644923379077      1.41832825917820      0.00902448468363
C   0.00001130712078     -1.41497612663474      0.00347275151708
C   -1.22530046906674      0.70754574598412      0.00838914760619
C   2.45643823516184     -1.41832293188077     -0.00843833914343
C   -0.00000085313587      2.83680140328112     -0.00913035594137
C   3.68182717731192      0.70931832800114     -0.00808954934571
C   2.45512052870677      2.83422403348893     -0.00819210630633
C   3.68182158506039     -0.70933346742900      0.00798293467272
C   -1.22531311884624     -0.70752714354401     -0.00512042085974
C   1.22670006104402      3.54346985599427      0.00816696660346
C   0.00000526469929     -2.83678176723568      0.00832091913869
C   -2.45643555300670      1.41831729028492      0.00842454345199
C   2.45512389762097     -2.83422965658853      0.00783102630520
C   -1.22671388474763      3.54346943575023      0.00827029982280
C   4.91451777504333      1.42717324448953     -0.00160886631602
C   3.69315067131765      3.54279566454522     -0.00155906667985
C   -2.45643712022637     -1.41831290883911     -0.00846337726810
C   1.22670532178455     -3.54347386990643     -0.00780316414624
C   -2.45512491866593      2.83421703463423     -0.00818572995999
C   4.91452486062398     -1.42718653794377      0.00136387641845
C   1.22142509354026      4.97013443726031      0.00150231067809
C   4.89300870916237      2.82518837202648     -0.00039219795739
C   -1.22669652864725     -3.54347062507680     -0.00753595973677
C   -3.68181849668397      0.70932533873199     -0.00807686886569
C   3.69314758099218     -3.54280096939050      0.00148176697923
C   -1.22143177215231      4.97012866986289      0.00168580605083
C   6.13477145276790      0.68054831910577     -0.00083909176631
C   3.65678936045204      4.97295361556775     -0.00065042889723
C   -2.45512642789169     -2.83421472106065      0.00758666850712
C   -3.68181869921921     -0.70932533146830      0.00810055625144
C   4.89301309775526     -2.82519973363176      0.00021895393805
C   -0.00000059327114      5.65044773803267      0.00045449734393
C   6.13477559217374     -0.68055448207492      0.00042622874941
C   2.47813196269732      5.65357712333155      0.00063835075260
C   1.22142288457925     -4.97012668293268     -0.00129718634452
C   -3.69316190412301      3.54279732619245     -0.00139355922051
C   -1.22142804110313     -4.97011793159564     -0.00140994817719
C   -4.91452132810043      1.42717581899491     -0.00153192130862
C   3.65678749952045     -4.97295485423912      0.00080007163680
C   -2.47813805026426      5.65357479452875      0.00092287576113
C   -3.69314125872231     -3.54278984697859      0.00136564082345
C   -4.91451200321153     -1.42718062802730      0.00139857359209
C   -0.00000552908399     -5.65043791501335      0.00005899322272
C   -4.89302000425900      2.82518897091939     -0.00040227981744
C   2.47812647313991     -5.65357317188818     -0.00029052915548
C   -3.65679823041642      4.97295655404175     -0.00047374852278
C   -4.89299899901461     -2.82519139505969      0.00006491824035
C   -2.47812801824129     -5.65356579800621     -0.00056571680280
C   -6.13477002348955      0.68054913825639     -0.00086464346868
C   -3.65678835334731     -4.97294365097028      0.00058578382008
C   -6.13476456307132     -0.68055354348201      0.00040575295444
H   5.83528897565761      3.36927626695423      0.00396712770529
H   7.07385965258860      1.22821762089947     -0.00037744837300
H   4.60066374401555      5.51238117445323     -0.00014522814529
H   5.83528386714679     -3.36930568472863     -0.00423551337640
H   -0.00001167146422      6.73853104613662     -0.00389474766392
H   7.07386165167227     -1.22822657074368     -0.00008250934481
H   2.47331421164041      6.74068466339473      0.00017162982210
H   4.60066897122302     -5.51237575717576      0.00039007446835
H   -2.47331820069565      6.74068209160650      0.00047297644710
H   -0.00000978838621     -6.73852780445195      0.00458867820736
H   -5.83530143450167      3.36927132229595      0.00410314985360
H   2.47330840367253     -6.74068500242887      0.00027980126949
H   -4.60067436136587      5.51237839860371      0.00002010017831
H   -5.83527902699321     -3.36928859177951     -0.00451481925734
H   -2.47329986759855     -6.74067870613986     -0.00016951527498
H   -7.07385728692578      1.22822084484047     -0.00046143985387
H   -4.60067330624313     -5.51236229778631      0.00021776644566
H   -7.07385645456741     -1.22822025997701     -0.00017736581114

    units angstrom      # Angstroms are the default
    no_reorient         # Geometry fixed, default
    symmetry c1         # C1 symmetry, default
}

set {
    scf_type DF         # Density fitting, faster than exact integrals
    freeze_core True    # Freeze core electrons
    basis jun-cc-pVDZ   # Jun-cc-pVDZ basis set, recommended for sSAPT0 in https://doi.org/10.1063/1.4867135
}

energy('ssapt0')        # Compute sSAPT0 energy, includes also SAPT0
--------------------------------------------------------------------------

  Memory set to  29.802 GiB by Python driver.

Scratch directory: /state/partition1/slurm_tmp/24798237.4294967291.0/
   => Loading Basis Set <=

    Name: JUN-CC-PVDZ
    Role: ORBITAL
    Keyword: BASIS
    atoms 1-2, 4-5, 10, 17-70 entry C          line   164 file /home/gridsan/tfroembgen/.conda/envs/psi4test/share/psi4/basis/jun-cc-pvdz.gbs 
    atoms 3, 6                entry N          line   198 file /home/gridsan/tfroembgen/.conda/envs/psi4test/share/psi4/basis/jun-cc-pvdz.gbs 
    atoms 7-9, 11-16, 71-88   entry H          line    36 file /home/gridsan/tfroembgen/.conda/envs/psi4test/share/psi4/basis/jun-cc-pvdz.gbs 

   => Loading Basis Set <=

    Name: JUN-CC-PVDZ
    Role: ORBITAL
    Keyword: BASIS
    atoms 1-2, 4-5, 10, 17-70 entry C          line   164 file /home/gridsan/tfroembgen/.conda/envs/psi4test/share/psi4/basis/jun-cc-pvdz.gbs 
    atoms 3, 6                entry N          line   198 file /home/gridsan/tfroembgen/.conda/envs/psi4test/share/psi4/basis/jun-cc-pvdz.gbs 
    atoms 7-9, 11-16, 71-88   entry H          line    36 file /home/gridsan/tfroembgen/.conda/envs/psi4test/share/psi4/basis/jun-cc-pvdz.gbs 


  //>>>>>>>>>>>>>>>>>>>>>>>>>>>>>>>>>>>//
  //              Dimer HF             //
  //<<<<<<<<<<<<<<<<<<<<<<<<<<<<<<<<<<<//

   => Libint2 <=

    Primary   basis highest AM E, G, H:  7, 7, 4
    Auxiliary basis highest AM E, G, H:  7, 7, 5
    Onebody   basis highest AM E, G, H:  7, 7, 5
    Solid Harmonics ordering:            gaussian

*** tstart() called on d-16-5-1
*** at Mon Jan 22 16:39:44 2024

   => Loading Basis Set <=

    Name: JUN-CC-PVDZ
    Role: ORBITAL
    Keyword: BASIS
    atoms 1-2, 4-5, 10, 17-70 entry C          line   164 file /home/gridsan/tfroembgen/.conda/envs/psi4test/share/psi4/basis/jun-cc-pvdz.gbs 
    atoms 3, 6                entry N          line   198 file /home/gridsan/tfroembgen/.conda/envs/psi4test/share/psi4/basis/jun-cc-pvdz.gbs 
    atoms 7-9, 11-16, 71-88   entry H          line    36 file /home/gridsan/tfroembgen/.conda/envs/psi4test/share/psi4/basis/jun-cc-pvdz.gbs 


         ---------------------------------------------------------
                                   SCF
               by Justin Turney, Rob Parrish, Andy Simmonett
                          and Daniel G. A. Smith
                              RHF Reference
                       12 Threads,  30517 MiB Core
         ---------------------------------------------------------

  ==> Geometry <==

    Molecular point group: c1
    Full point group: C1

    Geometry (in Angstrom), charge = 1, multiplicity = 1:

       Center              X                  Y                   Z               Mass       
    ------------   -----------------  -----------------  -----------------  -----------------
         C            0.680066520158    -1.215933861162     2.975585041632    12.000000000000
         C           -0.680504479842    -1.215549861162     2.973557041632    12.000000000000
         N           -1.085635479842     0.102774138838     2.972559041632    14.003074004430
         C            0.000107520158     0.884175138838     2.969283041632    12.000000000000
         C           -2.477365479842     0.570753138838     2.923153041632    12.000000000000
         N            1.085221520158     0.102774138838     2.972559041632    14.003074004430
         H            1.385145520158    -2.033372861162     2.983413041632     1.007825032230
         H           -1.385302479842    -2.033218861162     2.973747041632     1.007825032230
         H           -0.000009479842     1.965264138838     2.967536041632     1.007825032230
         C            2.478116520158     0.567872138838     2.989451041632    12.000000000000
         H            2.490591520158     1.658125138838     2.962106041632     1.007825032230
         H            2.967027520158     0.220696138838     3.902897041632     1.007825032230
         H            3.001427520158     0.176400138838     2.113968041632     1.007825032230
         H           -2.857359479842     0.490794138838     1.901082041632     1.007825032230
         H           -3.082679479842    -0.042310861162     3.593237041632     1.007825032230
         H           -2.518128479842     1.610701138838     3.250137041632     1.007825032230
         C            1.225311895423     0.707533799757    -0.426319331084    12.000000000000
         C            1.225323856051    -0.707543383733    -0.438650140655    12.000000000000
         C           -0.000006153932     1.414961424928    -0.439183764176    12.000000000000
         C            2.456448753949     1.418323398016    -0.423432473685    12.000000000000
         C            0.000010827279    -1.414980987797    -0.428984206851    12.000000000000
         C           -1.225300948908     0.707540884822    -0.424067810762    12.000000000000
         C            2.456437755320    -1.418327793043    -0.440895297512    12.000000000000
         C           -0.000001332978     2.836796542119    -0.441587314310    12.000000000000
         C            3.681826697470     0.709313466839    -0.440546507714    12.000000000000
         C            2.455120048865     2.834219172327    -0.440649064674    12.000000000000
         C            3.681821105219    -0.709338328591    -0.424474023695    12.000000000000
         C           -1.225313598688    -0.707532004706    -0.437577379228    12.000000000000
         C            1.226699581202     3.543464994832    -0.424289991765    12.000000000000
         C            0.000004784858    -2.836786628398    -0.424136039229    12.000000000000
         C           -2.456436032848     1.418312429123    -0.424032414916    12.000000000000
         C            2.455123417779    -2.834234517751    -0.424625932063    12.000000000000
         C           -1.226714364589     3.543464574588    -0.424186658545    12.000000000000
         C            4.914517295202     1.427168383327    -0.434065824684    12.000000000000
         C            3.693150191476     3.542790803383    -0.434016025048    12.000000000000
         C           -2.456437600068    -1.418317770001    -0.440920335636    12.000000000000
         C            1.226704841943    -3.543478731069    -0.440260122514    12.000000000000
         C           -2.455125398508     2.834212173472    -0.440642688328    12.000000000000
         C            4.914524380782    -1.427191399106    -0.431093081950    12.000000000000
         C            1.221424613699     4.970129576098    -0.430954647690    12.000000000000
         C            4.893008229321     2.825183510864    -0.432849156326    12.000000000000
         C           -1.226697008489    -3.543475486239    -0.439992918105    12.000000000000
         C           -3.681818976526     0.709320477570    -0.440533827234    12.000000000000
         C            3.693147101150    -3.542805830553    -0.430975191389    12.000000000000
         C           -1.221432251994     4.970123808701    -0.430771152317    12.000000000000
         C            6.134770972926     0.680543457943    -0.433296050134    12.000000000000
         C            3.656788880610     4.972948754405    -0.433107387265    12.000000000000
         C           -2.455126907733    -2.834219582223    -0.424870289861    12.000000000000
         C           -3.681819179061    -0.709330192631    -0.424356402117    12.000000000000
         C            4.893012617914    -2.825204594794    -0.432238004430    12.000000000000
         C           -0.000001073113     5.650442876870    -0.432002461024    12.000000000000
         C            6.134775112332    -0.680559343237    -0.432030729619    12.000000000000
         C            2.478131482856     5.653572262169    -0.431818607616    12.000000000000
         C            1.221422404738    -4.970131544095    -0.433754144713    12.000000000000
         C           -3.693162383965     3.542792465030    -0.433850517589    12.000000000000
         C           -1.221428520945    -4.970122792758    -0.433866906545    12.000000000000
         C           -4.914521807942     1.427170957833    -0.433988879677    12.000000000000
         C            3.656787019679    -4.972959715401    -0.431656886731    12.000000000000
         C           -2.478138530106     5.653569933366    -0.431534082607    12.000000000000
         C           -3.693141738564    -3.542794708141    -0.431091317545    12.000000000000
         C           -4.914512483053    -1.427185489190    -0.431058384776    12.000000000000
         C           -0.000006008926    -5.650442776176    -0.432397965145    12.000000000000
         C           -4.893020484101     2.825184109757    -0.432859238186    12.000000000000
         C            2.478125993298    -5.653578033051    -0.432747487524    12.000000000000
         C           -3.656798710258     4.972951692879    -0.432930706891    12.000000000000
         C           -4.892999478856    -2.825196256222    -0.432392040128    12.000000000000
         C           -2.478128498083    -5.653570659169    -0.433022675171    12.000000000000
         C           -6.134770503331     0.680544277094    -0.433321601837    12.000000000000
         C           -3.656788833189    -4.972948512133    -0.431871174548    12.000000000000
         C           -6.134765042913    -0.680558404644    -0.432051205414    12.000000000000
         H            5.835288495816     3.369271405792    -0.428489830663     1.007825032230
         H            7.073859172747     1.228212759737    -0.432834406741     1.007825032230
         H            4.600663264174     5.512376313291    -0.432602186513     1.007825032230
         H            5.835283387305    -3.369310545891    -0.436692471745     1.007825032230
         H           -0.000012151306     6.738526184974    -0.436351706032     1.007825032230
         H            7.073861171831    -1.228231431906    -0.432539467713     1.007825032230
         H            2.473313731799     6.740679802232    -0.432285328546     1.007825032230
         H            4.600668491381    -5.512380618338    -0.432066883900     1.007825032230
         H           -2.473318680537     6.740677230444    -0.431983981921     1.007825032230
         H           -0.000010268228    -6.738532665614    -0.427868280161     1.007825032230
         H           -5.835301914343     3.369266461134    -0.428353808515     1.007825032230
         H            2.473307923831    -6.740689863591    -0.432177157099     1.007825032230
         H           -4.600674841208     5.512373537441    -0.432436858190     1.007825032230
         H           -5.835279506835    -3.369293452942    -0.436971777625     1.007825032230
         H           -2.473300347440    -6.740683567302    -0.432626473643     1.007825032230
         H           -7.073857766768     1.228215983678    -0.432918398222     1.007825032230
         H           -4.600673786085    -5.512367158949    -0.432239191922     1.007825032230
         H           -7.073856934409    -1.228225121139    -0.432634324179     1.007825032230

  Running in c1 symmetry.

  Rotational constants: A =      0.00195  B =      0.00191  C =      0.00109 [cm^-1]
  Rotational constants: A =     58.38699  B =     57.25160  C =     32.56832 [MHz]
  Nuclear repulsion = 8456.484486960349386

  Charge       = 1
  Multiplicity = 1
  Electrons    = 394
  Nalpha       = 197
  Nbeta        = 197

  ==> Algorithm <==

  SCF Algorithm Type is DF.
  DIIS enabled.
  MOM disabled.
  Fractional occupation disabled.
  Guess Type is SAD.
  Energy threshold   = 1.00e-08
  Density threshold  = 1.00e-08
  Integral threshold = 1.00e-12

  ==> Primary Basis <==

  Basis Set: JUN-CC-PVDZ
    Blend: JUN-CC-PVDZ
    Number of shells: 569
    Number of basis functions: 1233
    Number of Cartesian functions: 1294
    Spherical Harmonics?: true
    Max angular momentum: 2

   => Loading Basis Set <=

    Name: (JUN-CC-PVDZ AUX)
    Role: JKFIT
    Keyword: DF_BASIS_SCF
    atoms 1-2, 4-5, 10, 17-70 entry C          line   146 file /home/gridsan/tfroembgen/.conda/envs/psi4test/share/psi4/basis/jun-cc-pvdz-jkfit.gbs 
    atoms 3, 6                entry N          line   202 file /home/gridsan/tfroembgen/.conda/envs/psi4test/share/psi4/basis/jun-cc-pvdz-jkfit.gbs 
    atoms 7-9, 11-16, 71-88   entry H          line    70 file /home/gridsan/tfroembgen/.conda/envs/psi4test/share/psi4/basis/jun-cc-pvdz-jkfit.gbs 

  ==> Integral Setup <==

  ==> DiskDFJK: Density-Fitted J/K Matrices <==

    J tasked:                  Yes
    K tasked:                  Yes
    wK tasked:                  No
    OpenMP threads:             12
    Integrals threads:          12
    Memory [MiB]:            22888
    Algorithm:                Disk
    Integral Cache:           SAVE
    Schwarz Cutoff:          1E-12
    Fitting Condition:       1E-10

   => Auxiliary Basis Set <=

  Basis Set: (JUN-CC-PVDZ AUX)
    Blend: JUN-CC-PVDZ-JKFIT
    Number of shells: 1890
    Number of basis functions: 5440
    Number of Cartesian functions: 6226
    Spherical Harmonics?: true
    Max angular momentum: 3

  Minimum eigenvalue in the overlap matrix is 5.8548511689E-10.
  Reciprocal condition number of the overlap matrix is 2.2873366818E-11.
    Using canonical orthogonalization.
  Overall, 14 of 1233 possible MOs eliminated.


  ==> Pre-Iterations <==

  SCF Guess: Superposition of Atomic Densities via on-the-fly atomic UHF (no occupation information).

   -------------------------
    Irrep   Nso     Nmo    
   -------------------------
     A       1233    1219 
   -------------------------
    Total    1233    1219
   -------------------------

  ==> Iterations <==

                           Total Energy        Delta E     RMS |[F,P]|

   @DF-RHF iter SAD: -2365.92147534005062   -2.36592e+03   0.00000e+00 
   @DF-RHF iter   1: -2358.21051996050392    7.71096e+00   9.43404e-04 ADIIS/DIIS
   @DF-RHF iter   2: -2359.10049763535881   -8.89978e-01   3.20311e-04 ADIIS/DIIS
   @DF-RHF iter   3: -2359.18990041754796   -8.94028e-02   1.21717e-04 ADIIS/DIIS
   @DF-RHF iter   4: -2359.20333345800464   -1.34330e-02   4.72942e-05 DIIS
   @DF-RHF iter   5: -2359.20545919132610   -2.12573e-03   1.27610e-05 DIIS
   @DF-RHF iter   6: -2359.20568105973052   -2.21868e-04   5.57386e-06 DIIS
   @DF-RHF iter   7: -2359.20576116186658   -8.01021e-05   2.40389e-06 DIIS
   @DF-RHF iter   8: -2359.20578409358404   -2.29317e-05   1.14907e-06 DIIS
   @DF-RHF iter   9: -2359.20578996467748   -5.87109e-06   3.00693e-07 DIIS
   @DF-RHF iter  10: -2359.20579026176893   -2.97091e-07   1.25234e-07 DIIS
   @DF-RHF iter  11: -2359.20579028742077   -2.56518e-08   5.48344e-08 DIIS
   @DF-RHF iter  12: -2359.20579029345663   -6.03586e-09   2.60624e-08 DIIS
   @DF-RHF iter  13: -2359.20579029540795   -1.95132e-09   8.86768e-09 DIIS
  Energy and wave function converged.


  ==> Post-Iterations <==

    Orbital Energies [Eh]
    ---------------------

    Doubly Occupied:                                                      

       1A    -15.793898     2A    -15.793292     3A    -11.489671  
       4A    -11.420034     5A    -11.418482     6A    -11.410478  
       7A    -11.408193     8A    -11.349750     9A    -11.349234  
      10A    -11.348716    11A    -11.348062    12A    -11.347929  
      13A    -11.346917    14A    -11.345891    15A    -11.345704  
      16A    -11.345539    17A    -11.345368    18A    -11.345195  
      19A    -11.343276    20A    -11.342929    21A    -11.342805  
      22A    -11.342717    23A    -11.342584    24A    -11.341925  
      25A    -11.341805    26A    -11.341704    27A    -11.341647  
      28A    -11.341411    29A    -11.341352    30A    -11.340750  
      31A    -11.340473    32A    -11.340413    33A    -11.340281  
      34A    -11.340205    35A    -11.340125    36A    -11.339991  
      37A    -11.339976    38A    -11.339873    39A    -11.339793  
      40A    -11.339260    41A    -11.339252    42A    -11.338232  
      43A    -11.338153    44A    -11.333005    45A    -11.332738  
      46A    -11.332236    47A    -11.331918    48A    -11.331896  
      49A    -11.330915    50A    -11.330291    51A    -11.330175  
      52A    -11.329959    53A    -11.329851    54A    -11.328841  
      55A    -11.328734    56A    -11.328584    57A    -11.328569  
      58A    -11.328510    59A    -11.328411    60A    -11.327103  
      61A    -11.327090    62A     -1.537403    63A     -1.393217  
      64A     -1.331395    65A     -1.305229    66A     -1.304089  
      67A     -1.272896    68A     -1.272651    69A     -1.265831  
      70A     -1.239113    71A     -1.231682    72A     -1.220187  
      73A     -1.219418    74A     -1.198574    75A     -1.194412  
      76A     -1.194397    77A     -1.166289    78A     -1.165976  
      79A     -1.162147    80A     -1.149443    81A     -1.146669  
      82A     -1.146657    83A     -1.121427    84A     -1.109074  
      85A     -1.106748    86A     -1.106072    87A     -1.098674  
      88A     -1.092934    89A     -1.079785    90A     -1.070153  
      91A     -1.069930    92A     -1.043028    93A     -1.042946  
      94A     -0.982720    95A     -0.976235    96A     -0.976229  
      97A     -0.972384    98A     -0.969964    99A     -0.969747  
     100A     -0.964576   101A     -0.964486   102A     -0.957425  
     103A     -0.943034   104A     -0.916436   105A     -0.900173  
     106A     -0.899840   107A     -0.895058   108A     -0.894682  
     109A     -0.877959   110A     -0.874914   111A     -0.874891  
     112A     -0.830243   113A     -0.827899   114A     -0.816408  
     115A     -0.816079   116A     -0.813260   117A     -0.812579  
     118A     -0.812559   119A     -0.798515   120A     -0.780367  
     121A     -0.779934   122A     -0.777289   123A     -0.775626  
     124A     -0.775233   125A     -0.773582   126A     -0.751835  
     127A     -0.750062   128A     -0.743106   129A     -0.741369  
     130A     -0.735173   131A     -0.734241   132A     -0.730160  
     133A     -0.730108   134A     -0.720249   135A     -0.719957  
     136A     -0.711638   137A     -0.709691   138A     -0.709586  
     139A     -0.695381   140A     -0.691416   141A     -0.688046  
     142A     -0.684234   143A     -0.682688   144A     -0.680909  
     145A     -0.680026   146A     -0.679649   147A     -0.676050  
     148A     -0.674822   149A     -0.674393   150A     -0.663656  
     151A     -0.661273   152A     -0.659525   153A     -0.648651  
     154A     -0.648323   155A     -0.646711   156A     -0.646563  
     157A     -0.640905   158A     -0.634553   159A     -0.634301  
     160A     -0.621750   161A     -0.620188   162A     -0.618495  
     163A     -0.618468   164A     -0.613289   165A     -0.610852  
     166A     -0.603957   167A     -0.603555   168A     -0.580108  
     169A     -0.577600   170A     -0.573384   171A     -0.570579  
     172A     -0.567308   173A     -0.563101   174A     -0.562966  
     175A     -0.557654   176A     -0.556301   177A     -0.554456  
     178A     -0.534575   179A     -0.534251   180A     -0.519849  
     181A     -0.519789   182A     -0.489077   183A     -0.488433  
     184A     -0.487992   185A     -0.483326   186A     -0.455243  
     187A     -0.455156   188A     -0.431471   189A     -0.425224  
     190A     -0.423699   191A     -0.421416   192A     -0.392312  
     193A     -0.376597   194A     -0.369666   195A     -0.369443  
     196A     -0.306757   197A     -0.306577  

    Virtual:                                                              

     198A     -0.068647   199A     -0.068435   200A     -0.045907  
     201A     -0.030170   202A     -0.026350   203A     -0.019990  
     204A     -0.019820   205A     -0.018447   206A     -0.013746  
     207A     -0.012295   208A     -0.008777   209A     -0.006905  
     210A     -0.004365   211A     -0.001164   212A      0.001302  
     213A      0.001634   214A      0.003071   215A      0.003111  
     216A      0.004423   217A      0.005283   218A      0.009753  
     219A      0.009793   220A      0.011918   221A      0.015909  
     222A      0.015986   223A      0.017337   224A      0.018869  
     225A      0.020928   226A      0.024330   227A      0.026548  
     228A      0.030160   229A      0.030469   230A      0.031894  
     231A      0.032021   232A      0.035980   233A      0.041298  
     234A      0.043229   235A      0.043636   236A      0.045341  
     237A      0.045768   238A      0.051090   239A      0.051904  
     240A      0.051994   241A      0.054393   242A      0.056709  
     243A      0.057295   244A      0.058348   245A      0.061196  
     246A      0.061873   247A      0.068052   248A      0.071673  
     249A      0.072226   250A      0.073596   251A      0.074072  
     252A      0.074402   253A      0.079276   254A      0.081618  
     255A      0.083741   256A      0.085377   257A      0.086584  
     258A      0.088240   259A      0.088525   260A      0.092748  
     261A      0.094925   262A      0.097193   263A      0.098205  
     264A      0.100979   265A      0.103499   266A      0.104858  
     267A      0.106056   268A      0.106256   269A      0.110855  
     270A      0.112856   271A      0.113545   272A      0.115320  
     273A      0.116480   274A      0.117393   275A      0.118166  
     276A      0.119813   277A      0.124316   278A      0.124818  
     279A      0.128931   280A      0.132677   281A      0.135376  
     282A      0.136801   283A      0.140220   284A      0.143115  
     285A      0.143165   286A      0.144588   287A      0.145175  
     288A      0.146688   289A      0.147625   290A      0.147986  
     291A      0.148558   292A      0.148975   293A      0.149150  
     294A      0.151025   295A      0.152996   296A      0.153893  
     297A      0.155398   298A      0.157194   299A      0.158906  
     300A      0.160213   301A      0.160692   302A      0.163169  
     303A      0.163639   304A      0.166562   305A      0.167138  
     306A      0.167853   307A      0.168298   308A      0.171667  
     309A      0.172186   310A      0.176845   311A      0.177375  
     312A      0.178753   313A      0.182554   314A      0.183664  
     315A      0.185299   316A      0.186309   317A      0.187922  
     318A      0.188289   319A      0.188611   320A      0.190442  
     321A      0.192477   322A      0.194185   323A      0.194517  
     324A      0.196103   325A      0.196929   326A      0.200067  
     327A      0.200802   328A      0.203520   329A      0.204133  
     330A      0.204952   331A      0.207055   332A      0.208297  
     333A      0.209280   334A      0.212683   335A      0.215850  
     336A      0.218357   337A      0.220508   338A      0.223165  
     339A      0.223593   340A      0.227270   341A      0.227626  
     342A      0.229264   343A      0.231343   344A      0.233505  
     345A      0.234125   346A      0.235187   347A      0.237431  
     348A      0.237933   349A      0.238838   350A      0.240370  
     351A      0.241797   352A      0.242757   353A      0.243032  
     354A      0.244032   355A      0.244562   356A      0.246278  
     357A      0.246632   358A      0.247815   359A      0.248454  
     360A      0.250323   361A      0.250967   362A      0.253680  
     363A      0.256055   364A      0.258770   365A      0.259282  
     366A      0.259813   367A      0.262550   368A      0.264095  
     369A      0.264944   370A      0.265732   371A      0.268713  
     372A      0.269882   373A      0.271166   374A      0.274015  
     375A      0.277308   376A      0.280239   377A      0.281047  
     378A      0.281230   379A      0.282727   380A      0.283527  
     381A      0.284788   382A      0.286212   383A      0.287034  
     384A      0.287599   385A      0.289147   386A      0.291960  
     387A      0.294028   388A      0.295034   389A      0.295720  
     390A      0.296182   391A      0.300042   392A      0.300568  
     393A      0.304089   394A      0.305097   395A      0.306329  
     396A      0.308820   397A      0.309489   398A      0.313678  
     399A      0.313923   400A      0.314579   401A      0.317013  
     402A      0.317868   403A      0.318853   404A      0.320455  
     405A      0.323266   406A      0.324060   407A      0.324908  
     408A      0.325618   409A      0.325889   410A      0.327376  
     411A      0.330974   412A      0.332300   413A      0.333179  
     414A      0.333971   415A      0.335812   416A      0.336028  
     417A      0.336359   418A      0.337063   419A      0.337921  
     420A      0.340273   421A      0.340788   422A      0.342219  
     423A      0.343829   424A      0.344898   425A      0.345686  
     426A      0.346181   427A      0.348981   428A      0.350026  
     429A      0.352914   430A      0.355654   431A      0.358281  
     432A      0.359386   433A      0.361790   434A      0.363354  
     435A      0.365290   436A      0.366404   437A      0.367547  
     438A      0.370625   439A      0.373163   440A      0.373443  
     441A      0.376384   442A      0.377833   443A      0.378728  
     444A      0.379474   445A      0.381599   446A      0.382307  
     447A      0.383055   448A      0.384632   449A      0.385320  
     450A      0.388022   451A      0.388842   452A      0.391369  
     453A      0.392243   454A      0.397208   455A      0.397650  
     456A      0.401742   457A      0.402837   458A      0.403740  
     459A      0.405160   460A      0.410579   461A      0.410841  
     462A      0.411850   463A      0.413233   464A      0.414649  
     465A      0.415824   466A      0.418934   467A      0.419218  
     468A      0.420022   469A      0.421119   470A      0.421823  
     471A      0.424484   472A      0.428746   473A      0.429173  
     474A      0.431003   475A      0.433730   476A      0.436713  
     477A      0.440433   478A      0.441528   479A      0.442263  
     480A      0.443135   481A      0.446331   482A      0.451311  
     483A      0.452574   484A      0.452873   485A      0.457541  
     486A      0.460932   487A      0.463060   488A      0.465658  
     489A      0.468152   490A      0.469450   491A      0.470858  
     492A      0.473049   493A      0.474575   494A      0.476221  
     495A      0.476912   496A      0.477954   497A      0.480847  
     498A      0.482582   499A      0.484371   500A      0.484908  
     501A      0.487622   502A      0.491092   503A      0.492951  
     504A      0.494279   505A      0.495898   506A      0.507966  
     507A      0.510379   508A      0.513533   509A      0.518200  
     510A      0.518523   511A      0.519715   512A      0.526140  
     513A      0.531420   514A      0.536063   515A      0.541922  
     516A      0.543486   517A      0.545966   518A      0.548810  
     519A      0.549813   520A      0.555452   521A      0.558661  
     522A      0.562340   523A      0.574542   524A      0.576659  
     525A      0.581696   526A      0.590473   527A      0.591549  
     528A      0.594535   529A      0.597449   530A      0.597583  
     531A      0.605856   532A      0.607727   533A      0.636000  
     534A      0.636117   535A      0.660278   536A      0.663318  
     537A      0.665490   538A      0.665946   539A      0.666067  
     540A      0.666397   541A      0.677056   542A      0.677350  
     543A      0.685993   544A      0.693812   545A      0.711156  
     546A      0.720445   547A      0.721774   548A      0.726715  
     549A      0.730905   550A      0.732946   551A      0.739595  
     552A      0.746323   553A      0.746915   554A      0.748346  
     555A      0.754391   556A      0.756170   557A      0.758491  
     558A      0.768031   559A      0.769023   560A      0.774185  
     561A      0.776008   562A      0.777411   563A      0.782673  
     564A      0.784943   565A      0.785552   566A      0.786512  
     567A      0.794947   568A      0.795529   569A      0.797549  
     570A      0.799218   571A      0.800405   572A      0.800799  
     573A      0.803220   574A      0.805002   575A      0.806623  
     576A      0.809926   577A      0.812335   578A      0.816534  
     579A      0.818987   580A      0.819850   581A      0.821667  
     582A      0.824747   583A      0.826974   584A      0.829371  
     585A      0.831606   586A      0.834909   587A      0.835279  
     588A      0.839375   589A      0.841434   590A      0.842907  
     591A      0.843304   592A      0.844264   593A      0.846631  
     594A      0.848656   595A      0.851068   596A      0.853848  
     597A      0.855075   598A      0.859535   599A      0.863843  
     600A      0.864889   601A      0.867344   602A      0.870211  
     603A      0.870683   604A      0.873377   605A      0.875882  
     606A      0.876659   607A      0.878130   608A      0.882867  
     609A      0.886083   610A      0.888307   611A      0.889304  
     612A      0.892775   613A      0.895531   614A      0.896454  
     615A      0.898323   616A      0.900974   617A      0.902213  
     618A      0.902893   619A      0.904259   620A      0.906878  
     621A      0.908354   622A      0.909787   623A      0.912399  
     624A      0.919485   625A      0.920796   626A      0.921171  
     627A      0.924349   628A      0.926737   629A      0.927606  
     630A      0.930445   631A      0.934914   632A      0.936898  
     633A      0.940628   634A      0.943107   635A      0.943282  
     636A      0.946191   637A      0.949298   638A      0.951110  
     639A      0.954600   640A      0.955612   641A      0.958216  
     642A      0.959854   643A      0.961155   644A      0.961910  
     645A      0.963821   646A      0.966677   647A      0.969996  
     648A      0.971319   649A      0.973065   650A      0.974217  
     651A      0.975387   652A      0.978654   653A      0.979327  
     654A      0.981049   655A      0.982000   656A      0.983638  
     657A      0.987219   658A      0.988678   659A      0.991301  
     660A      0.992535   661A      0.996823   662A      0.999217  
     663A      1.001435   664A      1.004259   665A      1.006988  
     666A      1.007736   667A      1.009539   668A      1.010908  
     669A      1.011889   670A      1.015064   671A      1.015935  
     672A      1.018197   673A      1.022561   674A      1.022820  
     675A      1.023255   676A      1.025845   677A      1.027575  
     678A      1.031189   679A      1.032528   680A      1.035741  
     681A      1.039574   682A      1.041315   683A      1.041885  
     684A      1.046134   685A      1.048294   686A      1.048638  
     687A      1.049957   688A      1.054754   689A      1.058065  
     690A      1.060574   691A      1.061349   692A      1.062715  
     693A      1.066672   694A      1.072670   695A      1.073045  
     696A      1.077458   697A      1.081744   698A      1.085526  
     699A      1.087283   700A      1.088610   701A      1.090467  
     702A      1.096682   703A      1.099830   704A      1.104838  
     705A      1.105285   706A      1.107465   707A      1.108994  
     708A      1.110366   709A      1.115740   710A      1.120418  
     711A      1.124200   712A      1.129543   713A      1.133078  
     714A      1.135885   715A      1.137068   716A      1.141342  
     717A      1.144845   718A      1.146253   719A      1.150691  
     720A      1.154600   721A      1.159271   722A      1.160403  
     723A      1.164679   724A      1.167213   725A      1.171039  
     726A      1.173103   727A      1.177382   728A      1.178813  
     729A      1.181434   730A      1.185153   731A      1.186331  
     732A      1.190937   733A      1.191857   734A      1.194375  
     735A      1.198370   736A      1.199217   737A      1.200752  
     738A      1.208692   739A      1.212120   740A      1.212660  
     741A      1.216160   742A      1.217017   743A      1.218327  
     744A      1.220597   745A      1.223491   746A      1.228069  
     747A      1.233419   748A      1.236897   749A      1.239171  
     750A      1.243258   751A      1.247737   752A      1.248549  
     753A      1.250382   754A      1.251959   755A      1.253578  
     756A      1.256550   757A      1.257060   758A      1.259976  
     759A      1.266481   760A      1.268445   761A      1.270967  
     762A      1.272034   763A      1.274655   764A      1.279052  
     765A      1.283318   766A      1.284604   767A      1.287401  
     768A      1.290096   769A      1.300320   770A      1.302700  
     771A      1.304238   772A      1.305638   773A      1.309184  
     774A      1.310389   775A      1.317303   776A      1.320725  
     777A      1.326218   778A      1.329122   779A      1.329507  
     780A      1.331437   781A      1.337987   782A      1.340781  
     783A      1.341163   784A      1.342039   785A      1.346452  
     786A      1.347997   787A      1.355829   788A      1.357216  
     789A      1.361864   790A      1.366065   791A      1.367804  
     792A      1.369696   793A      1.370789   794A      1.371246  
     795A      1.373557   796A      1.379445   797A      1.381559  
     798A      1.388272   799A      1.390191   800A      1.396777  
     801A      1.411356   802A      1.422606   803A      1.429973  
     804A      1.435127   805A      1.436282   806A      1.437488  
     807A      1.441088   808A      1.442763   809A      1.459120  
     810A      1.462108   811A      1.465462   812A      1.471926  
     813A      1.489292   814A      1.494625   815A      1.501333  
     816A      1.507975   817A      1.518071   818A      1.521383  
     819A      1.526139   820A      1.527905   821A      1.528922  
     822A      1.538011   823A      1.540910   824A      1.545551  
     825A      1.550584   826A      1.552258   827A      1.554228  
     828A      1.557709   829A      1.560830   830A      1.561438  
     831A      1.563376   832A      1.569561   833A      1.570063  
     834A      1.572761   835A      1.576099   836A      1.582794  
     837A      1.583336   838A      1.586526   839A      1.591212  
     840A      1.591954   841A      1.594159   842A      1.597630  
     843A      1.600784   844A      1.602653   845A      1.604947  
     846A      1.607337   847A      1.610364   848A      1.612729  
     849A      1.616152   850A      1.617608   851A      1.618362  
     852A      1.619175   853A      1.622185   854A      1.630338  
     855A      1.634043   856A      1.639348   857A      1.641064  
     858A      1.644420   859A      1.647446   860A      1.657788  
     861A      1.663740   862A      1.668402   863A      1.673698  
     864A      1.682582   865A      1.683971   866A      1.687908  
     867A      1.688193   868A      1.695333   869A      1.696534  
     870A      1.707937   871A      1.711900   872A      1.713085  
     873A      1.724521   874A      1.735486   875A      1.737364  
     876A      1.738193   877A      1.740195   878A      1.741109  
     879A      1.741587   880A      1.746277   881A      1.758457  
     882A      1.762486   883A      1.764424   884A      1.771620  
     885A      1.773584   886A      1.778085   887A      1.782293  
     888A      1.785108   889A      1.787787   890A      1.789353  
     891A      1.791487   892A      1.792392   893A      1.795086  
     894A      1.797018   895A      1.801149   896A      1.806587  
     897A      1.811384   898A      1.814496   899A      1.816563  
     900A      1.820691   901A      1.824729   902A      1.826438  
     903A      1.828636   904A      1.828860   905A      1.829927  
     906A      1.834538   907A      1.835911   908A      1.838508  
     909A      1.840649   910A      1.841249   911A      1.842354  
     912A      1.847581   913A      1.853488   914A      1.863260  
     915A      1.867004   916A      1.868985   917A      1.870154  
     918A      1.872424   919A      1.874287   920A      1.875546  
     921A      1.875838   922A      1.877549   923A      1.879211  
     924A      1.881482   925A      1.888836   926A      1.889665  
     927A      1.900717   928A      1.904773   929A      1.908773  
     930A      1.909493   931A      1.912570   932A      1.914119  
     933A      1.918547   934A      1.923751   935A      1.925741  
     936A      1.928592   937A      1.930687   938A      1.932967  
     939A      1.934308   940A      1.938811   941A      1.945267  
     942A      1.947309   943A      1.950483   944A      1.950999  
     945A      1.952768   946A      1.954523   947A      1.955748  
     948A      1.961145   949A      1.961891   950A      1.962567  
     951A      1.970971   952A      1.971562   953A      1.972677  
     954A      1.977955   955A      1.979829   956A      1.984980  
     957A      1.985669   958A      1.989579   959A      1.993006  
     960A      1.994165   961A      1.997305   962A      1.999493  
     963A      2.001620   964A      2.008135   965A      2.009853  
     966A      2.013359   967A      2.015779   968A      2.018801  
     969A      2.019230   970A      2.021804   971A      2.023247  
     972A      2.023845   973A      2.025110   974A      2.027404  
     975A      2.028633   976A      2.031074   977A      2.033495  
     978A      2.035726   979A      2.036547   980A      2.039186  
     981A      2.041177   982A      2.042530   983A      2.044294  
     984A      2.047159   985A      2.050066   986A      2.050894  
     987A      2.053670   988A      2.055265   989A      2.056897  
     990A      2.057900   991A      2.059660   992A      2.060399  
     993A      2.061853   994A      2.066593   995A      2.068204  
     996A      2.076244   997A      2.077811   998A      2.082959  
     999A      2.087426  1000A      2.088662  1001A      2.089898  
    1002A      2.095722  1003A      2.099151  1004A      2.108923  
    1005A      2.110184  1006A      2.112876  1007A      2.113666  
    1008A      2.115385  1009A      2.117850  1010A      2.121017  
    1011A      2.122963  1012A      2.125168  1013A      2.135408  
    1014A      2.136974  1015A      2.139918  1016A      2.144055  
    1017A      2.146932  1018A      2.150878  1019A      2.162378  
    1020A      2.164353  1021A      2.166473  1022A      2.169167  
    1023A      2.170950  1024A      2.171536  1025A      2.173317  
    1026A      2.177274  1027A      2.184107  1028A      2.185127  
    1029A      2.190631  1030A      2.191846  1031A      2.194200  
    1032A      2.194335  1033A      2.204139  1034A      2.206256  
    1035A      2.209332  1036A      2.221810  1037A      2.224862  
    1038A      2.229334  1039A      2.235251  1040A      2.236754  
    1041A      2.240289  1042A      2.248756  1043A      2.252381  
    1044A      2.254492  1045A      2.258073  1046A      2.263886  
    1047A      2.265495  1048A      2.271580  1049A      2.275330  
    1050A      2.278524  1051A      2.281395  1052A      2.285519  
    1053A      2.290831  1054A      2.301277  1055A      2.305095  
    1056A      2.309578  1057A      2.318864  1058A      2.332634  
    1059A      2.337361  1060A      2.342878  1061A      2.343575  
    1062A      2.343751  1063A      2.356623  1064A      2.360766  
    1065A      2.367565  1066A      2.377105  1067A      2.386638  
    1068A      2.400046  1069A      2.404890  1070A      2.406193  
    1071A      2.408877  1072A      2.413148  1073A      2.428224  
    1074A      2.429848  1075A      2.443567  1076A      2.450827  
    1077A      2.454362  1078A      2.462449  1079A      2.470682  
    1080A      2.471733  1081A      2.472564  1082A      2.476051  
    1083A      2.478888  1084A      2.479664  1085A      2.480396  
    1086A      2.480881  1087A      2.491643  1088A      2.491805  
    1089A      2.500580  1090A      2.500966  1091A      2.507102  
    1092A      2.510975  1093A      2.513206  1094A      2.517620  
    1095A      2.521242  1096A      2.528146  1097A      2.536215  
    1098A      2.544406  1099A      2.548215  1100A      2.550041  
    1101A      2.556645  1102A      2.559719  1103A      2.560575  
    1104A      2.567385  1105A      2.569220  1106A      2.575504  
    1107A      2.577522  1108A      2.585928  1109A      2.587916  
    1110A      2.604470  1111A      2.611641  1112A      2.618935  
    1113A      2.619501  1114A      2.626533  1115A      2.629949  
    1116A      2.630520  1117A      2.631360  1118A      2.636132  
    1119A      2.637835  1120A      2.647125  1121A      2.651210  
    1122A      2.665985  1123A      2.680281  1124A      2.681244  
    1125A      2.682637  1126A      2.702857  1127A      2.713125  
    1128A      2.715887  1129A      2.718847  1130A      2.730192  
    1131A      2.739725  1132A      2.741433  1133A      2.748312  
    1134A      2.750267  1135A      2.754643  1136A      2.768092  
    1137A      2.770501  1138A      2.772970  1139A      2.777771  
    1140A      2.780863  1141A      2.788995  1142A      2.794096  
    1143A      2.802367  1144A      2.814899  1145A      2.831610  
    1146A      2.842729  1147A      2.844155  1148A      2.850958  
    1149A      2.855539  1150A      2.858350  1151A      2.869757  
    1152A      2.871376  1153A      2.879744  1154A      2.886337  
    1155A      2.892781  1156A      2.903438  1157A      2.938650  
    1158A      2.941999  1159A      2.946672  1160A      2.961578  
    1161A      2.981113  1162A      2.981477  1163A      2.993188  
    1164A      3.003267  1165A      3.027699  1166A      3.040042  
    1167A      3.041909  1168A      3.054776  1169A      3.056412  
    1170A      3.061501  1171A      3.065486  1172A      3.067912  
    1173A      3.069885  1174A      3.071169  1175A      3.073065  
    1176A      3.074743  1177A      3.081029  1178A      3.085862  
    1179A      3.087926  1180A      3.093797  1181A      3.096357  
    1182A      3.114377  1183A      3.121785  1184A      3.124657  
    1185A      3.134318  1186A      3.147634  1187A      3.165442  
    1188A      3.197136  1189A      3.203219  1190A      3.205843  
    1191A      3.215262  1192A      3.225505  1193A      3.339283  
    1194A      3.339957  1195A      3.387038  1196A      3.410030  
    1197A      3.410587  1198A      3.473388  1199A      3.498783  
    1200A      3.516921  1201A      3.539491  1202A      3.549574  
    1203A      3.551290  1204A      3.555667  1205A      3.586084  
    1206A      3.596278  1207A      3.619380  1208A      3.707530  
    1209A      3.715161  1210A      3.732922  1211A      3.791623  
    1212A      3.792903  1213A      3.834182  1214A      3.834633  
    1215A      3.897693  1216A      3.927812  1217A      4.012943  
    1218A      4.015305  1219A      4.037948  

    Final Occupation by Irrep:
              A 
    DOCC [   197 ]
    NA   [   197 ]
    NB   [   197 ]

  @DF-RHF Final Energy: -2359.20579029540795

   => Energetics <=

    Nuclear Repulsion Energy =           8456.4844869603493862
    One-Electron Energy =              -20011.5505863938742550
    Two-Electron Energy =                9195.8603091381173726
    Total Energy =                      -2359.2057902954074962

Computation Completed


Properties will be evaluated at   0.000000,   0.000000,   0.000000 [a0]

Properties computed using the SCF density matrix


 Multipole Moments:

 ------------------------------------------------------------------------------------
     Multipole            Electronic (a.u.)      Nuclear  (a.u.)        Total (a.u.)
 ------------------------------------------------------------------------------------

 L = 1.  Multiply by 2.5417464519 to convert [e a0] to [Debye]
 Dipole X            :          0.0034207            0.0006313            0.0040520
 Dipole Y            :         -1.6074174            1.8864948            0.2790775
 Dipole Z            :        -13.6922543           17.6672042            3.9749499
 Magnitude           :                                                    3.9847368

 ------------------------------------------------------------------------------------

*** tstop() called on d-16-5-1 at Mon Jan 22 17:06:55 2024
Module time:
	user time   =    4605.94 seconds =      76.77 minutes
	system time =     369.26 seconds =       6.15 minutes
	total time  =       1631 seconds =      27.18 minutes
Total time:
	user time   =    4605.94 seconds =      76.77 minutes
	system time =     369.26 seconds =       6.15 minutes
	total time  =       1631 seconds =      27.18 minutes

  //>>>>>>>>>>>>>>>>>>>>>>>>>>>>>>>>>>>//
  //            Monomer A HF           //
  //<<<<<<<<<<<<<<<<<<<<<<<<<<<<<<<<<<<//

   => Libint2 <=

    Primary   basis highest AM E, G, H:  7, 7, 4
    Auxiliary basis highest AM E, G, H:  7, 7, 5
    Onebody   basis highest AM E, G, H:  7, 7, 5
    Solid Harmonics ordering:            gaussian

*** tstart() called on d-16-5-1
*** at Mon Jan 22 17:06:55 2024

   => Loading Basis Set <=

    Name: JUN-CC-PVDZ
    Role: ORBITAL
    Keyword: BASIS
    atoms 1-2, 4-5, 10, 17-70 entry C          line   164 file /home/gridsan/tfroembgen/.conda/envs/psi4test/share/psi4/basis/jun-cc-pvdz.gbs 
    atoms 3, 6                entry N          line   198 file /home/gridsan/tfroembgen/.conda/envs/psi4test/share/psi4/basis/jun-cc-pvdz.gbs 
    atoms 7-9, 11-16, 71-88   entry H          line    36 file /home/gridsan/tfroembgen/.conda/envs/psi4test/share/psi4/basis/jun-cc-pvdz.gbs 


         ---------------------------------------------------------
                                   SCF
               by Justin Turney, Rob Parrish, Andy Simmonett
                          and Daniel G. A. Smith
                              RHF Reference
                       12 Threads,  30517 MiB Core
         ---------------------------------------------------------

  ==> Geometry <==

    Molecular point group: c1
    Full point group: C1

    Geometry (in Angstrom), charge = 1, multiplicity = 1:

       Center              X                  Y                   Z               Mass       
    ------------   -----------------  -----------------  -----------------  -----------------
         C            0.680066520158    -1.215933861162     2.975585041632    12.000000000000
         C           -0.680504479842    -1.215549861162     2.973557041632    12.000000000000
         N           -1.085635479842     0.102774138838     2.972559041632    14.003074004430
         C            0.000107520158     0.884175138838     2.969283041632    12.000000000000
         C           -2.477365479842     0.570753138838     2.923153041632    12.000000000000
         N            1.085221520158     0.102774138838     2.972559041632    14.003074004430
         H            1.385145520158    -2.033372861162     2.983413041632     1.007825032230
         H           -1.385302479842    -2.033218861162     2.973747041632     1.007825032230
         H           -0.000009479842     1.965264138838     2.967536041632     1.007825032230
         C            2.478116520158     0.567872138838     2.989451041632    12.000000000000
         H            2.490591520158     1.658125138838     2.962106041632     1.007825032230
         H            2.967027520158     0.220696138838     3.902897041632     1.007825032230
         H            3.001427520158     0.176400138838     2.113968041632     1.007825032230
         H           -2.857359479842     0.490794138838     1.901082041632     1.007825032230
         H           -3.082679479842    -0.042310861162     3.593237041632     1.007825032230
         H           -2.518128479842     1.610701138838     3.250137041632     1.007825032230
      Gh(C)           1.225311895423     0.707533799757    -0.426319331084    12.000000000000
      Gh(C)           1.225323856051    -0.707543383733    -0.438650140655    12.000000000000
      Gh(C)          -0.000006153932     1.414961424928    -0.439183764176    12.000000000000
      Gh(C)           2.456448753949     1.418323398016    -0.423432473685    12.000000000000
      Gh(C)           0.000010827279    -1.414980987797    -0.428984206851    12.000000000000
      Gh(C)          -1.225300948908     0.707540884822    -0.424067810762    12.000000000000
      Gh(C)           2.456437755320    -1.418327793043    -0.440895297512    12.000000000000
      Gh(C)          -0.000001332978     2.836796542119    -0.441587314310    12.000000000000
      Gh(C)           3.681826697470     0.709313466839    -0.440546507714    12.000000000000
      Gh(C)           2.455120048865     2.834219172327    -0.440649064674    12.000000000000
      Gh(C)           3.681821105219    -0.709338328591    -0.424474023695    12.000000000000
      Gh(C)          -1.225313598688    -0.707532004706    -0.437577379228    12.000000000000
      Gh(C)           1.226699581202     3.543464994832    -0.424289991765    12.000000000000
      Gh(C)           0.000004784858    -2.836786628398    -0.424136039229    12.000000000000
      Gh(C)          -2.456436032848     1.418312429123    -0.424032414916    12.000000000000
      Gh(C)           2.455123417779    -2.834234517751    -0.424625932063    12.000000000000
      Gh(C)          -1.226714364589     3.543464574588    -0.424186658545    12.000000000000
      Gh(C)           4.914517295202     1.427168383327    -0.434065824684    12.000000000000
      Gh(C)           3.693150191476     3.542790803383    -0.434016025048    12.000000000000
      Gh(C)          -2.456437600068    -1.418317770001    -0.440920335636    12.000000000000
      Gh(C)           1.226704841943    -3.543478731069    -0.440260122514    12.000000000000
      Gh(C)          -2.455125398508     2.834212173472    -0.440642688328    12.000000000000
      Gh(C)           4.914524380782    -1.427191399106    -0.431093081950    12.000000000000
      Gh(C)           1.221424613699     4.970129576098    -0.430954647690    12.000000000000
      Gh(C)           4.893008229321     2.825183510864    -0.432849156326    12.000000000000
      Gh(C)          -1.226697008489    -3.543475486239    -0.439992918105    12.000000000000
      Gh(C)          -3.681818976526     0.709320477570    -0.440533827234    12.000000000000
      Gh(C)           3.693147101150    -3.542805830553    -0.430975191389    12.000000000000
      Gh(C)          -1.221432251994     4.970123808701    -0.430771152317    12.000000000000
      Gh(C)           6.134770972926     0.680543457943    -0.433296050134    12.000000000000
      Gh(C)           3.656788880610     4.972948754405    -0.433107387265    12.000000000000
      Gh(C)          -2.455126907733    -2.834219582223    -0.424870289861    12.000000000000
      Gh(C)          -3.681819179061    -0.709330192631    -0.424356402117    12.000000000000
      Gh(C)           4.893012617914    -2.825204594794    -0.432238004430    12.000000000000
      Gh(C)          -0.000001073113     5.650442876870    -0.432002461024    12.000000000000
      Gh(C)           6.134775112332    -0.680559343237    -0.432030729619    12.000000000000
      Gh(C)           2.478131482856     5.653572262169    -0.431818607616    12.000000000000
      Gh(C)           1.221422404738    -4.970131544095    -0.433754144713    12.000000000000
      Gh(C)          -3.693162383965     3.542792465030    -0.433850517589    12.000000000000
      Gh(C)          -1.221428520945    -4.970122792758    -0.433866906545    12.000000000000
      Gh(C)          -4.914521807942     1.427170957833    -0.433988879677    12.000000000000
      Gh(C)           3.656787019679    -4.972959715401    -0.431656886731    12.000000000000
      Gh(C)          -2.478138530106     5.653569933366    -0.431534082607    12.000000000000
      Gh(C)          -3.693141738564    -3.542794708141    -0.431091317545    12.000000000000
      Gh(C)          -4.914512483053    -1.427185489190    -0.431058384776    12.000000000000
      Gh(C)          -0.000006008926    -5.650442776176    -0.432397965145    12.000000000000
      Gh(C)          -4.893020484101     2.825184109757    -0.432859238186    12.000000000000
      Gh(C)           2.478125993298    -5.653578033051    -0.432747487524    12.000000000000
      Gh(C)          -3.656798710258     4.972951692879    -0.432930706891    12.000000000000
      Gh(C)          -4.892999478856    -2.825196256222    -0.432392040128    12.000000000000
      Gh(C)          -2.478128498083    -5.653570659169    -0.433022675171    12.000000000000
      Gh(C)          -6.134770503331     0.680544277094    -0.433321601837    12.000000000000
      Gh(C)          -3.656788833189    -4.972948512133    -0.431871174548    12.000000000000
      Gh(C)          -6.134765042913    -0.680558404644    -0.432051205414    12.000000000000
      Gh(H)           5.835288495816     3.369271405792    -0.428489830663     1.007825032230
      Gh(H)           7.073859172747     1.228212759737    -0.432834406741     1.007825032230
      Gh(H)           4.600663264174     5.512376313291    -0.432602186513     1.007825032230
      Gh(H)           5.835283387305    -3.369310545891    -0.436692471745     1.007825032230
      Gh(H)          -0.000012151306     6.738526184974    -0.436351706032     1.007825032230
      Gh(H)           7.073861171831    -1.228231431906    -0.432539467713     1.007825032230
      Gh(H)           2.473313731799     6.740679802232    -0.432285328546     1.007825032230
      Gh(H)           4.600668491381    -5.512380618338    -0.432066883900     1.007825032230
      Gh(H)          -2.473318680537     6.740677230444    -0.431983981921     1.007825032230
      Gh(H)          -0.000010268228    -6.738532665614    -0.427868280161     1.007825032230
      Gh(H)          -5.835301914343     3.369266461134    -0.428353808515     1.007825032230
      Gh(H)           2.473307923831    -6.740689863591    -0.432177157099     1.007825032230
      Gh(H)          -4.600674841208     5.512373537441    -0.432436858190     1.007825032230
      Gh(H)          -5.835279506835    -3.369293452942    -0.436971777625     1.007825032230
      Gh(H)          -2.473300347440    -6.740683567302    -0.432626473643     1.007825032230
      Gh(H)          -7.073857766768     1.228215983678    -0.432918398222     1.007825032230
      Gh(H)          -4.600673786085    -5.512367158949    -0.432239191922     1.007825032230
      Gh(H)          -7.073856934409    -1.228225121139    -0.432634324179     1.007825032230

  Running in c1 symmetry.

  Rotational constants: A =      0.00195  B =      0.00191  C =      0.00109 [cm^-1]
  Rotational constants: A =     58.38699  B =     57.25160  C =     32.56832 [MHz]
  Nuclear repulsion =  306.774908447733026

  Charge       = 1
  Multiplicity = 1
  Electrons    = 52
  Nalpha       = 26
  Nbeta        = 26

  ==> Algorithm <==

  SCF Algorithm Type is DF.
  DIIS enabled.
  MOM disabled.
  Fractional occupation disabled.
  Guess Type is SAD.
  Energy threshold   = 1.00e-08
  Density threshold  = 1.00e-08
  Integral threshold = 1.00e-12

  ==> Primary Basis <==

  Basis Set: JUN-CC-PVDZ
    Blend: JUN-CC-PVDZ
    Number of shells: 569
    Number of basis functions: 1233
    Number of Cartesian functions: 1294
    Spherical Harmonics?: true
    Max angular momentum: 2

   => Loading Basis Set <=

    Name: (JUN-CC-PVDZ AUX)
    Role: JKFIT
    Keyword: DF_BASIS_SCF
    atoms 1-2, 4-5, 10, 17-70 entry C          line   146 file /home/gridsan/tfroembgen/.conda/envs/psi4test/share/psi4/basis/jun-cc-pvdz-jkfit.gbs 
    atoms 3, 6                entry N          line   202 file /home/gridsan/tfroembgen/.conda/envs/psi4test/share/psi4/basis/jun-cc-pvdz-jkfit.gbs 
    atoms 7-9, 11-16, 71-88   entry H          line    70 file /home/gridsan/tfroembgen/.conda/envs/psi4test/share/psi4/basis/jun-cc-pvdz-jkfit.gbs 

  ==> Integral Setup <==

  ==> DiskDFJK: Density-Fitted J/K Matrices <==

    J tasked:                  Yes
    K tasked:                  Yes
    wK tasked:                  No
    OpenMP threads:             12
    Integrals threads:          12
    Memory [MiB]:            22888
    Algorithm:                Disk
    Integral Cache:           LOAD
    Schwarz Cutoff:          1E-12
    Fitting Condition:       1E-10

   => Auxiliary Basis Set <=

  Basis Set: (JUN-CC-PVDZ AUX)
    Blend: JUN-CC-PVDZ-JKFIT
    Number of shells: 1890
    Number of basis functions: 5440
    Number of Cartesian functions: 6226
    Spherical Harmonics?: true
    Max angular momentum: 3

  Minimum eigenvalue in the overlap matrix is 5.8548511689E-10.
  Reciprocal condition number of the overlap matrix is 2.2873366818E-11.
    Using canonical orthogonalization.
  Overall, 14 of 1233 possible MOs eliminated.


  ==> Pre-Iterations <==

  SCF Guess: Superposition of Atomic Densities via on-the-fly atomic UHF (no occupation information).

   -------------------------
    Irrep   Nso     Nmo    
   -------------------------
     A       1233    1219 
   -------------------------
    Total    1233    1219
   -------------------------

  ==> Iterations <==

                           Total Energy        Delta E     RMS |[F,P]|

   @DF-RHF iter SAD:  -303.36537377129423   -3.03365e+02   0.00000e+00 
   @DF-RHF iter   1:  -303.17108329364873    1.94290e-01   3.45296e-04 ADIIS/DIIS
   @DF-RHF iter   2:  -303.28553270008564   -1.14449e-01   1.16114e-04 ADIIS/DIIS
   @DF-RHF iter   3:  -303.29704727530384   -1.15146e-02   4.55374e-05 DIIS
   @DF-RHF iter   4:  -303.29897231996182   -1.92504e-03   9.98415e-06 DIIS
   @DF-RHF iter   5:  -303.29908075311596   -1.08433e-04   2.44612e-06 DIIS
   @DF-RHF iter   6:  -303.29909037669569   -9.62358e-06   6.62049e-07 DIIS
   @DF-RHF iter   7:  -303.29909148762340   -1.11093e-06   3.39686e-07 DIIS
   @DF-RHF iter   8:  -303.29909175494862   -2.67325e-07   1.37048e-07 DIIS
   @DF-RHF iter   9:  -303.29909180657728   -5.16287e-08   3.43377e-08 DIIS
   @DF-RHF iter  10:  -303.29909180948147   -2.90419e-09   1.29136e-08 DIIS
   @DF-RHF iter  11:  -303.29909180973260   -2.51134e-10   3.12611e-09 DIIS
  Energy and wave function converged.


  ==> Post-Iterations <==

    Orbital Energies [Eh]
    ---------------------

    Doubly Occupied:                                                      

       1A    -15.834420     2A    -15.833867     3A    -11.529137  
       4A    -11.459660     5A    -11.458097     6A    -11.449483  
       7A    -11.449328     8A     -1.577383     9A     -1.433067  
      10A     -1.237945    11A     -1.188744    12A     -1.118422  
      13A     -1.021815    14A     -0.996272    15A     -0.916464  
      16A     -0.850078    17A     -0.815680    18A     -0.812469  
      19A     -0.789517    20A     -0.785917    21A     -0.781195  
      22A     -0.729297    23A     -0.725411    24A     -0.716878  
      25A     -0.595704    26A     -0.523511  

    Virtual:                                                              

      27A     -0.079810    28A     -0.070771    29A     -0.063432  
      30A     -0.062823    31A     -0.044601    32A     -0.043119  
      33A     -0.042168    34A     -0.039557    35A     -0.035288  
      36A     -0.031701    37A     -0.022019    38A     -0.021054  
      39A     -0.020100    40A     -0.015639    41A     -0.015181  
      42A     -0.013720    43A     -0.010970    44A     -0.008890  
      45A      0.000728    46A      0.001922    47A      0.003539  
      48A      0.003681    49A      0.006023    50A      0.007581  
      51A      0.009357    52A      0.010389    53A      0.014054  
      54A      0.015517    55A      0.024372    56A      0.024951  
      57A      0.027378    58A      0.027420    59A      0.030696  
      60A      0.034637    61A      0.035387    62A      0.035866  
      63A      0.037125    64A      0.038833    65A      0.040698  
      66A      0.043068    67A      0.044172    68A      0.051373  
      69A      0.051459    70A      0.052749    71A      0.053057  
      72A      0.056101    73A      0.058198    74A      0.058902  
      75A      0.060594    76A      0.061325    77A      0.064947  
      78A      0.066496    79A      0.066798    80A      0.068455  
      81A      0.071359    82A      0.075455    83A      0.075881  
      84A      0.077197    85A      0.078230    86A      0.078876  
      87A      0.079841    88A      0.082413    89A      0.082479  
      90A      0.083971    91A      0.087015    92A      0.087074  
      93A      0.090654    94A      0.093049    95A      0.095382  
      96A      0.097756    97A      0.099554    98A      0.099730  
      99A      0.101514   100A      0.103783   101A      0.105091  
     102A      0.107198   103A      0.109986   104A      0.110299  
     105A      0.110948   106A      0.112358   107A      0.112752  
     108A      0.114053   109A      0.116394   110A      0.117009  
     111A      0.118001   112A      0.118245   113A      0.120647  
     114A      0.124224   115A      0.124757   116A      0.125683  
     117A      0.128097   118A      0.129278   119A      0.129704  
     120A      0.132405   121A      0.137057   122A      0.138577  
     123A      0.138854   124A      0.140789   125A      0.141544  
     126A      0.145008   127A      0.145462   128A      0.146046  
     129A      0.150781   130A      0.151189   131A      0.153062  
     132A      0.153251   133A      0.153788   134A      0.154153  
     135A      0.154610   136A      0.156777   137A      0.161605  
     138A      0.162719   139A      0.163990   140A      0.165201  
     141A      0.167971   142A      0.170216   143A      0.170519  
     144A      0.171128   145A      0.171499   146A      0.172662  
     147A      0.173292   148A      0.174524   149A      0.177366  
     150A      0.177787   151A      0.178959   152A      0.180529  
     153A      0.181562   154A      0.181950   155A      0.189097  
     156A      0.194037   157A      0.194408   158A      0.196634  
     159A      0.198999   160A      0.200124   161A      0.200747  
     162A      0.201371   163A      0.201801   164A      0.202468  
     165A      0.205298   166A      0.208831   167A      0.209929  
     168A      0.212043   169A      0.212420   170A      0.215166  
     171A      0.216591   172A      0.217822   173A      0.220322  
     174A      0.220495   175A      0.221576   176A      0.223033  
     177A      0.225032   178A      0.226725   179A      0.228020  
     180A      0.229778   181A      0.231938   182A      0.232538  
     183A      0.233444   184A      0.233655   185A      0.233968  
     186A      0.237419   187A      0.241130   188A      0.245080  
     189A      0.249115   190A      0.251175   191A      0.253095  
     192A      0.255993   193A      0.257422   194A      0.260382  
     195A      0.261483   196A      0.262937   197A      0.264260  
     198A      0.264639   199A      0.266826   200A      0.268415  
     201A      0.271613   202A      0.273637   203A      0.274949  
     204A      0.276422   205A      0.276854   206A      0.277653  
     207A      0.278753   208A      0.281068   209A      0.281408  
     210A      0.283217   211A      0.285649   212A      0.286535  
     213A      0.288806   214A      0.289786   215A      0.291729  
     216A      0.292982   217A      0.296401   218A      0.298028  
     219A      0.300780   220A      0.302436   221A      0.303034  
     222A      0.309181   223A      0.310241   224A      0.311278  
     225A      0.312381   226A      0.315511   227A      0.315916  
     228A      0.317927   229A      0.322087   230A      0.322916  
     231A      0.325061   232A      0.328201   233A      0.330617  
     234A      0.332796   235A      0.337710   236A      0.339991  
     237A      0.342149   238A      0.343897   239A      0.349283  
     240A      0.350306   241A      0.351716   242A      0.352582  
     243A      0.354794   244A      0.356977   245A      0.357978  
     246A      0.359131   247A      0.360315   248A      0.363532  
     249A      0.365762   250A      0.369088   251A      0.370029  
     252A      0.371917   253A      0.373511   254A      0.377086  
     255A      0.377412   256A      0.378543   257A      0.378569  
     258A      0.380784   259A      0.381175   260A      0.382654  
     261A      0.384199   262A      0.386519   263A      0.390682  
     264A      0.391191   265A      0.392386   266A      0.395148  
     267A      0.396445   268A      0.399093   269A      0.401050  
     270A      0.401551   271A      0.403295   272A      0.404228  
     273A      0.405708   274A      0.410338   275A      0.413243  
     276A      0.415505   277A      0.416705   278A      0.419671  
     279A      0.423236   280A      0.423839   281A      0.427459  
     282A      0.428931   283A      0.429688   284A      0.432459  
     285A      0.433720   286A      0.437803   287A      0.441680  
     288A      0.443257   289A      0.443943   290A      0.445868  
     291A      0.446121   292A      0.447336   293A      0.450522  
     294A      0.452273   295A      0.453634   296A      0.454691  
     297A      0.455882   298A      0.458464   299A      0.461868  
     300A      0.463351   301A      0.465404   302A      0.466642  
     303A      0.467817   304A      0.468646   305A      0.473281  
     306A      0.479913   307A      0.480870   308A      0.483183  
     309A      0.489003   310A      0.490326   311A      0.492910  
     312A      0.497082   313A      0.498052   314A      0.498564  
     315A      0.499817   316A      0.500292   317A      0.504211  
     318A      0.505446   319A      0.506512   320A      0.509701  
     321A      0.510452   322A      0.512569   323A      0.516424  
     324A      0.518999   325A      0.521416   326A      0.523930  
     327A      0.526450   328A      0.531070   329A      0.532481  
     330A      0.534837   331A      0.537011   332A      0.537560  
     333A      0.540386   334A      0.541395   335A      0.544781  
     336A      0.546730   337A      0.551354   338A      0.552684  
     339A      0.556402   340A      0.557307   341A      0.560242  
     342A      0.561606   343A      0.563488   344A      0.564324  
     345A      0.567946   346A      0.569653   347A      0.573774  
     348A      0.574308   349A      0.578521   350A      0.580079  
     351A      0.582270   352A      0.589159   353A      0.589832  
     354A      0.593086   355A      0.594975   356A      0.599059  
     357A      0.599598   358A      0.601674   359A      0.602110  
     360A      0.604458   361A      0.605908   362A      0.607304  
     363A      0.608906   364A      0.610773   365A      0.615260  
     366A      0.619282   367A      0.621210   368A      0.622552  
     369A      0.626713   370A      0.627343   371A      0.628703  
     372A      0.633010   373A      0.640856   374A      0.642025  
     375A      0.645140   376A      0.646313   377A      0.649782  
     378A      0.658438   379A      0.669951   380A      0.670830  
     381A      0.671950   382A      0.675569   383A      0.677625  
     384A      0.678949   385A      0.679635   386A      0.679828  
     387A      0.681994   388A      0.683340   389A      0.684960  
     390A      0.685815   391A      0.687554   392A      0.689138  
     393A      0.691935   394A      0.693358   395A      0.694605  
     396A      0.698392   397A      0.700260   398A      0.704130  
     399A      0.708852   400A      0.709641   401A      0.710184  
     402A      0.711475   403A      0.717934   404A      0.724170  
     405A      0.726206   406A      0.726571   407A      0.727979  
     408A      0.734936   409A      0.750801   410A      0.760717  
     411A      0.764077   412A      0.766204   413A      0.767759  
     414A      0.768353   415A      0.769526   416A      0.773420  
     417A      0.779780   418A      0.784671   419A      0.786007  
     420A      0.795983   421A      0.796410   422A      0.801145  
     423A      0.802381   424A      0.807990   425A      0.809438  
     426A      0.811637   427A      0.813929   428A      0.815396  
     429A      0.819760   430A      0.822985   431A      0.828408  
     432A      0.829300   433A      0.833327   434A      0.842570  
     435A      0.849916   436A      0.854272   437A      0.860550  
     438A      0.868529   439A      0.876419   440A      0.877375  
     441A      0.883435   442A      0.883864   443A      0.889811  
     444A      0.896988   445A      0.903289   446A      0.910641  
     447A      0.917382   448A      0.921170   449A      0.921399  
     450A      0.922343   451A      0.926641   452A      0.930245  
     453A      0.933191   454A      0.935024   455A      0.940452  
     456A      0.945831   457A      0.949718   458A      0.953602  
     459A      0.962365   460A      0.966749   461A      0.971100  
     462A      0.977507   463A      0.979655   464A      0.980271  
     465A      0.982990   466A      0.984437   467A      0.991594  
     468A      0.999776   469A      1.013292   470A      1.019375  
     471A      1.020649   472A      1.021818   473A      1.026706  
     474A      1.063664   475A      1.066550   476A      1.072292  
     477A      1.074878   478A      1.077047   479A      1.085167  
     480A      1.088417   481A      1.093095   482A      1.098996  
     483A      1.099342   484A      1.099663   485A      1.103436  
     486A      1.109578   487A      1.112230   488A      1.115259  
     489A      1.124731   490A      1.133267   491A      1.134199  
     492A      1.138824   493A      1.150510   494A      1.162710  
     495A      1.167524   496A      1.179999   497A      1.181894  
     498A      1.203674   499A      1.207308   500A      1.211712  
     501A      1.212733   502A      1.217388   503A      1.219381  
     504A      1.219714   505A      1.229406   506A      1.232808  
     507A      1.237635   508A      1.238605   509A      1.239585  
     510A      1.240723   511A      1.281435   512A      1.282328  
     513A      1.288891   514A      1.321297   515A      1.351760  
     516A      1.358158   517A      1.360567   518A      1.369579  
     519A      1.369950   520A      1.373074   521A      1.377657  
     522A      1.378651   523A      1.386343   524A      1.398748  
     525A      1.405191   526A      1.409353   527A      1.428176  
     528A      1.449893   529A      1.463115   530A      1.468546  
     531A      1.470770   532A      1.473965   533A      1.484218  
     534A      1.486774   535A      1.497011   536A      1.499550  
     537A      1.515349   538A      1.530115   539A      1.537314  
     540A      1.540719   541A      1.556312   542A      1.566133  
     543A      1.568964   544A      1.573227   545A      1.573918  
     546A      1.579388   547A      1.585797   548A      1.594228  
     549A      1.600767   550A      1.603001   551A      1.607265  
     552A      1.614219   553A      1.628236   554A      1.636217  
     555A      1.651990   556A      1.663045   557A      1.665714  
     558A      1.666806   559A      1.669354   560A      1.672265  
     561A      1.676594   562A      1.684859   563A      1.686594  
     564A      1.690870   565A      1.692132   566A      1.698345  
     567A      1.701150   568A      1.708249   569A      1.710066  
     570A      1.713012   571A      1.716792   572A      1.719510  
     573A      1.723754   574A      1.728208   575A      1.731382  
     576A      1.734717   577A      1.740267   578A      1.741195  
     579A      1.741744   580A      1.742920   581A      1.744668  
     582A      1.746137   583A      1.747083   584A      1.751224  
     585A      1.758078   586A      1.763422   587A      1.768884  
     588A      1.772487   589A      1.773133   590A      1.773760  
     591A      1.776348   592A      1.777997   593A      1.785060  
     594A      1.787676   595A      1.790023   596A      1.792012  
     597A      1.797949   598A      1.799277   599A      1.800102  
     600A      1.802755   601A      1.808140   602A      1.812660  
     603A      1.813894   604A      1.817629   605A      1.819395  
     606A      1.819873   607A      1.821201   608A      1.823853  
     609A      1.828426   610A      1.833205   611A      1.835473  
     612A      1.839990   613A      1.841873   614A      1.844168  
[...]
     814A      1.760912   815A      1.761908   816A      1.762135  
     817A      1.763481   818A      1.764256   819A      1.767495  
     820A      1.778241   821A      1.779133   822A      1.785173  
     823A      1.793444   824A      1.794105   825A      1.795201  
     826A      1.816446   827A      1.817934   828A      1.820540  
     829A      1.824754   830A      1.825602   831A      1.829829  
     832A      1.834920   833A      1.835824   834A      1.837066  
     835A      1.843089   836A      1.844465   837A      1.851059  
     838A      1.859834   839A      1.862881   840A      1.863364  
     841A      1.863523   842A      1.866575   843A      1.874447  
     844A      1.875193   845A      1.878008   846A      1.880629  
     847A      1.882941   848A      1.891602   849A      1.896300  
     850A      1.898198   851A      1.899595   852A      1.906524  
     853A      1.907394   854A      1.910379   855A      1.911797  
     856A      1.912603   857A      1.916678   858A      1.917754  
     859A      1.920126   860A      1.920535   861A      1.922619  
     862A      1.923912   863A      1.927386   864A      1.939349  
     865A      1.942078   866A      1.943798   867A      1.945894  
     868A      1.947311   869A      1.950509   870A      1.951646  
     871A      1.952415   872A      1.957584   873A      1.957973  
     874A      1.959040   875A      1.964303   876A      1.975199  
     877A      1.978279   878A      1.981220   879A      1.982848  
     880A      1.997903   881A      1.998831   882A      2.000430  
     883A      2.002053   884A      2.005011   885A      2.007916  
     886A      2.013289   887A      2.015224   888A      2.016948  
     889A      2.018103   890A      2.021023   891A      2.026709  
     892A      2.030683   893A      2.032242   894A      2.033523  
     895A      2.035695   896A      2.038740   897A      2.039674  
     898A      2.041516   899A      2.049369   900A      2.049904  
     901A      2.054176   902A      2.059834   903A      2.061325  
     904A      2.064241   905A      2.065891   906A      2.067750  
     907A      2.070522   908A      2.074401   909A      2.077302  
     910A      2.079453   911A      2.080809   912A      2.085667  
     913A      2.087611   914A      2.089852   915A      2.093668  
     916A      2.096918   917A      2.098723   918A      2.099745  
     919A      2.100444   920A      2.102748   921A      2.103054  
     922A      2.106457   923A      2.108217   924A      2.110687  
     925A      2.110772   926A      2.112271   927A      2.116177  
     928A      2.118282   929A      2.119710   930A      2.121549  
     931A      2.123234   932A      2.124985   933A      2.127478  
     934A      2.129323   935A      2.129865   936A      2.132401  
     937A      2.133132   938A      2.135834   939A      2.137793  
     940A      2.138240   941A      2.144071   942A      2.144690  
     943A      2.151676   944A      2.154361   945A      2.156596  
     946A      2.158166   947A      2.163698   948A      2.166284  
     949A      2.168958   950A      2.177170   951A      2.178654  
     952A      2.186120   953A      2.189756   954A      2.190604  
     955A      2.192425   956A      2.193579   957A      2.195906  
     958A      2.196464   959A      2.197411   960A      2.207005  
     961A      2.214156   962A      2.219178   963A      2.221293  
     964A      2.222327   965A      2.226188   966A      2.229510  
     967A      2.233325   968A      2.234888   969A      2.236676  
     970A      2.242077   971A      2.244858   972A      2.246077  
     973A      2.246601   974A      2.248260   975A      2.250502  
     976A      2.259407   977A      2.263721   978A      2.264823  
     979A      2.266379   980A      2.270016   981A      2.272943  
     982A      2.274238   983A      2.275234   984A      2.280531  
     985A      2.280861   986A      2.287132   987A      2.298899  
     988A      2.303738   989A      2.307080   990A      2.312259  
     991A      2.315275   992A      2.323487   993A      2.326101  
     994A      2.330882   995A      2.333105   996A      2.339666  
     997A      2.341945   998A      2.346320   999A      2.348978  
    1000A      2.352494  1001A      2.353492  1002A      2.356889  
    1003A      2.359305  1004A      2.363920  1005A      2.370474  
    1006A      2.373412  1007A      2.377524  1008A      2.377725  
    1009A      2.384695  1010A      2.398592  1011A      2.407994  
    1012A      2.413884  1013A      2.417313  1014A      2.422008  
    1015A      2.425072  1016A      2.425421  1017A      2.427290  
    1018A      2.436975  1019A      2.441741  1020A      2.448197  
    1021A      2.462022  1022A      2.463622  1023A      2.469438  
    1024A      2.478527  1025A      2.481813  1026A      2.487609  
    1027A      2.488590  1028A      2.498056  1029A      2.505481  
    1030A      2.515730  1031A      2.522548  1032A      2.528740  
    1033A      2.536387  1034A      2.539130  1035A      2.550413  
    1036A      2.551213  1037A      2.552145  1038A      2.555235  
    1039A      2.555680  1040A      2.558397  1041A      2.560667  
    1042A      2.560738  1043A      2.570097  1044A      2.572835  
    1045A      2.574025  1046A      2.578301  1047A      2.581951  
    1048A      2.582319  1049A      2.588808  1050A      2.590635  
    1051A      2.593557  1052A      2.594531  1053A      2.598434  
    1054A      2.609814  1055A      2.617841  1056A      2.620660  
    1057A      2.625064  1058A      2.625492  1059A      2.635562  
    1060A      2.638149  1061A      2.641671  1062A      2.645442  
    1063A      2.647136  1064A      2.648351  1065A      2.656891  
    1066A      2.659521  1067A      2.662619  1068A      2.673040  
    1069A      2.679497  1070A      2.695269  1071A      2.696918  
    1072A      2.699924  1073A      2.706770  1074A      2.710908  
    1075A      2.713805  1076A      2.714421  1077A      2.717409  
    1078A      2.719482  1079A      2.720576  1080A      2.723955  
    1081A      2.728538  1082A      2.732779  1083A      2.743662  
    1084A      2.760741  1085A      2.763142  1086A      2.770353  
    1087A      2.779540  1088A      2.785283  1089A      2.795166  
    1090A      2.806696  1091A      2.809069  1092A      2.824920  
    1093A      2.832114  1094A      2.836806  1095A      2.842917  
    1096A      2.855190  1097A      2.856663  1098A      2.858889  
    1099A      2.862053  1100A      2.868329  1101A      2.870714  
    1102A      2.877263  1103A      2.890208  1104A      2.904518  
    1105A      2.916870  1106A      2.921597  1107A      2.925628  
    1108A      2.928076  1109A      2.937134  1110A      2.939884  
    1111A      2.948478  1112A      2.953499  1113A      2.957564  
    1114A      2.966914  1115A      2.982870  1116A      2.991490  
    1117A      3.005891  1118A      3.014310  1119A      3.027509  
    1120A      3.032604  1121A      3.035392  1122A      3.042061  
    1123A      3.065511  1124A      3.066118  1125A      3.071223  
    1126A      3.074401  1127A      3.093959  1128A      3.112041  
    1129A      3.118460  1130A      3.120639  1131A      3.131075  
    1132A      3.137290  1133A      3.138927  1134A      3.144935  
    1135A      3.147742  1136A      3.148734  1137A      3.151283  
    1138A      3.152541  1139A      3.155445  1140A      3.156510  
    1141A      3.164864  1142A      3.170049  1143A      3.175612  
    1144A      3.181109  1145A      3.193515  1146A      3.213208  
    1147A      3.224486  1148A      3.233367  1149A      3.247653  
    1150A      3.267316  1151A      3.277129  1152A      3.281069  
    1153A      3.287311  1154A      3.290817  1155A      3.312487  
    1156A      3.327176  1157A      3.337137  1158A      3.382936  
    1159A      3.409260  1160A      3.423354  1161A      3.429142  
    1162A      3.460442  1163A      3.494229  1164A      3.496816  
    1165A      3.546894  1166A      3.561577  1167A      3.593681  
    1168A      3.605440  1169A      3.611676  1170A      3.633211  
    1171A      3.633995  1172A      3.639531  1173A      3.645186  
    1174A      3.668012  1175A      3.672628  1176A      3.680680  
    1177A      3.767644  1178A      3.795470  1179A      3.797631  
    1180A      3.819772  1181A      3.841500  1182A      3.872719  
    1183A      3.873630  1184A      3.894030  1185A      3.916115  
    1186A      3.917010  1187A      3.982683  1188A      3.998679  
    1189A      4.012363  1190A      4.105461  1191A      4.107650  
    1192A      4.134530  1193A      4.275594  1194A      4.278002  
    1195A      4.553317  1196A      4.566960  1197A      4.592447  
    1198A      4.813703  1199A      4.840095  1200A      4.878815  
    1201A      4.920630  1202A      4.984758  1203A      5.091606  
    1204A      5.104315  1205A      5.105754  1206A      5.155271  
    1207A      5.185929  1208A      5.411937  1209A      5.447339  
    1210A      5.777161  1211A      5.782679  1212A      6.083964  
    1213A     18.222752  1214A     18.479646  1215A     18.496244  
    1216A     18.594196  1217A     18.900875  1218A     25.372264  
    1219A     25.410817  

    Final Occupation by Irrep:
              A 
    DOCC [   171 ]
    NA   [   171 ]
    NB   [   171 ]

  @DF-RHF Final Energy: -2055.89601004821861

   => Energetics <=

    Nuclear Repulsion Energy =           6452.5568002797772351
    One-Electron Energy =              -15636.5388319831581612
    Two-Electron Energy =                7128.0860216551627673
    Total Energy =                      -2055.8960100482181588

Computation Completed


Properties will be evaluated at   0.000000,   0.000000,   0.000000 [a0]

Properties computed using the SCF density matrix


 Multipole Moments:

 ------------------------------------------------------------------------------------
     Multipole            Electronic (a.u.)      Nuclear  (a.u.)        Total (a.u.)
 ------------------------------------------------------------------------------------

 L = 1.  Multiply by 2.5417464519 to convert [e a0] to [Debye]
 Dipole X            :          0.0002075           -0.0000085            0.0001990
 Dipole Y            :          0.0028136           -0.0028843           -0.0000707
 Dipole Z            :        279.4893148         -279.4924656           -0.0031508
 Magnitude           :                                                    0.0031579

 ------------------------------------------------------------------------------------

*** tstop() called on d-16-5-1 at Mon Jan 22 17:22:21 2024
Module time:
	user time   =    2939.28 seconds =      48.99 minutes
	system time =     219.27 seconds =       3.65 minutes
	total time  =        514 seconds =       8.57 minutes
Total time:
	user time   =    9309.58 seconds =     155.16 minutes
	system time =     778.42 seconds =      12.97 minutes
	total time  =       2557 seconds =      42.62 minutes
  Constructing Basis Sets for SAPT...

   => Loading Basis Set <=

    Name: (JUN-CC-PVDZ AUX)
    Role: RIFIT
    Keyword: DF_BASIS_SAPT
    atoms 1-2, 4-5, 10, 17-70 entry C          line   100 file /home/gridsan/tfroembgen/.conda/envs/psi4test/share/psi4/basis/jun-cc-pvdz-ri.gbs 
    atoms 3, 6                entry N          line   144 file /home/gridsan/tfroembgen/.conda/envs/psi4test/share/psi4/basis/jun-cc-pvdz-ri.gbs 
    atoms 7-9, 11-16, 71-88   entry H          line    30 file /home/gridsan/tfroembgen/.conda/envs/psi4test/share/psi4/basis/jun-cc-pvdz-ri.gbs 

   => Loading Basis Set <=

    Name: (JUN-CC-PVDZ AUX)
    Role: JKFIT
    Keyword: DF_BASIS_ELST
    atoms 1-2, 4-5, 10, 17-70 entry C          line   146 file /home/gridsan/tfroembgen/.conda/envs/psi4test/share/psi4/basis/jun-cc-pvdz-jkfit.gbs 
    atoms 3, 6                entry N          line   202 file /home/gridsan/tfroembgen/.conda/envs/psi4test/share/psi4/basis/jun-cc-pvdz-jkfit.gbs 
    atoms 7-9, 11-16, 71-88   entry H          line    70 file /home/gridsan/tfroembgen/.conda/envs/psi4test/share/psi4/basis/jun-cc-pvdz-jkfit.gbs 


  //>>>>>>>>>>>>>>>>>>>>>>>>>>>>>>>>>>>//
  //               SSAPT0              //
  //<<<<<<<<<<<<<<<<<<<<<<<<<<<<<<<<<<<//


*** tstart() called on d-16-5-1
*** at Mon Jan 22 17:22:22 2024

        SAPT0  
    Ed Hohenstein
     6 June 2009

      Orbital Information
  --------------------------
    NSO        =      1233
    NMO        =      1219
    NRI        =      4343
    NRI (Elst) =      5440
    NOCC A     =        26
    NOCC B     =       171
    FOCC A     =         7
    FOCC B     =        54
    NVIR A     =      1193
    NVIR B     =      1048

    Elst10,r            =    -0.022861685298 [Eh]
    Exch10              =     0.026677068285 [Eh]
    Exch10 (S^2)        =     0.026595126491 [Eh]

    Iter     Energy [mEh]          dE [mEh]         Residual      Time [s]
       1      -2.65598549       2.655985493       6.966390709            85
       2      -3.30471224       0.648726742       1.430977337           113
       3      -3.31721479       0.012502552       0.438150986           128
       4      -3.30952467      -0.007690118       0.163476873           142
       5      -3.30860546      -0.000919211       0.036873424           157
       6      -3.30910675       0.000501289       0.014979685           174
       7      -3.30917756       0.000070814       0.005782031           226
       8      -3.30911408      -0.000063480       0.002004135           825
       9      -3.30911778       0.000003703       0.000785306          1032
      10      -3.30912280       0.000005019       0.000217640          1182
      11      -3.30912211      -0.000000697       0.000062721          1717
      12      -3.30912187      -0.000000237       0.000019867          1996
      13      -3.30912192       0.000000051       0.000006251          2381
      14      -3.30912194       0.000000016       0.000002907          2636
      15      -3.30912193      -0.000000004       0.000001104          2946
      16      -3.30912193      -0.000000004       0.000000347          3337

    CHF Iterations converged


    Iter     Energy [mEh]          dE [mEh]         Residual      Time [s]
       1     -20.77219735      20.772197354      67.872258717           182
       2     -15.90878984      -4.863407515      10.338516836           319
       3     -16.42514679       0.516356949       4.686333726           369
       4     -16.96417221       0.539025421       0.822986694           399
       5     -16.97298004       0.008807831       0.288490960           424
       6     -16.96061046      -0.012369584       0.131129447           472
       7     -16.95798552      -0.002624937       0.058995893           546
       8     -16.95991913       0.001933607       0.036149844           591
       9     -16.96042681       0.000507687       0.016760165           627
      10     -16.96009085      -0.000335963       0.010905484           676
      11     -16.95994452      -0.000146332       0.005718731           731
      12     -16.96003099       0.000086469       0.003128690           860
      13     -16.96006241       0.000031423       0.001668569           889
      14     -16.96005285      -0.000009565       0.000953404           944
      15     -16.96003805      -0.000014795       0.000535654           987
      16     -16.96003939       0.000001336       0.000257677          1022
      17     -16.96004410       0.000004711       0.000102860          1062
      18     -16.96004322      -0.000000874       0.000062204          1083
      19     -16.96004247      -0.000000752       0.000033095          1106
      20     -16.96004254       0.000000068       0.000014379          1136
      21     -16.96004278       0.000000237       0.000006577          1157
      22     -16.96004276      -0.000000015       0.000003400          1180
      23     -16.96004271      -0.000000047       0.000001659          1212
      24     -16.96004271      -0.000000000       0.000000705          1238

    CHF Iterations converged

    Ind20,r (A<-B)      =    -0.003309121929 [Eh]
    Ind20,r (B<-A)      =    -0.016960042713 [Eh]
    Ind20,r             =    -0.020269164642 [Eh]
    Exch-Ind20,r (A<-B) =     0.003197468115 [Eh]
    Exch-Ind20,r (B<-A) =     0.005249474850 [Eh]
    Exch-Ind20,r        =     0.008446942966 [Eh]
    Disp20              =    -0.039108571657 [Eh]
    Disp20 (SS)         =    -0.019554285829 [Eh]
    Disp20 (OS)         =    -0.019554285829 [Eh]
    Exch-Disp20         =     0.003013292162 [Eh]
    Exch-Disp20 (SS)    =     0.001827748686 [Eh]
    Exch-Disp20 (OS)    =     0.001185543477 [Eh]

    SAPT Results 
  --------------------------------------------------------------------------------------------------------
    Electrostatics                -22.86168530 [mEh]     -14.34592411 [kcal/mol]     -60.02334648 [kJ/mol]
      Elst10,r                    -22.86168530 [mEh]     -14.34592411 [kcal/mol]     -60.02334648 [kJ/mol]

    Exchange                       26.67706829 [mEh]      16.74011308 [kcal/mol]      70.04063313 [kJ/mol]
      Exch10                       26.67706829 [mEh]      16.74011308 [kcal/mol]      70.04063313 [kJ/mol]
      Exch10(S^2)                  26.59512649 [mEh]      16.68869383 [kcal/mol]      69.82549498 [kJ/mol]

    Induction                     -14.50382044 [mEh]      -9.10128473 [kcal/mol]     -38.07977533 [kJ/mol]
      Ind20,r                     -20.26916464 [mEh]     -12.71909284 [kcal/mol]     -53.21668444 [kJ/mol]
      Exch-Ind20,r                  8.44694297 [mEh]       5.30053674 [kcal/mol]      22.17744570 [kJ/mol]
      delta HF,r (2)               -2.68159877 [mEh]      -1.68272863 [kcal/mol]      -7.04053659 [kJ/mol]

    Dispersion                    -36.09527949 [mEh]     -22.65012984 [kcal/mol]     -94.76814326 [kJ/mol]
      Disp20                      -39.10857166 [mEh]     -24.54099922 [kcal/mol]    -102.67954074 [kJ/mol]
      Exch-Disp20                   3.01329216 [mEh]       1.89086938 [kcal/mol]       7.91139748 [kJ/mol]
      Disp20 (SS)                 -19.55428583 [mEh]     -12.27049961 [kcal/mol]     -51.33977037 [kJ/mol]
      Disp20 (OS)                 -19.55428583 [mEh]     -12.27049961 [kcal/mol]     -51.33977037 [kJ/mol]
      Exch-Disp20 (SS)              1.82774869 [mEh]       1.14692962 [kcal/mol]       4.79875351 [kJ/mol]
      Exch-Disp20 (OS)              1.18554348 [mEh]       0.74393976 [kcal/mol]       3.11264397 [kJ/mol]

  Total HF                        -10.68843746 [mEh]      -6.70709576 [kcal/mol]     -28.06248868 [kJ/mol]
  Total SAPT0                     -46.78371695 [mEh]     -29.35722561 [kcal/mol]    -122.83063193 [kJ/mol]

  Special recipe for scaled SAPT0 (see Manual):
    Electrostatics sSAPT0         -22.86168530 [mEh]     -14.34592411 [kcal/mol]     -60.02334648 [kJ/mol]
    Exchange sSAPT0                26.67706829 [mEh]      16.74011308 [kcal/mol]      70.04063313 [kJ/mol]
    Induction sSAPT0              -14.42550244 [mEh]      -9.05213944 [kcal/mol]     -37.87415143 [kJ/mol]
    Dispersion sSAPT0             -36.06734098 [mEh]     -22.63259816 [kcal/mol]     -94.69479070 [kJ/mol]
  Total sSAPT0                    -46.67746043 [mEh]     -29.29054863 [kcal/mol]    -122.55165547 [kJ/mol]
  --------------------------------------------------------------------------------------------------------

*** tstop() called on d-16-5-1 at Mon Jan 22 19:17:47 2024
Module time:
	user time   =    9356.53 seconds =     155.94 minutes
	system time =    1158.10 seconds =      19.30 minutes
	total time  =       6925 seconds =     115.42 minutes
Total time:
	user time   =   18667.54 seconds =     311.13 minutes
	system time =    1936.54 seconds =      32.28 minutes
	total time  =       9483 seconds =     158.05 minutes

    Psi4 stopped on: Monday, 22 January 2024 07:17PM
    Psi4 wall time for execution: 2:38:04.11

*** Psi4 exiting successfully. Buy a developer a beer!
