LAMMPS data file via write_data, version 2 Aug 2023, timestep = 5010000, units = real

5250 atoms
9 atom types
5000 bonds
8 bond types
8250 angles
11 angle types
9250 dihedrals
16 dihedral types

0 40 xlo xhi
0 40 ylo yhi
0 120 zlo zhi

Masses

1 10.811
2 18.998
3 14.007
4 12.011
5 12.011
6 12.011
7 1.008
8 1.008
9 1.008

Pair Coeffs # lj/cut/coul/long

1 0.095005 3.58
2 0.060994 3.12
3 0.17 3.25
4 0.07 3.55
5 0.07 3.55
6 0.065999 3.5
7 0.03 2.42
8 0.03 2.42
9 0.03 2.5

Bond Coeffs # harmonic

1 386.592 1.394
2 477.055 1.315
3 427.103 1.378
4 520.076 1.341
5 336.998 1.466
6 339.986 1.08
7 339.986 1.08
8 339.986 1.09

Angle Coeffs # harmonic

1 80.0072 109.5
2 70.0048 126.4
3 70.0048 108
4 70.0048 125.6
5 70.0048 109.8
6 35.0024 125.1
7 70.0048 107.1
8 35.0024 122
9 35.0024 130.9
10 37.5 110.7
11 32.9947 107.8

Dihedral Coeffs # opls

1 0 4.65105 0 0
2 0 4.65105 0 0
3 0 4.65105 0 0
4 0 4.65105 0 0
5 0 3 0 0
6 0 3 0 0
7 0 3 0 0
8 0 3 0 0
9 0 10.7505 0 0
10 0 10.7505 0 0
11 0 10.7505 0 0
12 0 0 0 0
13 0 0 0.124044 0
14 0 2 0 0
15 0 2.2 0 0
16 0 2.2 0 0

Atoms # full

1286 253 5 -0.13 7.344846077938522 5.454744375102346 44.10161493137555 0 0 0
1285 253 3 0.15 7.918084101303177 4.823859491526798 43.08578394119844 0 0 0
1241 249 1 0.96 3.708855677083381 3.4441469606372825 43.27669119124961 0 1 0
1298 253 9 0.13 8.332525587314814 5.239086534939377 40.994434407941355 0 0 0
1244 249 2 -0.49 2.513411024795376 2.912475367597939 42.66863401788003 0 1 0
4318 442 9 0.13 4.569353596492028 9.115854237044363 43.65379273802944 0 -1 0
1284 253 4 -0.11 8.768687312199686 3.9813557458539366 43.55737006110334 0 0 0
1297 253 9 0.13 6.919491511729078 6.072757871361503 41.626477644118076 0 0 0
1290 253 6 -0.17 7.510039612573086 5.1599947576499 41.705322103446825 0 0 0
4312 442 6 -0.17 4.945921179592481 10.13815644556818 43.68836250937512 0 -1 0
1296 253 9 0.13 6.822088412889158 4.520017300129353 41.15282594730882 0 0 0
4319 442 9 0.13 4.553428568060849 10.6872536458281 42.83247594072584 0 -1 0
4317 442 9 0.13 6.015414628597292 10.277239224855764 43.53043927588266 0 -1 0
1242 249 2 -0.49 3.68855623060737 4.853512087605949 43.21219345395264 0 1 0
1291 253 8 0.21 6.632730043597918 6.251016758490278 43.94274061635868 0 0 0
3753 407 7 0.21 19.10451275050366 7.960218069446158 43.919560238821006 -1 0 0
919 184 2 -0.49 8.459380770595708 10.5485009019202 44.24560594353071 1 0 0
1289 253 7 0.21 9.372260983669385 3.326989419365171 42.94589353908733 0 0 0
1245 249 2 -0.49 4.840314467732327 2.9401017759119026 42.65000213004356 0 1 0
2582 334 5 -0.13 19.6268557832402 12.690307390439703 44.57361227127037 0 0 0
142 29 2 -0.49 9.080278715226026 0.31590012380313687 44.783800375108264 0 0 0
917 184 2 -0.49 9.062114329847379 8.507366680977515 43.43734181405976 1 0 0
4307 442 3 0.15 4.6260049090818445 10.78534892608071 44.94084553327866 0 -1 0
2395 322 8 0.21 3.3307353758044385 0.8985633234268147 43.94116476142149 0 1 0
4313 442 7 0.21 2.7875339630440434 11.834878431367578 44.433614608045694 0 -1 0
897 180 2 -0.49 19.449281653602334 0.04565883525151979 42.53444038422989 0 0 0
4065 426 9 0.13 10.483333707319881 10.99187839395004 43.177888729233366 1 0 0
3757 407 9 0.13 17.681308170009782 5.911667838881162 43.168264939494335 -1 0 0
916 184 1 0.96 8.928335493501535 9.260548840711056 44.631461079551705 1 0 0
252 51 2 -0.49 15.573815891595906 10.15342956924079 44.246676811740535 0 0 0
3758 407 9 0.13 18.98445591877811 4.600236913372985 43.15244725505051 -1 0 0
2592 334 9 0.13 18.488337827772238 12.05587556313571 41.48099565454374 0 0 0
143 29 2 -0.49 7.454825997091748 0.3092637832139222 43.2363211995045 0 0 0
4053 426 3 0.15 11.85431779507688 11.921625675715834 44.54411417920557 1 0 0
2865 351 9 0.13 13.239309888746869 5.963318677541412 44.943734233325216 0 -1 0
2580 334 4 -0.11 17.424154867214714 12.472263937597896 44.37006905909478 0 0 0
1243 249 2 -0.49 3.6540293743629735 3.0033979339218706 44.57647589741428 0 1 0
4866 476 9 0.13 5.751460294379492 1.3805492263137404 44.94383965236272 1 1 0
896 180 1 0.96 19.830396703184224 1.2629613859865592 42.00124263721946 0 0 0
144 29 2 -0.49 9.497250688801468 0.9234147263605584 42.61466866339727 0 0 0
1455 263 9 0.13 0.7705301422163433 4.457979616883977 43.054345925754994 1 0 0
4054 426 5 -0.13 13.10854720081566 12.351446626989235 44.87620510919606 1 0 0
4058 426 6 -0.17 11.530039882351891 11.25876391010557 43.32375955987487 1 0 0
4059 426 8 0.21 13.91748284007487 12.081923032996738 44.213347525364476 1 0 0
4751 469 9 0.13 14.008113097375691 1.7716719195842798 42.70904333277028 0 0 0
1115 223 2 -0.49 0.8861059658525688 9.22743393572622 43.548482330660626 1 0 0
2585 334 7 0.21 16.456464710856842 12.366784327574285 43.902255187402254 0 0 0
254 51 2 -0.49 17.030706734965538 8.958253671104128 43.08161138187789 0 0 0
4744 469 6 -0.17 14.017075631186172 0.8154494324380495 42.18591979213094 0 0 0
899 180 2 -0.49 19.653549846311307 1.1808120719632949 40.61037777124178 0 0 0
141 29 1 0.96 8.801971222284145 0.030998528979729857 43.4306605673852 0 0 0
900 180 2 -0.49 19.077145881087688 2.4428790897960653 42.468467504182414 0 0 0
4066 426 9 0.13 11.788958282445401 11.77223476139791 42.397795756805486 1 0 0
2586 334 6 -0.17 18.691719342503866 12.872828194776702 42.17332820533466 0 0 0
2581 334 3 0.15 18.556404632448867 12.550991725877646 43.63194398358716 0 0 0
4064 426 9 0.13 12.060083489467376 10.32058040377238 43.487971264947895 1 0 0
4745 469 7 0.21 12.27854981966097 0.6514379545566225 44.55323037578979 0 0 0
253 51 2 -0.49 15.049653770521918 7.936180406864712 43.566861023408194 0 0 0
2400 322 9 0.13 4.541482339223226 0.33679712768546755 41.93770906362959 0 1 0
251 51 1 0.96 15.986867402310871 8.886803856357757 44.00987533071513 0 0 0
3759 407 9 0.13 17.537660572153452 4.455695769586596 44.14911338076027 -1 0 0
3748 407 4 -0.11 19.29645182799405 7.256021065799716 44.715591628547394 -1 0 0
3752 407 6 -0.17 18.248078628154666 5.164882555720749 43.724307198185265 -1 0 0
4750 469 9 0.13 13.145998015315962 0.6576634453819421 41.54997373215199 0 0 0
4749 469 9 0.13 14.95417822709503 0.8440657623918787 41.629934313480916 0 0 0
2594 334 9 0.13 19.63768027008555 13.328797234263572 41.88118070430905 0 0 0
3747 407 3 0.15 18.887117131993765 5.984270866927252 44.71680554313495 -1 0 0
1283 253 3 0.15 8.802581947401922 4.015849799762705 44.89302467015291 0 0 0
1396 260 4 -0.11 2.899193396325576 3.0404415594541967 52.1385867320708 0 0 0
1182 237 2 -0.49 4.341165593374909 11.655830324197058 50.53203952146806 0 0 0
1181 237 1 0.96 5.0787758320671905 10.498287802122938 50.5269737505403 0 0 0
1399 260 5 -0.13 3.116680330535186 1.4023681669641623 50.70822941787373 0 0 0
1395 260 3 0.15 2.376386694167007 1.9234098063217595 51.734952071166724 0 0 0
656 132 1 0.96 4.772559398628691 5.502705912990078 55.202701822822156 1 1 0
1183 237 2 -0.49 6.177100101234092 10.682768433211873 51.30456593865808 0 0 0
1397 260 3 0.15 3.9678206664021736 3.3126663677985837 51.4286158980571 0 0 0
1398 260 5 -0.13 4.161352723336013 2.1926123157354165 50.590616921365225 0 0 0
1401 260 7 0.21 2.357177376346962 3.713682729053548 52.786170688478336 0 0 0
1185 237 2 -0.49 5.471861372668979 10.209574529018381 49.17883830005607 0 0 0
1409 260 9 0.13 4.010362112488325 5.407956379778093 51.75638758005641 0 0 0
1402 260 6 -0.17 4.684190593678154 4.643309658139615 51.36990267776665 0 0 0
1410 260 9 0.13 5.620221522546352 4.713662551807921 51.923975398829285 0 0 0
1408 260 9 0.13 4.865952099200408 4.747257264847566 50.30020287857222 0 0 0
1184 237 2 -0.49 4.3749648732392 9.410066972211602 50.945171517569705 0 0 0
3703 404 5 -0.13 8.068526947788863 8.306506012918847 54.443800800892156 1 0 0
3699 404 3 0.15 7.4744224896322145 7.881256893734712 53.22079266680338 1 0 0
3705 404 7 0.21 5.518523400066374 8.356916808546341 52.49155946954083 1 0 0
3700 404 4 -0.11 6.317646118163175 8.483402678671608 53.20696439438708 1 0 0
3701 404 3 0.15 6.102310341312967 9.1604641910627 54.30706109222569 1 0 0
3708 404 8 0.21 9.03645460863522 7.9127639262304985 54.71671693086669 1 0 0
657 132 2 -0.49 3.7931084128509016 5.059722220076649 54.35416561610693 1 1 0
2627 337 3 0.15 3.3683130544797804 7.252764519105411 46.90534845263204 1 0 0
4323 443 3 0.15 6.631506641055671 0.8825823521622308 53.17337671394465 1 0 0
4325 443 3 0.15 8.290993850569564 2.234438714349844 53.0708661083101 1 0 0
4327 443 5 -0.13 6.4976178667934965 1.7242757473189845 54.28812720846741 1 0 0
4326 443 5 -0.13 7.607063509998311 2.504429038652791 54.2052833313986 1 0 0
4331 443 8 0.21 7.945798302318732 3.282357808927966 54.87347909457293 1 0 0
3706 404 6 -0.17 4.752357899129212 9.712182103158865 54.66378215352739 1 0 0
3702 404 5 -0.13 7.206532063740166 9.043842549817509 55.11320030173132 1 0 0
3714 404 9 0.13 4.736221790047723 10.346979745514213 55.54971193732698 1 0 0
852 171 2 -0.49 1.381804496590728 6.550218490268752 51.54625326417974 0 0 0
658 132 2 -0.49 6.021316569500201 5.483489611042702 54.51852443508552 1 1 0
660 132 2 -0.49 4.850386555411318 4.671609696630292 56.25185296348649 1 1 0
3707 404 8 0.21 7.262928146114349 9.359392623239465 56.14453324277867 1 0 0
659 132 2 -0.49 4.4882061902718595 6.827732202789487 55.61748366491179 1 1 0
2629 337 3 0.15 2.152580822504363 8.58160320307102 48.1110694002766 1 0 0
2634 337 6 -0.17 1.5622835926432779 9.365273777255277 49.178207525049174 1 0 0
3712 404 9 0.13 4.4376239813743545 10.434665688882951 53.91074826998374 1 0 0
1400 260 6 -0.17 1.0972057910219553 1.4649825451844585 52.15276299806641 0 0 0
3704 404 6 -0.17 7.944549803932118 6.970523925221457 52.18329148013959 1 0 0
3710 404 9 0.13 9.022318768854381 7.132392603754063 52.165611181523246 1 0 0
2342 319 5 -0.13 4.7166110278151026 9.166163818939985 58.464063494339186 0 0 0
2343 319 5 -0.13 4.73361214614325 7.8352299921898565 58.407881402222095 0 0 0
226 46 1 0.96 7.594233821780796 3.895149592359052 49.135658339503564 0 0 0
2642 337 9 0.13 2.1454825455756987 9.20775723123819 50.08549332336443 1 0 0
227 46 2 -0.49 8.877161253569215 3.3796999375051757 48.95580498438442 0 0 0
229 46 2 -0.49 7.644239383913262 5.222745854914087 49.330063915340986 0 0 0
228 46 2 -0.49 6.964373694561117 3.302577020345803 50.273735138857504 0 0 0
230 46 2 -0.49 6.800587581378615 3.6236826336456036 48.07303212669089 0 0 0
3713 404 9 0.13 3.906885413322045 9.040687744152315 54.81335355350034 1 0 0
3711 404 9 0.13 7.865099576417473 5.909011952807714 52.417769614523266 1 0 0
3709 404 9 0.13 7.521880016186838 7.18165241354799 51.201010963041035 1 0 0
1403 260 8 0.21 5.039158812898346 2.129269211650036 49.9646423784762 0 0 0
2347 319 8 0.21 3.9546008274655766 9.908554516757036 58.278062117352384 0 0 0
2628 337 4 -0.11 3.229906485466797 7.812363544610011 48.11263205876906 1 0 0
2630 337 5 -0.13 1.6445674633980951 8.646607814336232 46.76624532409464 1 0 0
4324 443 4 -0.11 7.889495922352526 1.0409364995432444 52.60800883625474 1 0 0
539 108 2 -0.49 9.894147726591358 6.143425435518437 57.682400329447994 0 0 0
1295 253 9 0.13 10.344448929950344 2.629070735805461 45.35240343864314 0 0 0
4330 443 6 -0.17 9.623055087693722 2.8092049464636046 52.64957950922406 1 0 0
4338 443 9 0.13 9.705738601191529 3.817646239751014 53.05493069801658 1 0 0
2640 337 9 0.13 1.7000146928328226 10.426469486399139 48.97085803466966 1 0 0
2341 319 3 0.15 5.917286524230388 9.535140811554195 58.96866243965965 0 0 0
2633 337 7 0.21 3.9051361850770654 7.850043613201815 48.95468019760374 1 0 0
2641 337 9 0.13 0.48423672400234746 9.288258311881522 49.31957078567683 1 0 0
2346 319 6 -0.17 6.443771956293528 10.900489528656118 59.146101647729665 0 0 0
2795 347 8 0.21 2.1535705888229644 7.408255329184767 55.594526541374535 0 1 0
537 108 2 -0.49 9.307738967743415 8.376623554799258 57.46954475929973 0 0 0
3631 399 9 0.13 16.390226892758555 6.469406633198929 59.294602405864396 0 0 0
4320 442 9 0.13 2.1386008834612307 12.456376396891955 47.51756266998164 0 -1 0
505 101 2 -0.49 9.484697632224098 12.05963578208088 54.77507694082296 0 0 0
1288 253 6 -0.17 9.506258260580802 3.129263996877094 45.837525201078556 0 0 0
1521 267 9 0.13 0.05461356403193807 0.3775565090762626 58.77959684021896 1 1 0
4311 442 5 -0.13 5.4576065658722 10.848839175418087 46.03651813065191 0 -1 0
3298 378 9 0.13 12.114734128826266 8.039663292637332 49.46751599687697 0 0 0
1292 253 8 0.21 7.654902054521323 5.146472323567712 46.2936227566859 0 0 0
2736 343 9 0.13 4.781948448486631 1.6423746363470817 57.556735926502036 1 0 0
2738 343 9 0.13 5.313463920810023 0.2837333401526393 58.60632359135628 1 0 0
2796 347 8 0.21 1.6224397280011582 10.083068476670924 55.269708016621124 0 1 0
488 98 2 -0.49 10.291977289091117 0.7408457528326242 54.917715367801364 0 0 0
2729 343 7 0.21 3.7062978814349914 3.7506987941563406 58.93272249628298 1 0 0
2339 319 3 0.15 5.987612945874403 7.363611157299703 58.87249075904804 0 0 0
2724 343 4 -0.11 3.642310381499389 2.9658352082723076 59.67184005712702 1 0 0
2725 343 3 0.15 4.338403078403617 1.8159587561237363 59.625070735820934 1 0 0
501 101 1 0.96 8.307565057840405 12.847674987718182 55.07115437464354 0 0 0
2730 343 6 -0.17 5.200349076735581 1.3647319979785988 58.52418384757003 1 0 0
3287 378 5 -0.13 8.825429459528133 10.810734124472408 48.81755145659568 0 0 0
3291 378 8 0.21 8.828504326781314 8.98935693279227 47.6130233190815 0 0 0
3286 378 5 -0.13 9.218354807888248 9.563606035379236 48.44046188378365 0 0 0
4854 476 5 -0.13 7.3514442559313915 0.2146255716839696 47.881981467035935 1 1 0
2789 347 3 0.15 0.2582607234878555 7.174899350930697 54.53841834799492 0 1 0
3295 378 9 0.13 8.552427068970317 12.857920069103082 50.108360393713546 0 0 0
2352 319 9 0.13 7.531516889916411 10.860514660163828 59.08854324503496 0 0 0
1458 263 9 0.13 1.6689116592436815 3.4266001907605133 48.66692791066047 1 0 0
3292 378 8 0.21 8.000282871363396 11.425282903277878 48.48912656091711 0 0 0
4853 476 3 0.15 6.625746740337378 0.22707396869281488 46.65584780837954 1 1 0
524 105 2 -0.49 1.4730656374332167 6.3002110735914725 58.50100171253844 0 0 0
3628 399 8 0.21 19.47251822873093 8.632568889176927 59.194834829874594 0 0 0
522 105 2 -0.49 0.3687980818216844 7.629028604048067 59.97024063369129 0 0 0
2348 319 8 0.21 3.9487452874492197 7.217573271110672 57.99692617422374 0 0 0
755 151 2 -0.49 19.932317301611672 4.354069286900841 59.332156887113264 0 1 0
2340 319 4 -0.11 6.619366057144116 8.435548893760211 59.23387043750495 0 0 0
521 105 1 0.96 0.7321850867514645 7.427800333671403 58.66737951927198 0 0 0
4314 442 6 -0.17 2.786067056935656 13.057798280907932 46.879456663723865 0 -1 0
2349 319 9 0.13 6.548805280934532 5.649282354560758 57.739230068585414 0 0 0
2864 351 9 0.13 12.505068758800304 7.4008642063916525 45.15968329997278 0 -1 0
4315 442 8 0.21 5.103327896989328 12.150942402914955 47.68563165899098 0 -1 0
4246 438 5 -0.13 13.264250623749893 0.1776383327059912 51.91062336236384 0 0 0
2790 347 5 -0.13 1.352607801408542 7.860563646475201 55.02859739149077 0 1 0
1137 228 2 -0.49 1.3724623259750417 12.762553985496321 55.29451481361125 0 0 0
3293 378 9 0.13 8.521716420927122 12.105247997221706 51.68196000068292 0 0 0
3288 378 6 -0.17 9.156121941943988 12.287997096071987 50.81464666862091 0 0 0
2344 319 6 -0.17 6.5938233672421775 6.048626497556708 58.75244161947433 0 0 0
4309 442 3 0.15 3.6477814819316374 12.133528333309775 46.231409027078165 0 -1 0
4251 438 8 0.21 13.837196806681385 0.09650463810499588 52.822516997922925 0 0 0
2351 319 9 0.13 6.027876361791073 5.313666633926687 59.32483833730075 0 0 0
1139 228 2 -0.49 3.400278217970998 12.965283355650516 56.4732989079674 0 0 0
2635 337 8 0.21 0.847746936611458 9.29632235039759 46.43556712262082 1 0 0
3290 378 6 -0.17 11.04177619383963 7.914255996723128 49.322139653208886 0 0 0
3296 378 9 0.13 10.664781999352254 7.381462758403328 50.19512691633869 0 0 0
3285 378 3 0.15 10.352005651765904 9.190445779162753 49.18058005897477 0 0 0
3283 378 3 0.15 9.59244440263841 11.167684400713599 49.91453791016076 0 0 0
3021 361 9 0.13 17.693466870880336 11.351479523138568 56.178947207281176 0 0 0
2637 337 9 0.13 4.899303660108011 5.738927368707107 47.2546947886238 1 0 0
1450 263 6 -0.17 1.020491249966231 2.7846294333323196 48.070669139845506 1 0 0
2350 319 9 0.13 7.6049746232414845 6.000294909389696 59.156591604067344 0 0 0
2797 347 9 0.13 0.44703875633162504 11.133675223597038 53.15972208523725 0 1 0
1666 276 9 0.13 13.567518851253814 0.0829721040238126 57.444441115086015 0 0 0
523 105 2 -0.49 1.4368698336178332 8.521744010161605 58.14463741783718 0 0 0
1135 227 2 -0.49 2.76505877213748 0.438096402314996 57.29975703463516 0 0 0
2155 307 8 0.21 17.884771844562618 13.095214068082122 51.390704718840574 0 1 0
4334 443 9 0.13 4.920973687122671 0.049287048910985155 52.13024496771969 1 0 0
2791 347 5 -0.13 1.0775869645616591 9.213783661182623 54.93224781282378 0 1 0
918 184 2 -0.49 10.122327500812537 9.440715134097783 45.31262030581674 1 0 0
1404 260 8 0.21 2.845722411541801 0.5379577473822821 50.12020182809094 0 0 0
2638 337 9 0.13 3.800716913397248 5.483628297985983 46.03234974707014 1 0 0
2632 337 6 -0.17 4.3583116567674995 6.29947883373629 46.49232367715385 1 0 0
2345 319 7 0.21 7.472742611659669 8.396604094096958 59.89465161490401 0 0 0
4332 443 8 0.21 5.7467962157282235 1.7211532942589347 55.06443715445551 1 0 0
2639 337 9 0.13 4.927754555908948 6.586170150319539 45.608217982852594 1 0 0
2631 337 5 -0.13 2.3476971190523286 7.787880214167785 46.10333205743241 1 0 0
2800 347 9 0.13 0.8359436131005314 5.2959385227999425 55.2815358647651 0 1 0
504 101 2 -0.49 7.0978069172566025 12.117538529752725 54.994000685654576 0 0 0
3629 399 9 0.13 17.853849036094346 6.210117998373572 58.489557162493085 0 0 0
855 171 2 -0.49 0.8795095898079549 5.603457939811895 49.50992370105759 0 0 0
4865 476 9 0.13 6.726410268907702 2.332659976839045 46.111444035570734 1 1 0
283 57 2 -0.49 14.265460311710259 11.979086203480671 59.86311235851293 0 1 0
4864 476 9 0.13 5.096885149862095 1.683928747253438 46.37392835918275 1 1 0
2353 319 9 0.13 6.146523093141102 11.554581017751588 58.32640196116914 0 0 0
1406 260 9 0.13 0.6928539015817462 1.0025410882349008 51.25234784061731 0 0 0
1444 263 4 -0.11 0.5445289449203934 3.29163952759993 45.659538880190894 1 0 0
1405 260 9 0.13 0.35051884366052255 2.240103003268274 52.32523584923758 0 0 0
1449 263 7 0.21 1.2023574382502824 2.5347076105918975 45.258645175677856 1 0 0
3297 378 9 0.13 10.833086287040897 7.316726568746082 48.43472368050788 0 0 0
3289 378 7 0.21 11.323989540180026 10.311484107912376 50.70731680726593 0 0 0
3284 378 4 -0.11 10.53734459497114 10.234315980621782 49.9713583746595 0 0 0
1457 263 9 0.13 1.7076360230593424 1.9958808965709252 47.76438851600065 1 0 0
3294 378 9 0.13 9.940662537071304 12.950501504580599 51.18027484558749 0 0 0
4310 442 5 -0.13 4.750659020723 11.664604196123207 46.788135245289176 0 -1 0
920 184 2 -0.49 8.062321377247224 8.599681142213836 45.45720003170242 1 0 0
1407 260 9 0.13 1.1442326930128115 0.9775215527370322 53.12655471103257 0 0 0
4057 426 7 0.21 9.913843755871238 12.529684155655026 45.09412073027572 1 0 0
325 65 2 -0.49 0.9342434188897322 13.186193575001674 49.66000157757234 0 1 0
1287 253 5 -0.13 7.832979548551337 4.952472314636662 45.24622006194308 0 0 0
2737 343 9 0.13 6.170509372723394 1.829523637489671 58.699847540122924 1 0 0
486 98 1 0.96 11.274402684300865 0.11639705189536231 55.75633136017918 0 0 0
4858 476 6 -0.17 6.087314329441457 1.4598554703023434 45.977770301597204 1 1 0
536 108 1 0.96 10.051650506997284 7.494913642834079 58.19541498721993 0 0 0
1294 253 9 0.13 8.86701604607618 2.4390291489956404 46.38802065717974 0 0 0
2858 351 6 -0.17 12.787874879102143 6.533255335969071 45.75581713633913 0 -1 0
4337 443 9 0.13 9.924286729419197 2.7592641121691215 51.60322133489293 1 0 0
2434 324 9 0.13 10.75567095874898 12.298062547033656 58.35513824999772 0 0 0
255 51 2 -0.49 16.63416384222707 8.509390003636645 45.22933026590665 0 0 0
2866 351 9 0.13 11.984166349003424 5.972794183646195 46.2333481847396 0 -1 0
2426 324 6 -0.17 10.220881314683124 12.467628463386431 59.289668848604805 0 0 0
3761 407 9 0.13 19.574772910206562 9.668037339111352 46.12536912998233 -1 0 0
2432 324 9 0.13 9.147963342292256 12.46638231165219 59.09745677311453 0 0 0
1967 295 9 0.13 17.222163802350053 12.750083781503355 59.165067459780474 0 1 0
1271 252 5 -0.13 19.432310872555306 3.5567968336394316 53.075877371832135 0 1 0
282 57 2 -0.49 13.973778479451285 10.11627016719604 58.53178825423821 0 1 0
4051 426 3 0.15 11.569035899319514 13.128663281002567 46.26524752019437 1 0 0
1660 276 8 0.21 17.30904598108972 2.670536937340278 59.55353704079795 0 0 0
3023 361 9 0.13 18.756866111309133 12.511430892921167 57.046937201675256 0 0 0
4055 426 5 -0.13 12.950573061578385 13.039848380299272 45.980550967461554 1 0 0
3016 361 6 -0.17 18.718865105228115 11.59641977511875 56.45582758564525 0 0 0
3750 407 5 -0.13 19.844571796888683 6.38755722661439 46.62817297398915 -1 0 0
962 193 2 -0.49 18.459578961448514 10.197970998053023 49.10526737267246 0 0 0
2583 334 5 -0.13 19.129885839017025 12.723468485343059 45.80540788207938 0 0 0
490 98 2 -0.49 11.523620250942349 1.0264271348398042 56.84029467944427 0 0 0
1268 252 4 -0.11 19.53728572283627 5.568264221989838 52.247334374587616 0 1 0
2588 334 8 0.21 19.722807916373966 12.728690396820737 46.70807955446565 0 0 0
1445 263 3 0.15 0.32897330501574623 3.4233870851112136 46.96235996863233 1 0 0
4316 442 8 0.21 6.479222379915761 10.499885514992823 46.005981315659675 0 -1 0
1663 276 9 0.13 18.82392522571548 2.999085434881685 57.07182769619622 0 0 0
2579 334 3 0.15 17.784474016588202 12.487491422976987 45.66979812012023 0 0 0
4052 426 4 -0.11 10.974752188764718 12.506185123214284 45.29492189674285 1 0 0
817 164 2 -0.49 12.169441705140729 5.0585064787461995 50.86685865769595 0 0 0
4859 476 8 0.21 7.347803445437525 1.0445397214429646 48.57308873399772 1 1 0
4336 443 9 0.13 10.431447352351405 2.201265433896683 53.055795578193475 1 0 0
332 67 2 -0.49 13.460570179062305 2.614566118284492 45.93290588342381 0 1 0
540 108 2 -0.49 11.386405001229248 7.952768623203062 58.18313791506296 0 0 0
851 171 1 0.96 0.4517764627920205 5.887123392334289 50.81176507775679 0 0 0
538 108 2 -0.49 9.702398078174264 7.47839696287227 59.5126735841021 0 0 0
1273 252 7 0.21 19.157340932304347 6.492265048147237 51.837133889639745 0 1 0
335 67 2 -0.49 15.005450953901839 1.0875640241716273 46.52082391056503 0 1 0
4253 438 9 0.13 10.780946721583915 0.18627521419412157 48.388247272315624 0 0 0
4366 445 9 0.13 11.47096349779316 13.026979181852575 54.1374840873169 0 0 0
961 193 1 0.96 19.687312439569535 10.412925490892212 49.68188262829946 0 0 0
1657 276 7 0.21 15.95135173154039 1.1771454580694574 55.953162292312356 0 0 0
4308 442 4 -0.11 3.6210535275683355 11.616985687445203 45.084896336126185 0 -1 0
2113 304 9 0.13 11.285256353342445 9.458226347077655 53.61227956839594 1 0 0
3749 407 3 0.15 19.898613079744624 7.584836314611787 45.898530999904516 -1 0 0
3756 407 8 0.21 18.82980002696434 4.533224575570712 46.29767395621034 -1 0 0
331 67 1 0.96 13.920421608660574 1.8098313237190677 46.906470172288586 0 1 0
1293 253 9 0.13 9.799792942669123 3.8250792744176665 46.623514069215375 0 0 0
940 188 2 -0.49 19.95274540704099 2.0557296930804014 49.74721274219472 -1 1 0
2111 304 9 0.13 16.49680872153726 9.211410864178234 52.082562319269464 1 0 0
3989 422 3 0.15 13.398123835490983 4.294228226756277 55.934012146118874 0 0 0
4 1 2 -0.49 16.58879482228176 1.161679417325762 53.55080606488791 0 0 0
3991 422 5 -0.13 13.067221695532416 5.745854192859475 57.56907920161456 0 0 0
1267 252 3 0.15 18.679418663344833 4.639785189113137 52.61857432698141 0 1 0
1276 252 8 0.21 18.965723449189728 2.6419534648331138 53.41017931239646 0 1 0
1899 291 8 0.21 17.090738092327012 0.9605250429475793 47.56063765975393 0 1 0
1132 227 2 -0.49 3.0947582276906602 0.967204231049231 55.12461431876815 0 0 0
3998 422 9 0.13 14.48652328382023 7.8250072547920375 58.03544334839761 0 0 0
2590 334 9 0.13 16.799800990637497 11.069828100542956 46.926969054835695 0 0 0
749 150 2 -0.49 13.356752913635967 12.18598774800623 48.84417676244342 1 1 0
750 150 2 -0.49 13.572336020044855 12.03165636658864 51.17611534615496 1 1 0
1032 207 2 -0.49 18.659932266624917 6.691884191912145 54.982727231043974 0 1 0
3022 361 9 0.13 19.27404515159515 10.795723580061555 56.94445906932461 0 0 0
1278 252 9 0.13 16.891959635665522 4.50610798583614 53.65682255896558 0 1 0
333 67 2 -0.49 14.294166574485804 2.5359226333514635 48.06701936455168 0 1 0
1654 276 5 -0.13 15.977882212534746 1.0311753014546163 59.0797076494794 0 0 0
1655 276 5 -0.13 16.832404831853466 2.0353979724712046 58.821545433260255 0 0 0
4001 422 9 0.13 13.41341615835141 2.150234882918612 55.75699003427678 0 0 0
1456 263 9 0.13 0.3866825542171058 2.4662038037272587 48.89831136907206 1 0 0
334 67 2 -0.49 12.75532500014443 1.068332140506409 47.22609443992317 0 1 0
597 120 2 -0.49 14.891498031571953 4.535978519177981 59.48261886567486 0 1 0
1033 207 2 -0.49 16.903867517607758 7.901916753182408 54.41229107099213 0 1 0
937 188 2 -0.49 17.790860310528483 2.2480660945866346 49.54528573503623 -1 1 0
1653 276 3 0.15 15.541136978660795 0.4729286760139969 57.91822482810317 0 0 0
2110 304 9 0.13 17.305443663143553 10.35817759362148 52.97361796994399 1 0 0
3995 422 8 0.21 11.917782136422217 3.9232875695917206 57.40777459452233 0 0 0
2853 351 3 0.15 13.775901704847637 6.879223316172051 46.800098483508016 0 -1 0
3994 422 6 -0.17 13.243976612155672 3.043234171421263 55.155373451955455 0 0 0
818 164 2 -0.49 12.764100167832655 6.909631548891298 52.06760310344599 0 0 0
1656 276 6 -0.17 17.801566425397773 2.9300940008997767 56.700179100623735 0 0 0
4245 438 3 0.15 13.459558768060374 1.2901894675317813 51.12278145662474 0 0 0
853 171 2 -0.49 0.06424345964989334 4.718258897169368 51.382020863281305 0 0 0
2860 351 8 0.21 15.517062054508921 8.533331567962588 48.99054643288627 0 -1 0
2105 304 7 0.21 13.760655810793113 9.128801940518162 52.446615147686515 1 0 0
3996 422 8 0.21 12.734716038564521 6.311382587771173 58.4269939013344 0 0 0
2101 304 3 0.15 13.158312593136822 10.166630960691663 54.23394788270328 1 0 0
2584 334 6 -0.17 16.909247342513325 12.14605075417165 46.79330396723843 0 0 0
2863 351 9 0.13 16.33216624761431 5.0044122814072685 49.39122168573659 0 -1 0
3624 399 6 -0.17 17.46295195381283 6.428107009745884 59.48342851590757 0 0 0
4249 438 7 0.21 12.339296130922776 1.858583715407881 49.37513036837017 0 0 0
2099 304 3 0.15 15.103685291298355 10.331487422047172 53.46605579782522 1 0 0
3988 422 4 -0.11 14.360854841888886 5.24325219444459 55.81209781508593 0 0 0
2794 347 6 -0.17 0.021214620609518068 5.769884210219477 54.73409438747077 0 1 0
2591 334 9 0.13 17.427564731138073 12.540583196881203 47.66725549124782 0 0 0
1279 252 9 0.13 16.860295102667255 5.800374564126072 52.582472816576136 0 1 0
819 164 2 -0.49 11.387570494105042 5.331252558937887 52.973979093352696 0 0 0
1651 276 3 0.15 17.07225967705227 1.9120531718893763 57.4793281736913 0 0 0
4257 438 9 0.13 15.37751375164555 1.8122783247383176 50.60016087375314 0 0 0
4329 443 7 0.21 8.426297682642838 0.6038418241160276 51.77903831921077 1 0 0
1662 276 9 0.13 17.244008680958217 3.835493705371122 56.46042766814246 0 0 0
1277 252 9 0.13 16.83320513004059 4.145668867451811 51.85044425009913 0 1 0
2103 304 5 -0.13 15.06571969728972 11.068632337094218 54.67210495653564 1 0 0
2854 351 5 -0.13 14.270563785489458 8.145127358995694 47.206268489773 0 -1 0
2109 304 9 0.13 16.17736905951267 10.823198434691834 51.71863781653682 1 0 0
2859 351 8 0.21 14.069417045248807 9.073088010171634 46.69165308048656 0 -1 0
281 57 1 0.96 14.928694451858025 11.080138163046112 59.056130958612776 0 1 0
4002 422 9 0.13 12.310813992824528 3.0645091745174975 54.592474786376535 0 0 0
4258 438 9 0.13 14.463880707272537 3.252388393294908 50.97769144125472 0 0 0
2855 351 5 -0.13 15.045933928441384 7.901321012369111 48.25230463481561 0 -1 0
939 188 2 -0.49 18.984225777196478 4.148087122158917 49.567139729360406 -1 1 0
2861 351 9 0.13 16.684105207724 6.668324215951339 49.86369592344205 0 -1 0
2114 304 9 0.13 11.823379084487867 8.799965438109789 55.09586348443892 1 0 0
2787 347 3 0.15 0.02961794664580708 9.284517311701908 54.04195763341314 0 1 0
1652 276 4 -0.11 16.195243233875804 1.1023169213743076 57.002599105871795 0 0 0
1272 252 6 -0.17 17.220387716260376 4.773964690327822 52.65258763465176 0 1 0
3987 422 3 0.15 14.103605468798039 6.206190128663857 56.715264703558645 0 0 0
2107 304 8 0.21 13.418455308474462 11.148032059780554 56.14644319664693 1 0 0
2852 351 4 -0.11 14.401733042266633 5.972208068536402 47.4930050745635 0 -1 0
1034 207 2 -0.49 18.347356894861907 8.553071124839706 56.0095401627545 0 1 0
938 188 2 -0.49 19.019725833483 2.625959498502636 47.76559678651077 -1 1 0
3999 422 9 0.13 15.845873002577344 7.037934353471105 57.018389475108926 0 0 0
3011 361 3 0.15 19.547840722738215 11.95446319344982 55.255842498190624 0 0 0
2106 304 6 -0.17 11.791605715610189 9.735213924385404 54.53693529340559 1 0 0
2862 351 9 0.13 15.174721203983665 5.802005009623324 50.3921125086715 0 -1 0
1035 207 2 -0.49 19.001057165974178 8.419219417749835 53.76962454141272 0 1 0
1661 276 9 0.13 17.885510166816253 2.5147390574387813 55.6959213007117 0 0 0
2112 304 9 0.13 11.301066934259513 10.575854834727172 55.0276435234186 1 0 0
2856 351 6 -0.17 15.886155627890579 5.979791805417153 49.5856678867429 0 -1 0
3751 407 5 -0.13 19.209204133201652 5.473149946156231 45.92485652682482 -1 0 0
2108 304 8 0.21 16.0187067124021 11.432565107672563 55.02674377286468 1 0 0
4000 422 9 0.13 13.971231937567063 2.9595191278629964 54.34778971805699 0 0 0
2589 334 9 0.13 16.00717442316106 12.734015949313337 46.624007238421385 0 0 0
285 57 2 -0.49 15.434225733328473 11.742107604517502 57.957576755943386 0 1 0
3990 422 5 -0.13 12.668509974980447 4.620700438459274 57.06656644218144 0 0 0
936 188 1 0.96 19.007649488185493 2.801172948196003 49.12362739580092 -1 1 0
820 164 2 -0.49 13.546117624807996 4.808699769320413 52.77185062644276 0 0 0