
    -----------------------------------------------------------------------
          Psi4: An Open-Source Ab Initio Electronic Structure Package
                               Psi4 1.9 release

                         Git: Rev {} zzzzzzz 


    D. G. A. Smith, L. A. Burns, A. C. Simmonett, R. M. Parrish,
    M. C. Schieber, R. Galvelis, P. Kraus, H. Kruse, R. Di Remigio,
    A. Alenaizan, A. M. James, S. Lehtola, J. P. Misiewicz, M. Scheurer,
    R. A. Shaw, J. B. Schriber, Y. Xie, Z. L. Glick, D. A. Sirianni,
    J. S. O'Brien, J. M. Waldrop, A. Kumar, E. G. Hohenstein,
    B. P. Pritchard, B. R. Brooks, H. F. Schaefer III, A. Yu. Sokolov,
    K. Patkowski, A. E. DePrince III, U. Bozkaya, R. A. King,
    F. A. Evangelista, J. M. Turney, T. D. Crawford, C. D. Sherrill,
    J. Chem. Phys. 152(18) 184108 (2020). https://doi.org/10.1063/5.0006002

                            Additional Code Authors
    E. T. Seidl, C. L. Janssen, E. F. Valeev, M. L. Leininger,
    J. F. Gonthier, R. M. Richard, H. R. McAlexander, M. Saitow, X. Wang,
    P. Verma, M. H. Lechner, A. Jiang, S. Behnle, A. G. Heide,
    M. F. Herbst, and D. L. Poole

             Previous Authors, Complete List of Code Contributors,
                       and Citations for Specific Modules
    https://github.com/psi4/psi4/blob/master/codemeta.json
    https://github.com/psi4/psi4/graphs/contributors
    http://psicode.org/psi4manual/master/introduction.html#citing-psifour

    -----------------------------------------------------------------------


    Psi4 started on: Saturday, 27 January 2024 11:25AM

    Process ID: 3412161
    Host:       n2cn0502
    PSIDATADIR: /opt/software/pc2/EB-SW/software/PSI4/1.9-foss-2022a/share/psi4
    Memory:     500.0 MiB
    Threads:    16
    
  ==> Input File <==

--------------------------------------------------------------------------
memory 64 GB # how much memory is available ! Depends on the nodes/cores !

molecule dimer {
# monomer A
-1 1    # Charge and multiplicity
B -0.000046  0.000337 5.199994
F -1.153597  0.000048 6.015641
F  1.153661 -0.000581 6.015641
F -0.000019 -1.153637 4.384360
F -0.000019  1.153978 4.384360
--
# monomer B
0 1     # Charge and multiplicity
C   -3.66844126402057      7.80375217008252      0.00190004133558
C   -4.84759871934653      7.13124183134024     -0.00046653359696
C   -4.89495929917518      5.69633040353158     -0.00103944469517
C   -3.65374067877320      4.98073034095895      0.00662099703436
C   -2.40942512149445      7.11398103667468      0.00209438359570
C   -2.42547734410473      5.68112195090346     -0.00491050527438
C   -1.19474401643570      7.78614419430947      0.00356656413763
C   0.03795902893699      7.09942164575698      0.00139585983271
C   0.03033258741920      5.66948955970466     -0.00408752508301
C   -1.20098450790502      4.96927034791531      0.00488220885047
C   1.27795782581485      7.77285944319479      0.00277170839332
C   2.48535808472416      7.08769688523756      0.00049722048857
C   2.48612868491717      5.65477081024076     -0.00644052849921
C   1.25408291964399      4.95607811366431      0.00518741308898
C   3.75171459140595      7.76391215098033      0.00062407186893
C   4.92356605618520      7.07878077698995     -0.00143240883900
C   4.95560727132542      5.64344746336949     -0.00159282164606
C   3.70680153420475      4.94121020833308      0.00349873852374
H   -3.65852113775815      8.89082741913536      0.00358502958574
H   -1.18921332975660      8.87412108735996      0.00753844057883
H   1.28429423888630      8.86083343548850      0.00693053253426
H   3.75354208679975      8.85103527897216      0.00214659618464
H   5.86995870320703      7.61379483465560     -0.00235777588134
H   -5.78823170750226      7.67630221293400     -0.00202638095293
C   -6.09197395869619      4.99326001364347     -0.00291168518608
C   -6.12866148031747      3.58258016879823     -0.00171050815740
C   -3.66457974004527      3.56418217974434     -0.00463560277484
C   -4.89429820469869      2.86108077590057      0.00453338221034
C   -2.43733499489796      2.84761165708481      0.00719617576166
C   -1.20922785759670      3.54788693497833     -0.00648285103018
C   1.24714157216223      3.53468075142962     -0.00729145743546
C   0.01517603956900      2.83311183930540      0.00439272578912
C   2.46764517244071      2.82128997725533      0.00449278391269
C   3.70254947457969      3.52466015442405     -0.00899517692985
C   6.14498038638375      4.92757236613191     -0.00282626685777
C   6.16658835886151      3.51658447594213     -0.00065971342101
C   4.92460995845939      2.80840792535402      0.00587903281610
H   7.08990550964105      5.46688776622306     -0.00658814770723
H   -7.03104175110130      5.54268795285765     -0.00714490013730
C   -7.33969804112295      2.85841153457957     -0.00333767559888
C   -7.36488195805880      1.47032337158330     -0.00157213747140
C   -4.90350460894690      1.44442681216000     -0.00628840166334
C   -6.13225715261081      0.73993935705394      0.00600164231964
C   -3.67687480051673      0.72669714267312      0.00433931473643
C   -2.44565658606518      1.42964113326212     -0.00597039546461
C   -1.22360068130162      0.71532450163492      0.00545886906656
C   0.00763786931376      1.41738314923765      0.00392452278437
C   1.23121980774686      0.70211669058719     -0.01490206287210
C   2.46082110053113      1.40329203612573      0.00460244601878
C   3.68443025419614      0.68719842821222      0.00377365974158
C   4.91870890153864      1.39173456118907     -0.00862816189375
C   7.36980207796101      2.77948220318441     -0.00242013321349
C   7.38016266612146      1.39121750785509     -0.00087345036788
C   6.13979953912259      0.67411862320065      0.00545489144369
H   -8.27919079934664      3.40711804112415     -0.00763522772059
H   8.31511347147953      3.31811809662368     -0.00663070901292
C   -8.59175593758115      0.72483255304480     -0.00123170985383
C   -8.59902460370342     -0.63263980622873      0.00089141472904
C   -6.13981313911873     -0.67413663715361     -0.00609792660607
C   -7.38018411213749     -1.39126618958160      0.00131813493501
C   -4.91868448025621     -1.39175501803000      0.00624257154343
C   -3.68443829568458     -0.68723731573599     -0.00478966852105
C   -2.46081704024768     -1.40334517882457      0.00575341766833
C   -1.23116201232071     -0.70217386488055     -0.00636696112346
C   -0.00756962538737     -1.41741884941102      0.00108956317991
C   1.22364771588843     -0.71527537726392      0.01109518512883
C   2.44567064933149     -1.42964328900682     -0.00065482763106
C   3.67686670284649     -0.72670743155550     -0.00479541202602
C   6.13224884641929     -0.73997883984993     -0.00632338623858
C   4.90351914550401     -1.44445752054090      0.00751768830159
C   8.59901484869081      0.63260386666793     -0.00101133422380
C   8.59174548810050     -0.72485086719319      0.00072504603735
C   7.36486276438985     -1.47033266560598      0.00049486934466
H   -9.52830597181814      1.27684744919284     -0.00270163681798
H   9.54141097460619      1.17457248844457     -0.00206336648518
C   -7.36983790976868     -2.77954514593389      0.00312634335708
C   -4.92459910905015     -2.80843725734101     -0.00460528907921
C   -6.16662249566744     -3.51665219282533      0.00169655107992
C   -3.70251035970491     -3.52468154912026      0.00571878010666
C   -2.46764698511392     -2.82132596280400     -0.00632585824990
C   -0.01513347410770     -2.83314164539971     -0.00604426974092
C   -1.24712184122656     -3.53473217556300      0.00551968366725
C   1.20924506964357     -3.54791467864352      0.00805871345849
C   2.43733602215464     -2.84764173817541     -0.00608104485234
C   4.89430234377080     -2.86112296828604     -0.00526030478103
C   3.66461525504104     -3.56421984553201      0.00761911515957
C   6.12863901474565     -3.58258405771778      0.00096495711699
C   7.33967266469532     -2.85841330737039      0.00248018319869
H   -9.54144911125902     -1.17456346666430      0.00226083090216
H   9.52826186807155     -1.27691907390448      0.00197485379837
H   -8.31516504384864     -3.31814985321231      0.00729857188773
H   8.27915514249207     -3.40714078989363      0.00681973918158
C   -6.14499418870218     -4.92764727278338      0.00302254913999
C   -3.70678334799751     -4.94126171411716     -0.00679841894792
C   -4.95559005800169     -5.64349397349412      0.00116871569699
C   -2.48612132622665     -5.65478557440947      0.00614125209662
C   -1.25405833548005     -4.95612205000132     -0.00503435388927
C   1.20101257386816     -4.96928038819302     -0.00385322963129
C   -0.03033667441341     -5.66952030313900      0.00398997003238
C   3.65375010132847     -4.98074377541453     -0.00309522988330
C   2.42549269587528     -5.68117463552727      0.00628170066869
C   6.09196561781097     -4.99325796338655      0.00325918379042
C   4.89497644461045     -5.69634842095790      0.00202298796027
H   -7.08989238804069     -5.46699984223871      0.00742531082125
H   7.03105520920009     -5.54265853633254      0.00683896355417
C   -4.92354532219813     -7.07882109967734      0.00061394679214
C   -2.48534208823777     -7.08772807792913     -0.00189594564379
C   -3.75168589177895     -7.76394715763627     -0.00170126671874
C   -0.03794895698805     -7.09946487446944     -0.00168022049625
C   -1.27795610040136     -7.77290438466689     -0.00366491325785
C   2.40944432072629     -7.11402201200282     -0.00081701968533
C   1.19474993715296     -7.78618536556242     -0.00296931056689
C   4.84762105249800     -7.13126211057943      0.00168979497423
C   3.66847160587561     -7.80378799294376     -0.00065863938960
H   -5.86994035041618     -7.61383059804164      0.00215798365757
H   5.78824962538815     -7.67633218931421      0.00281691445618
H   -3.75352693944918     -8.85107156923607     -0.00353718114765
H   -1.28430440589466     -8.86087539249706     -0.00809229711623
H   1.18922157469537     -8.87416062058945     -0.00706194725726
H   3.65854661482387     -8.89086063405326     -0.00231318081200

    units angstrom      # Angstroms are the default
    no_reorient         # Geometry fixed, default
    symmetry c1         # C1 symmetry, default
}

set {
    scf_type DF         # Density fitting, faster than exact integrals
    freeze_core True    # Freeze core electrons
    basis jun-cc-pVDZ   # Jun-cc-pVDZ basis set, recommended for sSAPT0 in https://doi.org/10.1063/1.4867135
}

energy('ssapt0')        # Compute sSAPT0 energy, includes also SAPT0
--------------------------------------------------------------------------

  Memory set to  59.605 GiB by Python driver.

Scratch directory: /tmp/
   => Loading Basis Set <=

    Name: JUN-CC-PVDZ
    Role: ORBITAL
    Keyword: BASIS
    atoms 1                                                   entry B          line   130 file /opt/software/pc2/EB-SW/software/PSI4/1.9-foss-2022a/share/psi4/basis/jun-cc-pvdz.gbs 
    atoms 2-5                                                 entry F          line   266 file /opt/software/pc2/EB-SW/software/PSI4/1.9-foss-2022a/share/psi4/basis/jun-cc-pvdz.gbs 
    atoms 6-23, 30-42, 45-59, 62-78, 81-93, 98-108, 111-119   entry C          line   164 file /opt/software/pc2/EB-SW/software/PSI4/1.9-foss-2022a/share/psi4/basis/jun-cc-pvdz.gbs 
    atoms 24-29, 43-44, 60-61, 79-80, 94-97, 109-110, 120-125 entry H          line    36 file /opt/software/pc2/EB-SW/software/PSI4/1.9-foss-2022a/share/psi4/basis/jun-cc-pvdz.gbs 

   => Loading Basis Set <=

    Name: JUN-CC-PVDZ
    Role: ORBITAL
    Keyword: BASIS
    atoms 1                                                   entry B          line   130 file /opt/software/pc2/EB-SW/software/PSI4/1.9-foss-2022a/share/psi4/basis/jun-cc-pvdz.gbs 
    atoms 2-5                                                 entry F          line   266 file /opt/software/pc2/EB-SW/software/PSI4/1.9-foss-2022a/share/psi4/basis/jun-cc-pvdz.gbs 
    atoms 6-23, 30-42, 45-59, 62-78, 81-93, 98-108, 111-119   entry C          line   164 file /opt/software/pc2/EB-SW/software/PSI4/1.9-foss-2022a/share/psi4/basis/jun-cc-pvdz.gbs 
    atoms 24-29, 43-44, 60-61, 79-80, 94-97, 109-110, 120-125 entry H          line    36 file /opt/software/pc2/EB-SW/software/PSI4/1.9-foss-2022a/share/psi4/basis/jun-cc-pvdz.gbs 


  //>>>>>>>>>>>>>>>>>>>>>>>>>>>>>>>>>>>//
  //              Dimer HF             //
  //<<<<<<<<<<<<<<<<<<<<<<<<<<<<<<<<<<<//

   => Libint2 <=

    Primary   basis highest AM E, G, H:  5, 4, 3
    Auxiliary basis highest AM E, G, H:  6, 5, 4
    Onebody   basis highest AM E, G, H:  6, 5, 4
    Solid Harmonics ordering:            gaussian

*** tstart() called on n2cn0502
*** at Sat Jan 27 11:26:25 2024

   => Loading Basis Set <=

    Name: JUN-CC-PVDZ
    Role: ORBITAL
    Keyword: BASIS
    atoms 1                                                   entry B          line   130 file /opt/software/pc2/EB-SW/software/PSI4/1.9-foss-2022a/share/psi4/basis/jun-cc-pvdz.gbs 
    atoms 2-5                                                 entry F          line   266 file /opt/software/pc2/EB-SW/software/PSI4/1.9-foss-2022a/share/psi4/basis/jun-cc-pvdz.gbs 
    atoms 6-23, 30-42, 45-59, 62-78, 81-93, 98-108, 111-119   entry C          line   164 file /opt/software/pc2/EB-SW/software/PSI4/1.9-foss-2022a/share/psi4/basis/jun-cc-pvdz.gbs 
    atoms 24-29, 43-44, 60-61, 79-80, 94-97, 109-110, 120-125 entry H          line    36 file /opt/software/pc2/EB-SW/software/PSI4/1.9-foss-2022a/share/psi4/basis/jun-cc-pvdz.gbs 


         ---------------------------------------------------------
                                   SCF
               by Justin Turney, Rob Parrish, Andy Simmonett
                          and Daniel G. A. Smith
                              RHF Reference
                       16 Threads,  61035 MiB Core
         ---------------------------------------------------------

  ==> Geometry <==

    Molecular point group: c1
    Full point group: C1

    Geometry (in Angstrom), charge = -1, multiplicity = 1:

       Center              X                  Y                   Z               Mass       
    ------------   -----------------  -----------------  -----------------  -----------------
         B           -0.000050191042     0.000351518223     4.841838192738    11.009305360000
         F           -1.153601191042     0.000062518223     5.657485192738    18.998403162730
         F            1.153656808958    -0.000566481777     5.657485192738    18.998403162730
         F           -0.000023191042    -1.153622481777     4.026204192738    18.998403162730
         F           -0.000023191042     1.153992518223     4.026204192738    18.998403162730
         C           -3.668445455062     7.803766688305    -0.356255765926    12.000000000000
         C           -4.847602910388     7.131256349563    -0.358622340859    12.000000000000
         C           -4.894963490217     5.696344921754    -0.359195251957    12.000000000000
         C           -3.653744869815     4.980744859182    -0.351534810227    12.000000000000
         C           -2.409429312536     7.113995554897    -0.356061423666    12.000000000000
         C           -2.425481535146     5.681136469126    -0.363066312536    12.000000000000
         C           -1.194748207477     7.786158712532    -0.354589243124    12.000000000000
         C            0.037954837895     7.099436163980    -0.356759947429    12.000000000000
         C            0.030328396378     5.669504077927    -0.362243332345    12.000000000000
         C           -1.200988698947     4.969284866138    -0.353273598411    12.000000000000
         C            1.277953634773     7.772873961417    -0.355384098868    12.000000000000
         C            2.485353893683     7.087711403460    -0.357658586773    12.000000000000
         C            2.486124493876     5.654785328463    -0.364596335761    12.000000000000
         C            1.254078728602     4.956092631887    -0.352968394173    12.000000000000
         C            3.751710400364     7.763926669203    -0.357531735393    12.000000000000
         C            4.923561865144     7.078795295213    -0.359588216101    12.000000000000
         C            4.955603080284     5.643461981592    -0.359748628908    12.000000000000
         C            3.706797343163     4.941224726556    -0.354657068738    12.000000000000
         H           -3.658525328800     8.890841937358    -0.354570777676     1.007825032230
         H           -1.189217520798     8.874135605583    -0.350617366683     1.007825032230
         H            1.284290047845     8.860847953711    -0.351225274727     1.007825032230
         H            3.753537895758     8.851049797195    -0.356009211077     1.007825032230
         H            5.869954512165     7.613809352878    -0.360513583143     1.007825032230
         H           -5.788235898544     7.676316731157    -0.360182188215     1.007825032230
         C           -6.091978149738     4.993274531866    -0.361067492448    12.000000000000
         C           -6.128665671359     3.582594687021    -0.359866315419    12.000000000000
         C           -3.664583931087     3.564196697967    -0.362791410036    12.000000000000
         C           -4.894302395740     2.861095294123    -0.353622425051    12.000000000000
         C           -2.437339185940     2.847626175307    -0.350959631500    12.000000000000
         C           -1.209232048638     3.547901453201    -0.364638658292    12.000000000000
         C            1.247137381121     3.534695269652    -0.365447264697    12.000000000000
         C            0.015171848527     2.833126357528    -0.353763081473    12.000000000000
         C            2.467640981399     2.821304495478    -0.353663023349    12.000000000000
         C            3.702545283538     3.524674672647    -0.367150984192    12.000000000000
         C            6.144976195342     4.927586884354    -0.360982074119    12.000000000000
         C            6.166584167820     3.516598994165    -0.358815520683    12.000000000000
         C            4.924605767418     2.808422443577    -0.352276774446    12.000000000000
         H            7.089901318599     5.466902284446    -0.364743954969     1.007825032230
         H           -7.031045942143     5.542702471080    -0.365300707399     1.007825032230
         C           -7.339702232165     2.858426052802    -0.361493482861    12.000000000000
         C           -7.364886149100     1.470337889806    -0.359727944733    12.000000000000
         C           -4.903508799989     1.444441330383    -0.364444208925    12.000000000000
         C           -6.132261343652     0.739953875277    -0.352154164942    12.000000000000
         C           -3.676878991558     0.726711660896    -0.353816492525    12.000000000000
         C           -2.445660777107     1.429655651485    -0.364126202726    12.000000000000
         C           -1.223604872343     0.715339019858    -0.352696938195    12.000000000000
         C            0.007633678272     1.417397667460    -0.354231284477    12.000000000000
         C            1.231215616705     0.702131208810    -0.373057870134    12.000000000000
         C            2.460816909489     1.403306554348    -0.353553361243    12.000000000000
         C            3.684426063155     0.687212946435    -0.354382147520    12.000000000000
         C            4.918704710497     1.391749079412    -0.366783969155    12.000000000000
         C            7.369797886919     2.779496721407    -0.360575940475    12.000000000000
         C            7.380158475080     1.391232026078    -0.359029257630    12.000000000000
         C            6.139795348081     0.674133141423    -0.352700915818    12.000000000000
         H           -8.279194990388     3.407132559347    -0.365791034982     1.007825032230
         H            8.315109280438     3.318132614846    -0.364786516275     1.007825032230
         C           -8.591760128623     0.724847071267    -0.359387517115    12.000000000000
         C           -8.599028794745    -0.632625288006    -0.357264392533    12.000000000000
         C           -6.139817330160    -0.674122118931    -0.364253733868    12.000000000000
         C           -7.380188303179    -1.391251671359    -0.356837672327    12.000000000000
         C           -4.918688671298    -1.391740499807    -0.351913235718    12.000000000000
         C           -3.684442486726    -0.687222797513    -0.362945475783    12.000000000000
         C           -2.460821231289    -1.403330660602    -0.352402389593    12.000000000000
         C           -1.231166203362    -0.702159346658    -0.364522768385    12.000000000000
         C           -0.007573816429    -1.417404331188    -0.357066244082    12.000000000000
         C            1.223643524847    -0.715260859041    -0.347060622133    12.000000000000
         C            2.445666458290    -1.429628770784    -0.358810634893    12.000000000000
         C            3.676862511805    -0.726692913333    -0.362951219288    12.000000000000
         C            6.132244655378    -0.739964321627    -0.364479193500    12.000000000000
         C            4.903514954462    -1.444443002318    -0.350638118960    12.000000000000
         C            8.599010657649     0.632618384891    -0.359167141485    12.000000000000
         C            8.591741297059    -0.724836348971    -0.357430761224    12.000000000000
         C            7.364858573348    -1.470318147383    -0.357660937917    12.000000000000
         H           -9.528310162860     1.276861967415    -0.360857444080     1.007825032230
         H            9.541406783565     1.174587006667    -0.360219173747     1.007825032230
         C           -7.369842100810    -2.779530627711    -0.355029463905    12.000000000000
         C           -4.924603300092    -2.808422739118    -0.362761096341    12.000000000000
         C           -6.166626686709    -3.516637674603    -0.356459256182    12.000000000000
         C           -3.702514550747    -3.524667030898    -0.352437027155    12.000000000000
         C           -2.467651176156    -2.821311444581    -0.364481665512    12.000000000000
         C           -0.015137665149    -2.833127127177    -0.364200077003    12.000000000000
         C           -1.247126032268    -3.534717657340    -0.352636123594    12.000000000000
         C            1.209240878602    -3.547900160421    -0.350097093803    12.000000000000
         C            2.437331831113    -2.847627219953    -0.364236852114    12.000000000000
         C            4.894298152729    -2.861108450063    -0.363416112043    12.000000000000
         C            3.664611063999    -3.564205327309    -0.350536692102    12.000000000000
         C            6.128634823704    -3.582569539495    -0.357190850145    12.000000000000
         C            7.339668473654    -2.858398789148    -0.355675624063    12.000000000000
         H           -9.541453302301    -1.174548948442    -0.355894976359     1.007825032230
         H            9.528257677030    -1.276904555682    -0.356180953463     1.007825032230
         H           -8.315169234890    -3.318135334990    -0.350857235374     1.007825032230
         H            8.279150951450    -3.407126271671    -0.351336068080     1.007825032230
         C           -6.144998379744    -4.927632754561    -0.355133258122    12.000000000000
         C           -3.706787539039    -4.941247195895    -0.364954226210    12.000000000000
         C           -4.955594249043    -5.643479455272    -0.356987091565    12.000000000000
         C           -2.486125517268    -5.654771056187    -0.352014555165    12.000000000000
         C           -1.254062526522    -4.956107531779    -0.363190161151    12.000000000000
         C            1.201008382827    -4.969265869970    -0.362009036893    12.000000000000
         C           -0.030340865455    -5.669505784916    -0.354165837229    12.000000000000
         C            3.653745910287    -4.980729257192    -0.361251037145    12.000000000000
         C            2.425488504834    -5.681160117305    -0.351874106593    12.000000000000
         C            6.091961426769    -4.993243445164    -0.354896623471    12.000000000000
         C            4.894972253569    -5.696333902735    -0.356132819301    12.000000000000
         H           -7.089896579082    -5.466985324016    -0.350730496440     1.007825032230
         H            7.031051018158    -5.542644018110    -0.351316843707     1.007825032230
         C           -4.923549513240    -7.078806581455    -0.357541860470    12.000000000000
         C           -2.485346279279    -7.087713559707    -0.360051752905    12.000000000000
         C           -3.751690082821    -7.763932639414    -0.359857073980    12.000000000000
         C           -0.037953148030    -7.099450356247    -0.359836027758    12.000000000000
         C           -1.277960291443    -7.772889866444    -0.361820720520    12.000000000000
         C            2.409440129685    -7.114007493780    -0.358972826947    12.000000000000
         C            1.194745746111    -7.786170847340    -0.361125117829    12.000000000000
         C            4.847616861456    -7.131247592357    -0.356466012287    12.000000000000
         C            3.668467414834    -7.803773474721    -0.358814446651    12.000000000000
         H           -5.869944541458    -7.613816079819    -0.355997823604     1.007825032230
         H            5.788245434347    -7.676317671092    -0.355338892805     1.007825032230
         H           -3.753531130491    -8.851057051013    -0.361692988409     1.007825032230
         H           -1.284308596936    -8.860860874274    -0.366248104378     1.007825032230
         H            1.189217383654    -8.874146102367    -0.365217754519     1.007825032230
         H            3.658542423782    -8.890846115831    -0.360468988074     1.007825032230

  Running in c1 symmetry.

  Rotational constants: A =      0.00064  B =      0.00064  C =      0.00035 [cm^-1]
  Rotational constants: A =     19.29818  B =     19.29500  C =     10.55117 [MHz]
  Nuclear repulsion = 17449.411038952399394

  Charge       = -1
  Multiplicity = 1
  Electrons    = 642
  Nalpha       = 321
  Nbeta        = 321

  ==> Algorithm <==

  SCF Algorithm Type is DF.
  DIIS enabled.
  MOM disabled.
  Fractional occupation disabled.
  Guess Type is SAD.
  Energy threshold   = 1.00e-08
  Density threshold  = 1.00e-08
  Integral threshold = 1.00e-12

  ==> Primary Basis <==

  Basis Set: JUN-CC-PVDZ
    Blend: JUN-CC-PVDZ
    Number of shells: 880
    Number of basis functions: 1938
    Number of Cartesian functions: 2039
    Spherical Harmonics?: true
    Max angular momentum: 2

   => Loading Basis Set <=

    Name: (JUN-CC-PVDZ AUX)
    Role: JKFIT
    Keyword: DF_BASIS_SCF
    atoms 1                                                   entry B          line    90 file /opt/software/pc2/EB-SW/software/PSI4/1.9-foss-2022a/share/psi4/basis/jun-cc-pvdz-jkfit.gbs 
    atoms 2-5                                                 entry F          line   314 file /opt/software/pc2/EB-SW/software/PSI4/1.9-foss-2022a/share/psi4/basis/jun-cc-pvdz-jkfit.gbs 
    atoms 6-23, 30-42, 45-59, 62-78, 81-93, 98-108, 111-119   entry C          line   146 file /opt/software/pc2/EB-SW/software/PSI4/1.9-foss-2022a/share/psi4/basis/jun-cc-pvdz-jkfit.gbs 
    atoms 24-29, 43-44, 60-61, 79-80, 94-97, 109-110, 120-125 entry H          line    70 file /opt/software/pc2/EB-SW/software/PSI4/1.9-foss-2022a/share/psi4/basis/jun-cc-pvdz-jkfit.gbs 

  ==> Integral Setup <==

  ==> DiskDFJK: Density-Fitted J/K Matrices <==

    J tasked:                  Yes
    K tasked:                  Yes
    wK tasked:                  No
    OpenMP threads:             16
    Integrals threads:          16
    Memory [MiB]:            45776
    Algorithm:                Disk
    Integral Cache:           SAVE
    Schwarz Cutoff:          1E-12
    Fitting Condition:       1E-10

   => Auxiliary Basis Set <=

  Basis Set: (JUN-CC-PVDZ AUX)
    Blend: JUN-CC-PVDZ-JKFIT
    Number of shells: 2943
    Number of basis functions: 8531
    Number of Cartesian functions: 9791
    Spherical Harmonics?: true
    Max angular momentum: 3

  Minimum eigenvalue in the overlap matrix is 8.9463345648E-11.
  Reciprocal condition number of the overlap matrix is 3.8831175725E-12.
    Using canonical orthogonalization.
  Overall, 38 of 1938 possible MOs eliminated.


  ==> Pre-Iterations <==

  SCF Guess: Superposition of Atomic Densities via on-the-fly atomic UHF (no occupation information).

   -------------------------
    Irrep   Nso     Nmo    
   -------------------------
     A       1938    1900 
   -------------------------
    Total    1938    1900
   -------------------------

  ==> Iterations <==

                           Total Energy        Delta E     RMS |[F,P]|

   @DF-RHF iter SAD: -4085.01051696571039   -4.08501e+03   0.00000e+00 
   @DF-RHF iter   1: -4071.51534618326332    1.34952e+01   7.90449e-04 DIIS/ADIIS
   @DF-RHF iter   2: -4072.91576858567942   -1.40042e+00   3.09724e-04 DIIS/ADIIS
   @DF-RHF iter   3: -4073.08127664469703   -1.65508e-01   1.02440e-04 DIIS/ADIIS
   @DF-RHF iter   4: -4073.10329663422863   -2.20200e-02   3.74587e-05 DIIS
   @DF-RHF iter   5: -4073.10664969608115   -3.35306e-03   1.06634e-05 DIIS
   @DF-RHF iter   6: -4073.10708172719796   -4.32031e-04   4.21961e-06 DIIS
   @DF-RHF iter   7: -4073.10725955963790   -1.77832e-04   2.10936e-06 DIIS
   @DF-RHF iter   8: -4073.10731157774171   -5.20181e-05   1.16656e-06 DIIS
   @DF-RHF iter   9: -4073.10732706360886   -1.54859e-05   3.46754e-07 DIIS
   @DF-RHF iter  10: -4073.10732801426502   -9.50656e-07   1.77164e-07 DIIS
   @DF-RHF iter  11: -4073.10732818588940   -1.71624e-07   6.28207e-08 DIIS
   @DF-RHF iter  12: -4073.10732821968804   -3.37986e-08   3.29257e-08 DIIS
   @DF-RHF iter  13: -4073.10732822725959   -7.57154e-09   1.10366e-08 DIIS
   @DF-RHF iter  14: -4073.10732822809859   -8.39009e-10   4.99609e-09 DIIS
  Energy and wave function converged.


  ==> Post-Iterations <==

    Orbital Energies [Eh]
    ---------------------

    Doubly Occupied:                                                      

       1A    -26.072640     2A    -26.072460     3A    -26.070006  
       4A    -26.069973     5A    -11.203720     6A    -11.203715  
       7A    -11.203700     8A    -11.203700     9A    -11.203654  
      10A    -11.203653    11A    -11.203644    12A    -11.203642  
      13A    -11.203614    14A    -11.203609    15A    -11.203600  
      16A    -11.203593    17A    -11.203187    18A    -11.203183  
      19A    -11.203173    20A    -11.203170    21A    -11.203096  
      22A    -11.203081    23A    -11.201025    24A    -11.201011  
      25A    -11.200941    26A    -11.200926    27A    -11.200839  
      28A    -11.200806    29A    -11.200768    30A    -11.200704  
      31A    -11.200696    32A    -11.200646    33A    -11.200543  
      34A    -11.200518    35A    -11.199870    36A    -11.199860  
      37A    -11.199754    38A    -11.199738    39A    -11.199695  
      40A    -11.199679    41A    -11.199633    42A    -11.199632  
      43A    -11.199564    44A    -11.199562    45A    -11.199556  
      46A    -11.199550    47A    -11.199056    48A    -11.199044  
      49A    -11.199002    50A    -11.198986    51A    -11.198896  
      52A    -11.198886    53A    -11.198794    54A    -11.198779  
      55A    -11.198720    56A    -11.198672    57A    -11.198622  
      58A    -11.198589    59A    -11.198547    60A    -11.198533  
      61A    -11.198389    62A    -11.198370    63A    -11.198359  
      64A    -11.198336    65A    -11.198193    66A    -11.198190  
      67A    -11.198127    68A    -11.198125    69A    -11.198124  
      70A    -11.198121    71A    -11.197811    72A    -11.197743  
      73A    -11.197618    74A    -11.197494    75A    -11.197398  
      76A    -11.197323    77A    -11.196857    78A    -11.196607  
      79A    -11.196569    80A    -11.196357    81A    -11.196253  
      82A    -11.196221    83A    -11.195901    84A    -11.195884  
      85A    -11.195837    86A    -11.195828    87A    -11.195826  
      88A    -11.195811    89A    -11.195781    90A    -11.195771  
      91A    -11.195755    92A    -11.195733    93A    -11.195705  
      94A    -11.195695    95A    -11.195661    96A    -11.195577  
      97A    -11.195530    98A    -11.194705    99A    -11.194656  
     100A    -11.194190   101A     -7.543359   102A     -1.415173  
     103A     -1.356644   104A     -1.355370   105A     -1.354130  
     106A     -1.189848   107A     -1.177238   108A     -1.177086  
     109A     -1.159939   110A     -1.159932   111A     -1.152630  
     112A     -1.141640   113A     -1.135586   114A     -1.126105  
     115A     -1.125952   116A     -1.114657   117A     -1.114634  
     118A     -1.094161   119A     -1.094142   120A     -1.090841  
     121A     -1.085930   122A     -1.085924   123A     -1.068235  
     124A     -1.054371   125A     -1.053451   126A     -1.053162  
     127A     -1.051022   128A     -1.050926   129A     -1.028300  
     130A     -1.028272   131A     -1.018372   132A     -1.018355  
     133A     -1.006819   134A     -1.006809   135A     -1.003525  
     136A     -0.987134   137A     -0.987123   138A     -0.980698  
     139A     -0.980134   140A     -0.980116   141A     -0.964016  
     142A     -0.958649   143A     -0.958612   144A     -0.948028  
     145A     -0.946335   146A     -0.943872   147A     -0.939794  
     148A     -0.939750   149A     -0.932923   150A     -0.910568  
     151A     -0.910560   152A     -0.896751   153A     -0.896709  
     154A     -0.847663   155A     -0.847626   156A     -0.843847  
     157A     -0.843801   158A     -0.841782   159A     -0.830339  
     160A     -0.830282   161A     -0.828909   162A     -0.828815  
     163A     -0.828803   164A     -0.813615   165A     -0.812064  
     166A     -0.792863   167A     -0.787077   168A     -0.787011  
     169A     -0.784251   170A     -0.782593   171A     -0.775136  
     172A     -0.775114   173A     -0.770078   174A     -0.770055  
     175A     -0.726630   176A     -0.726627   177A     -0.722413  
     178A     -0.722401   179A     -0.722336   180A     -0.722248  
     181A     -0.721159   182A     -0.707399   183A     -0.699460  
     184A     -0.689930   185A     -0.675447   186A     -0.667521  
     187A     -0.667463   188A     -0.665241   189A     -0.664955  
     190A     -0.664925   191A     -0.657180   192A     -0.653164  
     193A     -0.653138   194A     -0.640762   195A     -0.640735  
     196A     -0.627302   197A     -0.627290   198A     -0.625255  
     199A     -0.622995   200A     -0.622969   201A     -0.619321  
     202A     -0.606438   203A     -0.594977   204A     -0.591867  
     205A     -0.591853   206A     -0.591007   207A     -0.589223  
     208A     -0.589182   209A     -0.581172   210A     -0.580660  
     211A     -0.580610   212A     -0.580490   213A     -0.576105  
     214A     -0.576091   215A     -0.569658   216A     -0.556982  
     217A     -0.556972   218A     -0.552561   219A     -0.550039  
     220A     -0.550035   221A     -0.539306   222A     -0.538379  
     223A     -0.538301   224A     -0.538221   225A     -0.536971  
     226A     -0.536795   227A     -0.536598   228A     -0.536579  
     229A     -0.535824   230A     -0.533076   231A     -0.532560  
     232A     -0.532136   233A     -0.532003   234A     -0.531921  
     235A     -0.531885   236A     -0.526041   237A     -0.520541  
     238A     -0.520528   239A     -0.515108   240A     -0.515094  
     241A     -0.514598   242A     -0.508682   243A     -0.508652  
     244A     -0.506482   245A     -0.506469   246A     -0.505760  
     247A     -0.503609   248A     -0.500692   249A     -0.498696  
     250A     -0.498643   251A     -0.494530   252A     -0.491352  
     253A     -0.490708   254A     -0.484355   255A     -0.474814  
     256A     -0.474793   257A     -0.472273   258A     -0.472117  
     259A     -0.469263   260A     -0.469257   261A     -0.466722  
     262A     -0.457445   263A     -0.457389   264A     -0.456539  
     265A     -0.456517   266A     -0.451561   267A     -0.451439  
     268A     -0.451339   269A     -0.451308   270A     -0.438601  
     271A     -0.436638   272A     -0.436624   273A     -0.431997  
     274A     -0.431952   275A     -0.426764   276A     -0.423121  
     277A     -0.419025   278A     -0.419022   279A     -0.414999  
     280A     -0.412822   281A     -0.412662   282A     -0.412431  
     283A     -0.408681   284A     -0.406608   285A     -0.406594  
     286A     -0.398423   287A     -0.389829   288A     -0.389101  
     289A     -0.388446   290A     -0.384642   291A     -0.384552  
     292A     -0.379533   293A     -0.378692   294A     -0.378489  
     295A     -0.376765   296A     -0.375555   297A     -0.347119  
     298A     -0.347056   299A     -0.327764   300A     -0.327743  
     301A     -0.325002   302A     -0.324980   303A     -0.321641  
     304A     -0.294495   305A     -0.294482   306A     -0.290582  
     307A     -0.274798   308A     -0.274753   309A     -0.274327  
     310A     -0.270854   311A     -0.270768   312A     -0.245537  
     313A     -0.241459   314A     -0.240102   315A     -0.240006  
     316A     -0.226755   317A     -0.199520   318A     -0.191810  
     319A     -0.191764   320A     -0.144500   321A     -0.144430  

    Virtual:                                                              

     322A      0.047917   323A      0.048028   324A      0.091005  
     325A      0.091173   326A      0.091193   327A      0.093572  
     328A      0.093595   329A      0.096023   330A      0.096356  
     331A      0.096465   332A      0.098940   333A      0.101514  
     334A      0.106988   335A      0.107000   336A      0.118293  
     337A      0.118301   338A      0.124374   339A      0.126352  
     340A      0.127341   341A      0.131034   342A      0.131120  
     343A      0.132228   344A      0.132509   345A      0.133885  
     346A      0.134126   347A      0.134321   348A      0.134708  
     349A      0.134891   350A      0.138845   351A      0.138967  
     352A      0.142090   353A      0.144674   354A      0.144797  
     355A      0.144816   356A      0.145903   357A      0.145938  
     358A      0.152159   359A      0.156629   360A      0.156651  
     361A      0.157229   362A      0.160136   363A      0.160199  
     364A      0.160277   365A      0.161870   366A      0.163724  
     367A      0.163852   368A      0.165910   369A      0.166835  
     370A      0.167837   371A      0.168256   372A      0.168735  
     373A      0.168880   374A      0.173254   375A      0.175294  
     376A      0.175392   377A      0.177194   378A      0.177824  
     379A      0.182349   380A      0.182436   381A      0.182733  
     382A      0.184730   383A      0.186202   384A      0.190116  
     385A      0.190376   386A      0.194406   387A      0.194426  
     388A      0.195564   389A      0.196524   390A      0.196693  
     391A      0.199740   392A      0.199854   393A      0.206124  
     394A      0.210150   395A      0.210517   396A      0.210699  
     397A      0.211611   398A      0.212852   399A      0.213177  
     400A      0.213716   401A      0.214147   402A      0.214460  
     403A      0.218373   404A      0.218630   405A      0.219248  
     406A      0.219409   407A      0.220278   408A      0.220317  
     409A      0.221032   410A      0.222178   411A      0.224261  
     412A      0.229445   413A      0.230632   414A      0.232140  
     415A      0.232934   416A      0.232979   417A      0.237908  
     418A      0.237981   419A      0.238985   420A      0.239349  
     421A      0.239479   422A      0.242704   423A      0.246089  
     424A      0.246477   425A      0.248406   426A      0.248715  
     427A      0.251724   428A      0.252139   429A      0.253162  
     430A      0.254397   431A      0.254443   432A      0.254645  
     433A      0.254965   434A      0.255253   435A      0.258005  
     436A      0.258223   437A      0.258795   438A      0.265028  
     439A      0.265118   440A      0.266587   441A      0.266806  
     442A      0.267032   443A      0.267813   444A      0.267941  
     445A      0.268546   446A      0.269592   447A      0.269736  
     448A      0.270268   449A      0.270474   450A      0.271663  
     451A      0.271826   452A      0.273706   453A      0.273750  
     454A      0.279785   455A      0.280143   456A      0.280593  
     457A      0.281316   458A      0.281686   459A      0.283767  
     460A      0.285365   461A      0.287015   462A      0.287343  
     463A      0.287392   464A      0.288449   465A      0.290061  
     466A      0.290114   467A      0.291232   468A      0.291998  
     469A      0.293249   470A      0.300062   471A      0.300083  
     472A      0.301159   473A      0.301232   474A      0.304193  
     475A      0.306626   476A      0.310129   477A      0.310751  
     478A      0.311425   479A      0.311479   480A      0.312495  
     481A      0.312527   482A      0.313628   483A      0.315572  
     484A      0.315658   485A      0.315724   486A      0.317600  
     487A      0.318991   488A      0.320060   489A      0.320119  
     490A      0.321121   491A      0.322755   492A      0.323805  
     493A      0.325216   494A      0.325253   495A      0.326493  
     496A      0.332753   497A      0.332814   498A      0.333833  
     499A      0.334615   500A      0.334830   501A      0.337427  
     502A      0.337547   503A      0.338694   504A      0.341260  
     505A      0.341640   506A      0.341873   507A      0.342019  
     508A      0.344207   509A      0.345656   510A      0.348591  
     511A      0.352294   512A      0.353565   513A      0.353687  
     514A      0.354139   515A      0.355647   516A      0.356350  
     517A      0.359891   518A      0.360094   519A      0.360785  
     520A      0.360978   521A      0.361486   522A      0.362640  
     523A      0.362748   524A      0.363460   525A      0.364210  
     526A      0.365918   527A      0.366009   528A      0.366599  
     529A      0.369719   530A      0.369737   531A      0.370074  
     532A      0.370247   533A      0.370502   534A      0.374437  
     535A      0.375010   536A      0.375105   537A      0.378311  
     538A      0.379829   539A      0.380341   540A      0.381205  
     541A      0.381789   542A      0.382870   543A      0.383818  
     544A      0.384043   545A      0.384978   546A      0.385119  
     547A      0.385368   548A      0.386159   549A      0.387996  
     550A      0.389177   551A      0.391209   552A      0.393156  
     553A      0.393208   554A      0.395396   555A      0.396749  
     556A      0.396798   557A      0.398439   558A      0.398748  
     559A      0.400044   560A      0.400477   561A      0.402570  
     562A      0.403202   563A      0.409100   564A      0.410368  
     565A      0.411021   566A      0.411503   567A      0.413571  
     568A      0.415947   569A      0.416626   570A      0.416884  
     571A      0.417619   572A      0.418018   573A      0.418849  
     574A      0.420264   575A      0.420998   576A      0.421932  
     577A      0.422604   578A      0.423153   579A      0.424304  
     580A      0.427063   581A      0.428147   582A      0.428993  
     583A      0.431122   584A      0.431741   585A      0.433170  
     586A      0.434056   587A      0.436215   588A      0.437800  
     589A      0.437881   590A      0.438638   591A      0.439996  
     592A      0.443531   593A      0.443955   594A      0.444560  
     595A      0.444815   596A      0.445550   597A      0.448344  
     598A      0.449136   599A      0.449331   600A      0.450348  
     601A      0.452291   602A      0.452661   603A      0.453345  
     604A      0.453822   605A      0.454705   606A      0.456086  
     607A      0.456659   608A      0.457055   609A      0.457509  
     610A      0.458404   611A      0.459043   612A      0.460210  
     613A      0.461023   614A      0.461558   615A      0.463413  
     616A      0.464128   617A      0.464584   618A      0.465601  
     619A      0.465865   620A      0.466745   621A      0.467783  
     622A      0.468349   623A      0.468387   624A      0.468964  
     625A      0.470280   626A      0.471193   627A      0.471222  
     628A      0.472792   629A      0.474573   630A      0.474701  
     631A      0.475566   632A      0.476830   633A      0.477571  
     634A      0.478627   635A      0.478930   636A      0.479470  
     637A      0.480714   638A      0.481167   639A      0.483561  
     640A      0.483699   641A      0.483891   642A      0.485291  
     643A      0.486163   644A      0.488935   645A      0.490397  
     646A      0.491072   647A      0.492134   648A      0.492292  
     649A      0.492516   650A      0.493367   651A      0.493660  
     652A      0.494038   653A      0.495567   654A      0.497835  
     655A      0.498176   656A      0.498622   657A      0.499004  
     658A      0.499083   659A      0.500880   660A      0.503588  
     661A      0.504547   662A      0.504968   663A      0.505662  
     664A      0.506717   665A      0.507941   666A      0.509819  
     667A      0.510578   668A      0.511293   669A      0.511551  
     670A      0.512888   671A      0.513838   672A      0.513985  
     673A      0.514893   674A      0.515533   675A      0.517345  
     676A      0.519629   677A      0.520447   678A      0.520774  
     679A      0.523976   680A      0.524175   681A      0.525247  
     682A      0.526360   683A      0.527162   684A      0.527384  
     685A      0.531872   686A      0.532530   687A      0.533926  
     688A      0.534354   689A      0.534454   690A      0.535908  
     691A      0.536576   692A      0.536980   693A      0.540185  
     694A      0.540461   695A      0.541443   696A      0.542041  
     697A      0.542453   698A      0.543446   699A      0.543864  
     700A      0.544891   701A      0.548542   702A      0.549561  
     703A      0.549973   704A      0.550469   705A      0.550727  
     706A      0.551591   707A      0.551963   708A      0.552497  
     709A      0.554415   710A      0.555164   711A      0.555932  
     712A      0.556846   713A      0.557721   714A      0.559152  
     715A      0.559960   716A      0.560073   717A      0.560796  
     718A      0.561478   719A      0.566712   720A      0.567869  
     721A      0.568383   722A      0.568991   723A      0.570244  
     724A      0.572561   725A      0.574544   726A      0.575018  
     727A      0.577100   728A      0.577659   729A      0.577703  
     730A      0.578420   731A      0.578859   732A      0.581585  
     733A      0.583483   734A      0.585195   735A      0.585492  
     736A      0.586067   737A      0.590591   738A      0.592613  
     739A      0.593154   740A      0.594254   741A      0.594850  
     742A      0.595275   743A      0.597136   744A      0.597516  
     745A      0.598535   746A      0.600635   747A      0.604842  
     748A      0.608347   749A      0.609059   750A      0.610649  
     751A      0.610985   752A      0.617335   753A      0.618818  
     754A      0.621760   755A      0.623644   756A      0.624012  
     757A      0.624975   758A      0.625093   759A      0.627442  
     760A      0.628508   761A      0.629017   762A      0.632131  
     763A      0.632314   764A      0.634196   765A      0.638981  
     766A      0.639394   767A      0.642447   768A      0.643096  
     769A      0.644374   770A      0.646326   771A      0.646721  
     772A      0.647769   773A      0.648006   774A      0.649054  
     775A      0.650779   776A      0.654158   777A      0.655761  
     778A      0.656418   779A      0.657843   780A      0.659897  
     781A      0.661616   782A      0.662699   783A      0.665778  
     784A      0.666410   785A      0.668061   786A      0.670077  
     787A      0.670808   788A      0.671695   789A      0.674275  
     790A      0.678210   791A      0.679711   792A      0.681032  
     793A      0.681416   794A      0.682806   795A      0.686505  
     796A      0.688244   797A      0.692565   798A      0.693071  
     799A      0.696242   800A      0.699104   801A      0.704678  
     802A      0.704892   803A      0.705232   804A      0.705953  
     805A      0.706962   806A      0.716211   807A      0.719140  
     808A      0.719699   809A      0.720291   810A      0.720717  
     811A      0.722627   812A      0.723725   813A      0.727432  
     814A      0.729328   815A      0.730580   816A      0.731216  
     817A      0.737021   818A      0.737764   819A      0.738783  
     820A      0.739863   821A      0.748511   822A      0.749149  
     823A      0.749811   824A      0.749945   825A      0.751829  
     826A      0.754843   827A      0.754967   828A      0.755329  
     829A      0.759276   830A      0.764829   831A      0.767081  
     832A      0.767508   833A      0.769303   834A      0.773728  
     835A      0.774198   836A      0.775635   837A      0.779374  
     838A      0.781556   839A      0.784216   840A      0.788836  
     841A      0.790895   842A      0.793207   843A      0.796307  
     844A      0.799618   845A      0.801604   846A      0.802901  
     847A      0.806312   848A      0.810752   849A      0.811430  
     850A      0.812839   851A      0.813269   852A      0.814984  
     853A      0.817150   854A      0.833214   855A      0.835254  
     856A      0.843333   857A      0.845914   858A      0.848183  
     859A      0.848301   860A      0.852236   861A      0.853795  
     862A      0.856426   863A      0.859834   864A      0.860519  
     865A      0.862489   866A      0.864107   867A      0.865283  
     868A      0.868780   869A      0.869881   870A      0.873301  
     871A      0.874394   872A      0.874588   873A      0.876426  
     874A      0.877055   875A      0.877395   876A      0.885997  
     877A      0.886699   878A      0.887747   879A      0.895093  
     880A      0.895234   881A      0.896204   882A      0.898737  
     883A      0.902234   884A      0.903554   885A      0.903989  
     886A      0.904376   887A      0.905663   888A      0.908851  
     889A      0.909758   890A      0.910588   891A      0.916351  
     892A      0.917307   893A      0.920081   894A      0.920430  
     895A      0.920718   896A      0.925344   897A      0.925779  
     898A      0.928104   899A      0.928648   900A      0.929846  
     901A      0.931380   902A      0.933556   903A      0.934282  
     904A      0.934586   905A      0.935819   906A      0.938144  
     907A      0.939126   908A      0.940424   909A      0.942914  
     910A      0.945242   911A      0.945994   912A      0.947058  
     913A      0.947616   914A      0.951373   915A      0.954374  
     916A      0.955606   917A      0.956056   918A      0.956556  
     919A      0.957539   920A      0.961790   921A      0.963349  
     922A      0.963690   923A      0.966455   924A      0.969823  
     925A      0.971270   926A      0.971434   927A      0.973795  
     928A      0.975531   929A      0.978192   930A      0.979604  
     931A      0.979896   932A      0.981598   933A      0.982301  
     934A      0.985503   935A      0.987013   936A      0.987436  
     937A      0.989408   938A      0.991137   939A      0.991503  
     940A      0.992418   941A      0.996107   942A      0.998168  
     943A      0.998697   944A      1.000250   945A      1.002632  
     946A      1.002777   947A      1.005469   948A      1.008259  
     949A      1.008545   950A      1.008699   951A      1.010156  
     952A      1.012394   953A      1.013487   954A      1.014285  
     955A      1.014412   956A      1.014977   957A      1.015478  
     958A      1.016446   959A      1.021719   960A      1.022797  
     961A      1.023249   962A      1.027564   963A      1.029508  
     964A      1.031512   965A      1.040247   966A      1.041059  
     967A      1.042600   968A      1.044692   969A      1.050147  
     970A      1.050725   971A      1.052751   972A      1.052922  
     973A      1.054317   974A      1.057270   975A      1.061116  
     976A      1.062646   977A      1.062698   978A      1.063897  
     979A      1.064319   980A      1.064700   981A      1.069411  
     982A      1.072267   983A      1.073631   984A      1.073747  
     985A      1.076233   986A      1.078489   987A      1.079478  
     988A      1.080234   989A      1.080951   990A      1.083584  
     991A      1.087473   992A      1.090094   993A      1.094380  
     994A      1.094664   995A      1.095601   996A      1.097837  
     997A      1.104622   998A      1.104744   999A      1.105682  
    1000A      1.106399  1001A      1.106848  1002A      1.107925  
    1003A      1.108617  1004A      1.109601  1005A      1.109773  
    1006A      1.111346  1007A      1.113098  1008A      1.113543  
    1009A      1.115933  1010A      1.117686  1011A      1.117731  
    1012A      1.117976  1013A      1.121149  1014A      1.121672  
    1015A      1.122562  1016A      1.125057  1017A      1.125530  
    1018A      1.128570  1019A      1.129374  1020A      1.129650  
    1021A      1.130233  1022A      1.130716  1023A      1.131722  
    1024A      1.132111  1025A      1.134088  1026A      1.134980  
    1027A      1.135179  1028A      1.135586  1029A      1.136637  
    1030A      1.137077  1031A      1.137916  1032A      1.138586  
    1033A      1.140053  1034A      1.140814  1035A      1.141228  
    1036A      1.141318  1037A      1.141993  1038A      1.142450  
    1039A      1.143293  1040A      1.144571  1041A      1.144894  
    1042A      1.145516  1043A      1.146159  1044A      1.147349  
    1045A      1.148544  1046A      1.149237  1047A      1.151839  
    1048A      1.153990  1049A      1.156249  1050A      1.157388  
    1051A      1.159305  1052A      1.160245  1053A      1.162294  
    1054A      1.162354  1055A      1.163272  1056A      1.163759  
    1057A      1.164865  1058A      1.166639  1059A      1.167479  
    1060A      1.169501  1061A      1.171713  1062A      1.174457  
    1063A      1.175029  1064A      1.176270  1065A      1.179115  
    1066A      1.180894  1067A      1.184108  1068A      1.185851  
    1069A      1.187348  1070A      1.190339  1071A      1.192608  
    1072A      1.192760  1073A      1.196245  1074A      1.196783  
    1075A      1.197212  1076A      1.199355  1077A      1.201372  
    1078A      1.202052  1079A      1.203757  1080A      1.204753  
    1081A      1.206758  1082A      1.210192  1083A      1.210882  
    1084A      1.211938  1085A      1.212091  1086A      1.213609  
    1087A      1.215130  1088A      1.216148  1089A      1.217172  
    1090A      1.217742  1091A      1.219781  1092A      1.223776  
    1093A      1.229257  1094A      1.230912  1095A      1.232154  
    1096A      1.232767  1097A      1.234692  1098A      1.239358  
    1099A      1.243575  1100A      1.244517  1101A      1.245167  
    1102A      1.247763  1103A      1.247977  1104A      1.250928  
    1105A      1.252732  1106A      1.254320  1107A      1.255971  
    1108A      1.263232  1109A      1.263575  1110A      1.265043  
    1111A      1.265831  1112A      1.269224  1113A      1.270622  
    1114A      1.271519  1115A      1.272700  1116A      1.273413  
    1117A      1.276817  1118A      1.277652  1119A      1.278586  
    1120A      1.280992  1121A      1.281984  1122A      1.283226  
    1123A      1.285092  1124A      1.293970  1125A      1.294950  
    1126A      1.305564  1127A      1.310965  1128A      1.311473  
    1129A      1.311921  1130A      1.312405  1131A      1.312538  
    1132A      1.318478  1133A      1.320940  1134A      1.321052  
    1135A      1.324534  1136A      1.326022  1137A      1.327229  
    1138A      1.329834  1139A      1.331415  1140A      1.340263  
    1141A      1.340911  1142A      1.341205  1143A      1.346576  
    1144A      1.349618  1145A      1.350083  1146A      1.350947  
    1147A      1.352065  1148A      1.352715  1149A      1.353514  
    1150A      1.356518  1151A      1.357475  1152A      1.360614  
    1153A      1.362549  1154A      1.363149  1155A      1.363552  
    1156A      1.371266  1157A      1.372085  1158A      1.373201  
    1159A      1.373626  1160A      1.375749  1161A      1.376245  
    1162A      1.377973  1163A      1.379853  1164A      1.382486  
    1165A      1.383658  1166A      1.385100  1167A      1.385541  
    1168A      1.388480  1169A      1.388633  1170A      1.393168  
    1171A      1.393690  1172A      1.393916  1173A      1.396109  
    1174A      1.400491  1175A      1.400723  1176A      1.412571  
    1177A      1.414442  1178A      1.415820  1179A      1.416128  
    1180A      1.419029  1181A      1.419608  1182A      1.420166  
    1183A      1.421671  1184A      1.422122  1185A      1.422231  
    1186A      1.428371  1187A      1.431945  1188A      1.432212  
    1189A      1.434788  1190A      1.435522  1191A      1.437538  
    1192A      1.446921  1193A      1.446953  1194A      1.447379  
    1195A      1.451163  1196A      1.451490  1197A      1.455034  
    1198A      1.455105  1199A      1.461544  1200A      1.465634  
    1201A      1.467447  1202A      1.467535  1203A      1.468954  
    1204A      1.469668  1205A      1.469730  1206A      1.470621  
    1207A      1.475637  1208A      1.475781  1209A      1.482186  
    1210A      1.482238  1211A      1.484987  1212A      1.486933  
    1213A      1.487475  1214A      1.488278  1215A      1.488632  
    1216A      1.491241  1217A      1.492361  1218A      1.495650  
    1219A      1.497179  1220A      1.497809  1221A      1.499055  
    1222A      1.501499  1223A      1.502227  1224A      1.503548  
    1225A      1.510864  1226A      1.511790  1227A      1.513276  
    1228A      1.514702  1229A      1.514831  1230A      1.516374  
    1231A      1.519508  1232A      1.526559  1233A      1.528145  
    1234A      1.531524  1235A      1.532214  1236A      1.532857  
    1237A      1.533415  1238A      1.535287  1239A      1.538795  
    1240A      1.543810  1241A      1.544262  1242A      1.544586  
    1243A      1.546586  1244A      1.552696  1245A      1.558265  
    1246A      1.558625  1247A      1.562269  1248A      1.566568  
    1249A      1.566712  1250A      1.567785  1251A      1.578394  
    1252A      1.580040  1253A      1.597530  1254A      1.597781  
    1255A      1.600148  1256A      1.606185  1257A      1.615026  
    1258A      1.615074  1259A      1.645980  1260A      1.646762  
    1261A      1.650645  1262A      1.654071  1263A      1.655979  
    1264A      1.663042  1265A      1.664785  1266A      1.668419  
    1267A      1.668804  1268A      1.668900  1269A      1.670216  
    1270A      1.672198  1271A      1.672692  1272A      1.673136  
    1273A      1.674477  1274A      1.677281  1275A      1.678116  
    1276A      1.678251  1277A      1.679555  1278A      1.681235  
    1279A      1.681533  1280A      1.684351  1281A      1.685398  
    1282A      1.685910  1283A      1.687682  1284A      1.688452  
    1285A      1.689308  1286A      1.692975  1287A      1.695181  
    1288A      1.695620  1289A      1.697285  1290A      1.697891  
    1291A      1.698671  1292A      1.699395  1293A      1.700068  
    1294A      1.700795  1295A      1.701034  1296A      1.701992  
    1297A      1.702978  1298A      1.703340  1299A      1.704957  
    1300A      1.708286  1301A      1.711226  1302A      1.711307  
    1303A      1.715600  1304A      1.715860  1305A      1.716627  
    1306A      1.717158  1307A      1.726775  1308A      1.726973  
    1309A      1.730024  1310A      1.730223  1311A      1.730529  
    1312A      1.731294  1313A      1.732206  1314A      1.734109  
    1315A      1.735378  1316A      1.736340  1317A      1.739572  
    1318A      1.740373  1319A      1.747449  1320A      1.749398  
    1321A      1.753919  1322A      1.754047  1323A      1.757898  
    1324A      1.758031  1325A      1.758983  1326A      1.760316  
    1327A      1.767798  1328A      1.767838  1329A      1.770755  
    1330A      1.774575  1331A      1.774718  1332A      1.775385  
    1333A      1.778582  1334A      1.780502  1335A      1.783701  
    1336A      1.784193  1337A      1.785910  1338A      1.785941  
    1339A      1.790235  1340A      1.797337  1341A      1.807148  
    1342A      1.807480  1343A      1.808599  1344A      1.808828  
    1345A      1.809751  1346A      1.824470  1347A      1.826047  
    1348A      1.826976  1349A      1.839906  1350A      1.841599  
    1351A      1.843775  1352A      1.844332  1353A      1.865809  
    1354A      1.865997  1355A      1.869879  1356A      1.877975  
    1357A      1.882665  1358A      1.885058  1359A      1.885569  
    1360A      1.885860  1361A      1.886420  1362A      1.887006  
    1363A      1.891616  1364A      1.892912  1365A      1.893315  
    1366A      1.898197  1367A      1.898637  1368A      1.899132  
    1369A      1.899733  1370A      1.907530  1371A      1.908708  
    1372A      1.912696  1373A      1.913339  1374A      1.919732  
    1375A      1.920375  1376A      1.924151  1377A      1.924213  
    1378A      1.925630  1379A      1.927223  1380A      1.929112  
    1381A      1.931054  1382A      1.931139  1383A      1.931665  
    1384A      1.932345  1385A      1.938446  1386A      1.938811  
    1387A      1.939549  1388A      1.941907  1389A      1.943584  
    1390A      1.944140  1391A      1.944921  1392A      1.947263  
    1393A      1.950161  1394A      1.952495  1395A      1.959598  
    1396A      1.961957  1397A      1.962451  1398A      1.964738  
    1399A      1.965095  1400A      1.969821  1401A      1.970054  
    1402A      1.977439  1403A      1.977833  1404A      1.982718  
    1405A      1.984012  1406A      1.984117  1407A      1.986376  
    1408A      1.986628  1409A      1.987814  1410A      1.993971  
    1411A      1.994103  1412A      1.995689  1413A      1.996768  
    1414A      1.997979  1415A      1.998299  1416A      2.001598  
    1417A      2.002876  1418A      2.003250  1419A      2.004430  
    1420A      2.007063  1421A      2.009886  1422A      2.014491  
    1423A      2.015566  1424A      2.016295  1425A      2.018693  
    1426A      2.019118  1427A      2.020550  1428A      2.022316  
    1429A      2.023338  1430A      2.025714  1431A      2.027220  
    1432A      2.029105  1433A      2.031422  1434A      2.032857  
    1435A      2.033984  1436A      2.035835  1437A      2.043293  
    1438A      2.043941  1439A      2.044446  1440A      2.046628  
    1441A      2.047848  1442A      2.049102  1443A      2.050013  
    1444A      2.054221  1445A      2.054493  1446A      2.055866  
    1447A      2.060016  1448A      2.063075  1449A      2.066119  
    1450A      2.067764  1451A      2.069092  1452A      2.070628  
    1453A      2.072170  1454A      2.075439  1455A      2.076328  
    1456A      2.076666  1457A      2.077417  1458A      2.080766  
    1459A      2.081020  1460A      2.082663  1461A      2.083750  
    1462A      2.086863  1463A      2.087983  1464A      2.089831  
    1465A      2.090933  1466A      2.091704  1467A      2.095474  
    1468A      2.096000  1469A      2.096796  1470A      2.097348  
    1471A      2.098660  1472A      2.103634  1473A      2.108506  
    1474A      2.110482  1475A      2.114530  1476A      2.116399  
    1477A      2.116724  1478A      2.118731  1479A      2.121090  
    1480A      2.122246  1481A      2.123489  1482A      2.124841  
    1483A      2.127182  1484A      2.129146  1485A      2.130254  
    1486A      2.131962  1487A      2.137015  1488A      2.138000  
    1489A      2.140014  1490A      2.140669  1491A      2.141783  
    1492A      2.142225  1493A      2.142626  1494A      2.144470  
    1495A      2.145166  1496A      2.145345  1497A      2.147505  
    1498A      2.147622  1499A      2.149037  1500A      2.149369  
    1501A      2.149961  1502A      2.151685  1503A      2.152348  
    1504A      2.153829  1505A      2.157063  1506A      2.157743  
    1507A      2.159424  1508A      2.159926  1509A      2.161768  
    1510A      2.162922  1511A      2.163691  1512A      2.164457  
    1513A      2.166981  1514A      2.168362  1515A      2.170972  
    1516A      2.173004  1517A      2.173723  1518A      2.175517  
    1519A      2.175872  1520A      2.176678  1521A      2.177366  
    1522A      2.179435  1523A      2.180506  1524A      2.185964  
    1525A      2.186642  1526A      2.187124  1527A      2.189471  
    1528A      2.189611  1529A      2.190012  1530A      2.192409  
    1531A      2.194097  1532A      2.198521  1533A      2.199694  
    1534A      2.201286  1535A      2.201903  1536A      2.202253  
    1537A      2.203782  1538A      2.204611  1539A      2.204815  
    1540A      2.210169  1541A      2.215040  1542A      2.216591  
    1543A      2.218602  1544A      2.219214  1545A      2.219797  
    1546A      2.219893  1547A      2.220524  1548A      2.221202  
    1549A      2.221958  1550A      2.222677  1551A      2.231053  
    1552A      2.231942  1553A      2.237487  1554A      2.239509  
    1555A      2.241006  1556A      2.241572  1557A      2.249945  
    1558A      2.251079  1559A      2.253537  1560A      2.254532  
    1561A      2.255355  1562A      2.257599  1563A      2.258875  
    1564A      2.259418  1565A      2.259970  1566A      2.261510  
    1567A      2.263250  1568A      2.263986  1569A      2.264886  
    1570A      2.266149  1571A      2.267963  1572A      2.269416  
    1573A      2.272336  1574A      2.274692  1575A      2.276620  
    1576A      2.280604  1577A      2.281050  1578A      2.281211  
    1579A      2.283989  1580A      2.286177  1581A      2.286465  
    1582A      2.286930  1583A      2.288194  1584A      2.288778  
    1585A      2.291287  1586A      2.293153  1587A      2.300250  
    1588A      2.301244  1589A      2.301997  1590A      2.304494  
    1591A      2.305227  1592A      2.305668  1593A      2.314336  
    1594A      2.317851  1595A      2.318574  1596A      2.319557  
    1597A      2.323718  1598A      2.324902  1599A      2.325839  
    1600A      2.326578  1601A      2.338027  1602A      2.342133  
    1603A      2.343973  1604A      2.349049  1605A      2.349613  
    1606A      2.354435  1607A      2.358141  1608A      2.362841  
    1609A      2.362963  1610A      2.368420  1611A      2.382421  
    1612A      2.384330  1613A      2.384653  1614A      2.386130  
    1615A      2.387420  1616A      2.389167  1617A      2.389379  
    1618A      2.392473  1619A      2.394392  1620A      2.395550  
    1621A      2.396398  1622A      2.400150  1623A      2.401991  
    1624A      2.402238  1625A      2.403594  1626A      2.405226  
    1627A      2.405439  1628A      2.405695  1629A      2.412309  
    1630A      2.412583  1631A      2.432490  1632A      2.436446  
    1633A      2.437778  1634A      2.442984  1635A      2.447506  
    1636A      2.452925  1637A      2.454722  1638A      2.455999  
    1639A      2.459009  1640A      2.477844  1641A      2.479475  
    1642A      2.484273  1643A      2.487088  1644A      2.494010  
    1645A      2.501941  1646A      2.503332  1647A      2.513345  
    1648A      2.513961  1649A      2.523584  1650A      2.523771  
    1651A      2.527121  1652A      2.527404  1653A      2.530800  
    1654A      2.531095  1655A      2.549221  1656A      2.549526  
    1657A      2.556174  1658A      2.560250  1659A      2.564696  
    1660A      2.565635  1661A      2.569014  1662A      2.575258  
    1663A      2.599041  1664A      2.599498  1665A      2.600014  
    1666A      2.601337  1667A      2.602093  1668A      2.605237  
    1669A      2.605921  1670A      2.606965  1671A      2.609750  
    1672A      2.610754  1673A      2.618641  1674A      2.618936  
    1675A      2.624069  1676A      2.628757  1677A      2.630310  
    1678A      2.637084  1679A      2.640323  1680A      2.640857  
    1681A      2.644070  1682A      2.644970  1683A      2.645211  
    1684A      2.645429  1685A      2.649497  1686A      2.652325  
    1687A      2.660158  1688A      2.660351  1689A      2.672048  
    1690A      2.672288  1691A      2.672626  1692A      2.673067  
    1693A      2.676374  1694A      2.677232  1695A      2.692487  
    1696A      2.700232  1697A      2.700848  1698A      2.703176  
    1699A      2.705342  1700A      2.706047  1701A      2.709239  
    1702A      2.710220  1703A      2.710621  1704A      2.714040  
    1705A      2.714465  1706A      2.725188  1707A      2.726803  
    1708A      2.727989  1709A      2.728089  1710A      2.728501  
    1711A      2.735189  1712A      2.735401  1713A      2.735579  
    1714A      2.744137  1715A      2.746115  1716A      2.747529  
    1717A      2.750877  1718A      2.751292  1719A      2.751678  
    1720A      2.752509  1721A      2.755959  1722A      2.757090  
    1723A      2.764970  1724A      2.779126  1725A      2.788566  
    1726A      2.789072  1727A      2.789566  1728A      2.790642  
    1729A      2.790759  1730A      2.812443  1731A      2.823367  
    1732A      2.823746  1733A      2.836631  1734A      2.838830  
    1735A      2.841159  1736A      2.841604  1737A      2.861022  
    1738A      2.861234  1739A      2.863358  1740A      2.863536  
    1741A      2.865215  1742A      2.873022  1743A      2.875546  
    1744A      2.875969  1745A      2.876609  1746A      2.877405  
    1747A      2.880233  1748A      2.890588  1749A      2.890889  
    1750A      2.900710  1751A      2.902619  1752A      2.902801  
    1753A      2.903207  1754A      2.905860  1755A      2.926038  
    1756A      2.926417  1757A      2.926611  1758A      2.929891  
    1759A      2.930575  1760A      2.934432  1761A      2.959653  
    1762A      2.960494  1763A      2.969891  1764A      2.975116  
    1765A      2.975309  1766A      2.984583  1767A      2.987167  
    1768A      2.993628  1769A      2.993767  1770A      2.997899  
    1771A      3.023007  1772A      3.023581  1773A      3.024331  
    1774A      3.034757  1775A      3.034894  1776A      3.041602  
    1777A      3.050919  1778A      3.052304  1779A      3.089384  
    1780A      3.090121  1781A      3.093850  1782A      3.096655  
    1783A      3.105701  1784A      3.107509  1785A      3.108161  
    1786A      3.118088  1787A      3.118178  1788A      3.119294  
    1789A      3.132642  1790A      3.165812  1791A      3.170787  
    1792A      3.171063  1793A      3.181926  1794A      3.187589  
    1795A      3.187899  1796A      3.192718  1797A      3.194240  
    1798A      3.200326  1799A      3.200987  1800A      3.207382  
    1801A      3.207913  1802A      3.209311  1803A      3.209855  
    1804A      3.211007  1805A      3.219173  1806A      3.229898  
    1807A      3.230551  1808A      3.232873  1809A      3.233035  
    1810A      3.250748  1811A      3.251459  1812A      3.277160  
    1813A      3.298217  1814A      3.311920  1815A      3.316766  
    1816A      3.320884  1817A      3.322425  1818A      3.322976  
    1819A      3.325374  1820A      3.327671  1821A      3.330290  
    1822A      3.334013  1823A      3.334299  1824A      3.355131  
    1825A      3.356525  1826A      3.359867  1827A      3.363799  
    1828A      3.423108  1829A      3.423911  1830A      3.432795  
    1831A      3.477780  1832A      3.491368  1833A      3.496050  
    1834A      3.504452  1835A      3.513075  1836A      3.514514  
    1837A      3.525465  1838A      3.526683  1839A      3.529373  
    1840A      3.533556  1841A      3.536223  1842A      3.546473  
    1843A      3.549260  1844A      3.559156  1845A      3.570864  
    1846A      3.603540  1847A      3.635649  1848A      3.637757  
    1849A      3.645669  1850A      3.649787  1851A      3.700598  
    1852A      3.704880  1853A      3.726065  1854A      3.727970  
    1855A      3.766788  1856A      3.809220  1857A      3.810168  
    1858A      3.812203  1859A      3.826062  1860A      3.837586  
    1861A      3.844820  1862A      3.901611  1863A      3.903746  
    1864A      3.931255  1865A      3.934601  1866A      3.966258  
    1867A      3.973884  1868A      4.002317  1869A      4.005405  
    1870A      4.008612  1871A      4.009548  1872A      4.020320  
    1873A      4.030021  1874A      4.035180  1875A      4.087088  
    1876A      4.090130  1877A      4.137298  1878A      4.169567  
    1879A      4.169987  1880A      4.170528  1881A      4.198290  
    1882A      4.198590  1883A      4.199095  1884A      4.200400  
    1885A      4.201037  1886A      4.232905  1887A      4.238064  
    1888A      4.247241  1889A      4.298548  1890A      4.371056  
    1891A      4.444835  1892A      4.445440  1893A      4.445990  
    1894A      4.463328  1895A      4.646968  1896A      4.653390  
    1897A      4.654533  1898A      4.747414  1899A      4.782674  
    1900A      4.784862  

    Final Occupation by Irrep:
              A 
    DOCC [   321 ]
    NA   [   321 ]
    NB   [   321 ]

  @DF-RHF Final Energy: -4073.10732822809859

   => Energetics <=

    Nuclear Repulsion Energy =          17449.4110389523993945
    One-Electron Energy =              -40384.0972206943843048
    Two-Electron Energy =               18861.5788535138854058
    Total Energy =                      -4073.1073282280995045

Computation Completed


Properties will be evaluated at   0.000000,   0.000000,   0.000000 [a0]

Properties computed using the SCF density matrix


 Multipole Moments:

 ------------------------------------------------------------------------------------
     Multipole            Electronic (a.u.)      Nuclear  (a.u.)        Total (a.u.)
 ------------------------------------------------------------------------------------

 L = 1.  Multiply by 2.5417464519 to convert [e a0] to [Debye]
 Dipole X            :          0.0002999           -0.0001188            0.0001810
 Dipole Y            :          0.0012686           -0.0002727            0.0009959
 Dipole Z            :         23.0290402          -30.9463242           -7.9172841
 Magnitude           :                                                    7.9172841

 ------------------------------------------------------------------------------------

*** tstop() called on n2cn0502 at Sat Jan 27 14:51:31 2024
Module time:
	user time   =   23908.55 seconds =     398.48 minutes
	system time =    1253.23 seconds =      20.89 minutes
	total time  =      12306 seconds =     205.10 minutes
Total time:
	user time   =   23908.55 seconds =     398.48 minutes
	system time =    1253.23 seconds =      20.89 minutes
	total time  =      12306 seconds =     205.10 minutes

  //>>>>>>>>>>>>>>>>>>>>>>>>>>>>>>>>>>>//
  //            Monomer A HF           //
  //<<<<<<<<<<<<<<<<<<<<<<<<<<<<<<<<<<<//

   => Libint2 <=

    Primary   basis highest AM E, G, H:  5, 4, 3
    Auxiliary basis highest AM E, G, H:  6, 5, 4
    Onebody   basis highest AM E, G, H:  6, 5, 4
    Solid Harmonics ordering:            gaussian

*** tstart() called on n2cn0502
*** at Sat Jan 27 14:51:31 2024

   => Loading Basis Set <=

    Name: JUN-CC-PVDZ
    Role: ORBITAL
    Keyword: BASIS
    atoms 1                                                   entry B          line   130 file /opt/software/pc2/EB-SW/software/PSI4/1.9-foss-2022a/share/psi4/basis/jun-cc-pvdz.gbs 
    atoms 2-5                                                 entry F          line   266 file /opt/software/pc2/EB-SW/software/PSI4/1.9-foss-2022a/share/psi4/basis/jun-cc-pvdz.gbs 
    atoms 6-23, 30-42, 45-59, 62-78, 81-93, 98-108, 111-119   entry C          line   164 file /opt/software/pc2/EB-SW/software/PSI4/1.9-foss-2022a/share/psi4/basis/jun-cc-pvdz.gbs 
    atoms 24-29, 43-44, 60-61, 79-80, 94-97, 109-110, 120-125 entry H          line    36 file /opt/software/pc2/EB-SW/software/PSI4/1.9-foss-2022a/share/psi4/basis/jun-cc-pvdz.gbs 


         ---------------------------------------------------------
                                   SCF
               by Justin Turney, Rob Parrish, Andy Simmonett
                          and Daniel G. A. Smith
                              RHF Reference
                       16 Threads,  61035 MiB Core
         ---------------------------------------------------------

  ==> Geometry <==

    Molecular point group: c1
    Full point group: C1

    Geometry (in Angstrom), charge = -1, multiplicity = 1:

       Center              X                  Y                   Z               Mass       
    ------------   -----------------  -----------------  -----------------  -----------------
         B           -0.000050191042     0.000351518223     4.841838192738    11.009305360000
         F           -1.153601191042     0.000062518223     5.657485192738    18.998403162730
         F            1.153656808958    -0.000566481777     5.657485192738    18.998403162730
         F           -0.000023191042    -1.153622481777     4.026204192738    18.998403162730
         F           -0.000023191042     1.153992518223     4.026204192738    18.998403162730
      Gh(C)          -3.668445455062     7.803766688305    -0.356255765926    12.000000000000
      Gh(C)          -4.847602910388     7.131256349563    -0.358622340859    12.000000000000
      Gh(C)          -4.894963490217     5.696344921754    -0.359195251957    12.000000000000
      Gh(C)          -3.653744869815     4.980744859182    -0.351534810227    12.000000000000
      Gh(C)          -2.409429312536     7.113995554897    -0.356061423666    12.000000000000
      Gh(C)          -2.425481535146     5.681136469126    -0.363066312536    12.000000000000
      Gh(C)          -1.194748207477     7.786158712532    -0.354589243124    12.000000000000
      Gh(C)           0.037954837895     7.099436163980    -0.356759947429    12.000000000000
      Gh(C)           0.030328396378     5.669504077927    -0.362243332345    12.000000000000
      Gh(C)          -1.200988698947     4.969284866138    -0.353273598411    12.000000000000
      Gh(C)           1.277953634773     7.772873961417    -0.355384098868    12.000000000000
      Gh(C)           2.485353893683     7.087711403460    -0.357658586773    12.000000000000
      Gh(C)           2.486124493876     5.654785328463    -0.364596335761    12.000000000000
      Gh(C)           1.254078728602     4.956092631887    -0.352968394173    12.000000000000
      Gh(C)           3.751710400364     7.763926669203    -0.357531735393    12.000000000000
      Gh(C)           4.923561865144     7.078795295213    -0.359588216101    12.000000000000
      Gh(C)           4.955603080284     5.643461981592    -0.359748628908    12.000000000000
      Gh(C)           3.706797343163     4.941224726556    -0.354657068738    12.000000000000
      Gh(H)          -3.658525328800     8.890841937358    -0.354570777676     1.007825032230
      Gh(H)          -1.189217520798     8.874135605583    -0.350617366683     1.007825032230
      Gh(H)           1.284290047845     8.860847953711    -0.351225274727     1.007825032230
      Gh(H)           3.753537895758     8.851049797195    -0.356009211077     1.007825032230
      Gh(H)           5.869954512165     7.613809352878    -0.360513583143     1.007825032230
      Gh(H)          -5.788235898544     7.676316731157    -0.360182188215     1.007825032230
      Gh(C)          -6.091978149738     4.993274531866    -0.361067492448    12.000000000000
[...]
    1498A      2.112518  1499A      2.112925  1500A      2.113933  
    1501A      2.114631  1502A      2.116239  1503A      2.117354  
    1504A      2.118864  1505A      2.120029  1506A      2.127007  
    1507A      2.127298  1508A      2.127858  1509A      2.128083  
    1510A      2.128763  1511A      2.129206  1512A      2.131822  
    1513A      2.132111  1514A      2.137417  1515A      2.138100  
    1516A      2.138810  1517A      2.142817  1518A      2.143048  
    1519A      2.143549  1520A      2.144445  1521A      2.145008  
    1522A      2.146094  1523A      2.155008  1524A      2.155898  
    1525A      2.157880  1526A      2.159102  1527A      2.159507  
    1528A      2.160185  1529A      2.160465  1530A      2.160844  
    1531A      2.162946  1532A      2.163275  1533A      2.171595  
    1534A      2.172044  1535A      2.180272  1536A      2.180996  
    1537A      2.181968  1538A      2.182497  1539A      2.189278  
    1540A      2.191291  1541A      2.191767  1542A      2.191909  
    1543A      2.194128  1544A      2.195465  1545A      2.197785  
    1546A      2.198977  1547A      2.200654  1548A      2.201020  
    1549A      2.201822  1550A      2.202390  1551A      2.205453  
    1552A      2.206206  1553A      2.207290  1554A      2.210662  
    1555A      2.214120  1556A      2.214921  1557A      2.220203  
    1558A      2.222344  1559A      2.222795  1560A      2.224945  
    1561A      2.225014  1562A      2.225275  1563A      2.228935  
    1564A      2.232037  1565A      2.232449  1566A      2.233551  
    1567A      2.238863  1568A      2.239055  1569A      2.239692  
    1570A      2.241830  1571A      2.247727  1572A      2.248243  
    1573A      2.250822  1574A      2.252587  1575A      2.261620  
    1576A      2.262536  1577A      2.265291  1578A      2.265640  
    1579A      2.267103  1580A      2.269778  1581A      2.276618  
    1582A      2.282966  1583A      2.284406  1584A      2.290942  
    1585A      2.291433  1586A      2.296511  1587A      2.296871  
    1588A      2.304128  1589A      2.304303  1590A      2.309161  
    1591A      2.318926  1592A      2.324843  1593A      2.325074  
    1594A      2.325378  1595A      2.327318  1596A      2.329754  
    1597A      2.330612  1598A      2.331437  1599A      2.333167  
    1600A      2.334794  1601A      2.335232  1602A      2.340092  
    1603A      2.341662  1604A      2.342284  1605A      2.342395  
    1606A      2.344976  1607A      2.345864  1608A      2.346355  
    1609A      2.349139  1610A      2.349499  1611A      2.368657  
    1612A      2.372926  1613A      2.373389  1614A      2.384032  
    1615A      2.388019  1616A      2.391815  1617A      2.392849  
    1618A      2.394147  1619A      2.397290  1620A      2.418458  
    1621A      2.419765  1622A      2.423827  1623A      2.427745  
    1624A      2.432181  1625A      2.442213  1626A      2.443681  
    1627A      2.452442  1628A      2.453146  1629A      2.464469  
    1630A      2.464605  1631A      2.468004  1632A      2.468194  
    1633A      2.471956  1634A      2.472215  1635A      2.491172  
    1636A      2.491465  1637A      2.495145  1638A      2.501983  
    1639A      2.506619  1640A      2.507787  1641A      2.511568  
    1642A      2.516309  1643A      2.539448  1644A      2.539569  
    1645A      2.540140  1646A      2.542097  1647A      2.542982  
    1648A      2.545086  1649A      2.547658  1650A      2.548877  
    1651A      2.549362  1652A      2.551459  1653A      2.556607  
    1654A      2.556782  1655A      2.564267  1656A      2.571321  
    1657A      2.571573  1658A      2.580091  1659A      2.583923  
    1660A      2.584470  1661A      2.585158  1662A      2.586296  
    1663A      2.588669  1664A      2.588899  1665A      2.593234  
    1666A      2.593576  1667A      2.601474  1668A      2.601627  
    1669A      2.613145  1670A      2.613389  1671A      2.613859  
    1672A      2.614093  1673A      2.617171  1674A      2.618029  
    1675A      2.632651  1676A      2.640687  1677A      2.641598  
    1678A      2.643780  1679A      2.645553  1680A      2.647723  
    1681A      2.649002  1682A      2.649479  1683A      2.653327  
    1684A      2.655948  1685A      2.656171  1686A      2.666099  
    1687A      2.666203  1688A      2.667665  1689A      2.670498  
    1690A      2.670632  1691A      2.673758  1692A      2.677459  
    1693A      2.677976  1694A      2.684538  1695A      2.685802  
    1696A      2.687472  1697A      2.691260  1698A      2.691428  
    1699A      2.691782  1700A      2.692934  1701A      2.696107  
    1702A      2.697364  1703A      2.704166  1704A      2.720829  
    1705A      2.730779  1706A      2.731064  1707A      2.731164  
    1708A      2.731503  1709A      2.732052  1710A      2.752944  
    1711A      2.760573  1712A      2.760912  1713A      2.773345  
    1714A      2.776147  1715A      2.780082  1716A      2.780598  
    1717A      2.799408  1718A      2.799969  1719A      2.802137  
    1720A      2.802278  1721A      2.802397  1722A      2.809591  
    1723A      2.812584  1724A      2.815029  1725A      2.815744  
    1726A      2.816257  1727A      2.816718  1728A      2.826550  
    1729A      2.828145  1730A      2.830042  1731A      2.837391  
    1732A      2.840153  1733A      2.842062  1734A      2.842451  
    1735A      2.844342  1736A      2.845425  1737A      2.859225  
    1738A      2.865126  1739A      2.865507  1740A      2.865858  
    1741A      2.871087  1742A      2.871675  1743A      2.875151  
    1744A      2.896002  1745A      2.896891  1746A      2.916618  
    1747A      2.917761  1748A      2.917935  1749A      2.927491  
    1750A      2.929768  1751A      2.935413  1752A      2.935431  
    1753A      2.963724  1754A      2.965322  1755A      2.965676  
    1756A      2.976271  1757A      2.991959  1758A      2.992896  
    1759A      3.029775  1760A      3.030453  1761A      3.035722  
    1762A      3.038647  1763A      3.047043  1764A      3.047828  
    1765A      3.048106  1766A      3.057653  1767A      3.057668  
    1768A      3.063626  1769A      3.072962  1770A      3.108463  
    1771A      3.113109  1772A      3.113280  1773A      3.122669  
    1774A      3.127690  1775A      3.127793  1776A      3.133033  
    1777A      3.134512  1778A      3.142372  1779A      3.143127  
    1780A      3.148588  1781A      3.149179  1782A      3.149805  
    1783A      3.150280  1784A      3.153650  1785A      3.162129  
    1786A      3.167929  1787A      3.173216  1788A      3.175254  
    1789A      3.175464  1790A      3.193157  1791A      3.193879  
    1792A      3.220143  1793A      3.253108  1794A      3.259744  
    1795A      3.261711  1796A      3.261909  1797A      3.262853  
    1798A      3.264784  1799A      3.268658  1800A      3.271381  
    1801A      3.275057  1802A      3.275558  1803A      3.295108  
    1804A      3.296227  1805A      3.298654  1806A      3.304087  
    1807A      3.361604  1808A      3.362526  1809A      3.370747  
    1810A      3.415986  1811A      3.430120  1812A      3.433089  
    1813A      3.437152  1814A      3.448905  1815A      3.450753  
    1816A      3.462308  1817A      3.465029  1818A      3.466159  
    1819A      3.471642  1820A      3.474191  1821A      3.483643  
    1822A      3.485922  1823A      3.495840  1824A      3.509214  
    1825A      3.540374  1826A      3.574307  1827A      3.576191  
    1828A      3.583923  1829A      3.590171  1830A      3.638394  
    1831A      3.641962  1832A      3.665419  1833A      3.667359  
    1834A      3.705379  1835A      3.748160  1836A      3.749976  
    1837A      3.750730  1838A      3.763088  1839A      3.778622  
    1840A      3.780727  1841A      3.842276  1842A      3.843618  
    1843A      3.871521  1844A      3.874763  1845A      3.905879  
    1846A      3.913371  1847A      3.938759  1848A      3.941074  
    1849A      3.948587  1850A      3.949419  1851A      3.958792  
    1852A      3.965937  1853A      3.971903  1854A      4.024718  
    1855A      4.027517  1856A      4.072927  1857A      4.220629  
    1858A      4.230968  1859A      4.265733  1860A      4.274460  
    1861A      4.304505  1862A      4.367694  1863A      4.396633  
    1864A      5.751017  1865A      5.751617  1866A      5.755465  
    1867A      5.757279  1868A      5.759243  1869A      5.761682  
    1870A      5.763689  1871A      5.765034  1872A      5.785690  
    1873A      5.789869  1874A      5.796884  1875A      6.022363  
    1876A      6.023343  1877A      6.024115  1878A      6.198029  
    1879A      6.329246  1880A      6.329493  1881A      6.380000  
    1882A      6.381176  1883A      6.382357  1884A      7.173673  
    1885A      7.242205  1886A      7.259136  1887A      7.267374  
    1888A      7.285327  1889A      7.296359  1890A      7.297845  
    1891A      7.304405  1892A      7.479065  1893A      7.517943  
    1894A      7.552617  1895A      7.667381  1896A     12.625868  
    1897A     42.916045  1898A     42.925489  1899A     42.930686  
    1900A     42.947415  

    Final Occupation by Irrep:
              A 
    DOCC [   300 ]
    NA   [   300 ]
    NB   [   300 ]

  @DF-RHF Final Energy: -3650.33864390506415

   => Energetics <=

    Nuclear Repulsion Energy =          15611.4211649754324753
    One-Electron Energy =              -36072.1096519466300379
    Two-Electron Energy =               16810.3498430661347811
    Total Energy =                      -3650.3386439050627814

Computation Completed


Properties will be evaluated at   0.000000,   0.000000,   0.000000 [a0]

Properties computed using the SCF density matrix


 Multipole Moments:

 ------------------------------------------------------------------------------------
     Multipole            Electronic (a.u.)      Nuclear  (a.u.)        Total (a.u.)
 ------------------------------------------------------------------------------------

 L = 1.  Multiply by 2.5417464519 to convert [e a0] to [Debye]
 Dipole X            :         -0.0007243            0.0001983           -0.0005259
 Dipole Y            :          0.0011210           -0.0013163           -0.0001953
 Dipole Z            :        406.0801366         -406.0864397           -0.0063031
 Magnitude           :                                                    0.0063280

 ------------------------------------------------------------------------------------

*** tstop() called on n2cn0502 at Sat Jan 27 17:41:28 2024
Module time:
	user time   =   16419.96 seconds =     273.67 minutes
	system time =     925.91 seconds =      15.43 minutes
	total time  =       6525 seconds =     108.75 minutes
Total time:
	user time   =   44377.77 seconds =     739.63 minutes
	system time =    2475.55 seconds =      41.26 minutes
	total time  =      22503 seconds =     375.05 minutes
  Constructing Basis Sets for SAPT...

   => Loading Basis Set <=

    Name: (JUN-CC-PVDZ AUX)
    Role: RIFIT
    Keyword: DF_BASIS_SAPT
    atoms 1                                                   entry B          line    56 file /opt/software/pc2/EB-SW/software/PSI4/1.9-foss-2022a/share/psi4/basis/jun-cc-pvdz-ri.gbs 
    atoms 2-5                                                 entry F          line   232 file /opt/software/pc2/EB-SW/software/PSI4/1.9-foss-2022a/share/psi4/basis/jun-cc-pvdz-ri.gbs 
    atoms 6-23, 30-42, 45-59, 62-78, 81-93, 98-108, 111-119   entry C          line   100 file /opt/software/pc2/EB-SW/software/PSI4/1.9-foss-2022a/share/psi4/basis/jun-cc-pvdz-ri.gbs 
    atoms 24-29, 43-44, 60-61, 79-80, 94-97, 109-110, 120-125 entry H          line    30 file /opt/software/pc2/EB-SW/software/PSI4/1.9-foss-2022a/share/psi4/basis/jun-cc-pvdz-ri.gbs 

   => Loading Basis Set <=

    Name: (JUN-CC-PVDZ AUX)
    Role: JKFIT
    Keyword: DF_BASIS_ELST
    atoms 1                                                   entry B          line    90 file /opt/software/pc2/EB-SW/software/PSI4/1.9-foss-2022a/share/psi4/basis/jun-cc-pvdz-jkfit.gbs 
    atoms 2-5                                                 entry F          line   314 file /opt/software/pc2/EB-SW/software/PSI4/1.9-foss-2022a/share/psi4/basis/jun-cc-pvdz-jkfit.gbs 
    atoms 6-23, 30-42, 45-59, 62-78, 81-93, 98-108, 111-119   entry C          line   146 file /opt/software/pc2/EB-SW/software/PSI4/1.9-foss-2022a/share/psi4/basis/jun-cc-pvdz-jkfit.gbs 
    atoms 24-29, 43-44, 60-61, 79-80, 94-97, 109-110, 120-125 entry H          line    70 file /opt/software/pc2/EB-SW/software/PSI4/1.9-foss-2022a/share/psi4/basis/jun-cc-pvdz-jkfit.gbs 


  //>>>>>>>>>>>>>>>>>>>>>>>>>>>>>>>>>>>//
  //               SSAPT0              //
  //<<<<<<<<<<<<<<<<<<<<<<<<<<<<<<<<<<<//


*** tstart() called on n2cn0502
*** at Sat Jan 27 17:41:30 2024

        SAPT0  
    Ed Hohenstein
     6 June 2009

      Orbital Information
  --------------------------
    NSO        =      1938
    NMO        =      1900
    NRI        =      6901
    NRI (Elst) =      8531
    NOCC A     =        21
    NOCC B     =       300
    FOCC A     =         5
    FOCC B     =        96
    NVIR A     =      1879
    NVIR B     =      1600

    Elst10,r            =     0.010839947147 [Eh]
    Exch10              =     0.000056811703 [Eh]
    Exch10 (S^2)        =     0.000056812753 [Eh]

    Iter     Energy [mEh]          dE [mEh]         Residual      Time [s]
       1      -0.01073443       0.010734433       0.533772683           606
       2      -0.01227406       0.001539628       0.255529247          1225
       3      -0.01266539       0.000391326       0.048445269          1961
       4      -0.01262898      -0.000036408       0.011550269          2636
       5      -0.01261963      -0.000009350       0.001653263          3312
       6      -0.01262155       0.000001918       0.000468315          3958
       7      -0.01262154      -0.000000010       0.000141326          4554
       8      -0.01262142      -0.000000120       0.000025725          5418
       9      -0.01262142       0.000000005       0.000004256          6145
      10      -0.01262142       0.000000002       0.000000617          6714

    CHF Iterations converged


    Iter     Energy [mEh]          dE [mEh]         Residual      Time [s]
       1     -11.85643993      11.856439927      59.848533824           672
       2      -7.55945268      -4.296987248       7.207369657          1248
       3      -7.51520283      -0.044249846       2.380646689          1982
       4      -7.64975293       0.134550101       0.783807621          2602
       5      -7.66979574       0.020042802       0.268375773          3189
       6      -7.66750332      -0.002292419       0.180137423          3713
       7      -7.66359520      -0.003908118       0.071971001          4242
       8      -7.66381865       0.000223449       0.033479412          4891
       9      -7.66456672       0.000748070       0.018254335          5506
      10      -7.66448666      -0.000080056       0.018087298          6146
      11      -7.66429889      -0.000187778       0.008231522          6808
      12      -7.66430212       0.000003239       0.003890459          7525
      13      -7.66433596       0.000033839       0.001508679          8094
      14      -7.66434610       0.000010132       0.000647483          8770
      15      -7.66434326      -0.000002833       0.000414709          9601
      16      -7.66433737      -0.000005897       0.000231788         10352
      17      -7.66433989       0.000002528       0.000104524         11063
      18      -7.66434076       0.000000865       0.000032568         11913
      19      -7.66434056      -0.000000202       0.000016941         13167
      20      -7.66434038      -0.000000181       0.000006779         14256
      21      -7.66434040       0.000000026       0.000003177         15230
      22      -7.66434043       0.000000027       0.000001510         16084
      23      -7.66434043      -0.000000003       0.000000628         16945

    CHF Iterations converged

    Ind20,r (A<-B)      =    -0.000012621423 [Eh]
    Ind20,r (B<-A)      =    -0.007664340426 [Eh]
    Ind20,r             =    -0.007676961849 [Eh]
    Exch-Ind20,r (A<-B) =     0.000006130846 [Eh]
    Exch-Ind20,r (B<-A) =     0.000007920017 [Eh]
    Exch-Ind20,r        =     0.000014050863 [Eh]
    Disp20              =    -0.002045301153 [Eh]
    Disp20 (SS)         =    -0.001022650577 [Eh]
    Disp20 (OS)         =    -0.001022650577 [Eh]
    Exch-Disp20         =     0.000020008847 [Eh]
    Exch-Disp20 (SS)    =     0.000014222089 [Eh]
    Exch-Disp20 (OS)    =     0.000005786759 [Eh]

    SAPT Results 
  --------------------------------------------------------------------------------------------------------
    Electrostatics                 10.83994715 [mEh]       6.80216953 [kcal/mol]      28.46027731 [kJ/mol]
      Elst10,r                     10.83994715 [mEh]       6.80216953 [kcal/mol]      28.46027731 [kJ/mol]

    Exchange                        0.05681170 [mEh]       0.03564988 [kcal/mol]       0.14915911 [kJ/mol]
      Exch10                        0.05681170 [mEh]       0.03564988 [kcal/mol]       0.14915911 [kJ/mol]
      Exch10(S^2)                   0.05681275 [mEh]       0.03565054 [kcal/mol]       0.14916186 [kJ/mol]

    Induction                      -7.61245205 [mEh]      -4.77688578 [kcal/mol]     -19.98649011 [kJ/mol]
      Ind20,r                      -7.67696185 [mEh]      -4.81736629 [kcal/mol]     -20.15586056 [kJ/mol]
      Exch-Ind20,r                  0.01405086 [mEh]       0.00881705 [kcal/mol]       0.03689054 [kJ/mol]
      delta HF,r (2)                0.05045894 [mEh]       0.03166346 [kcal/mol]       0.13247992 [kJ/mol]

    Dispersion                     -2.02529231 [mEh]      -1.27089011 [kcal/mol]      -5.31740422 [kJ/mol]
      Disp20                       -2.04530115 [mEh]      -1.28344585 [kcal/mol]      -5.36993744 [kJ/mol]
      Exch-Disp20                   0.02000885 [mEh]       0.01255574 [kcal/mol]       0.05253322 [kJ/mol]
      Disp20 (SS)                  -1.02265058 [mEh]      -0.64172293 [kcal/mol]      -2.68496872 [kJ/mol]
      Disp20 (OS)                  -1.02265058 [mEh]      -0.64172293 [kcal/mol]      -2.68496872 [kJ/mol]
      Exch-Disp20 (SS)              0.01422209 [mEh]       0.00892450 [kcal/mol]       0.03734009 [kJ/mol]
      Exch-Disp20 (OS)              0.00578676 [mEh]       0.00363125 [kcal/mol]       0.01519313 [kJ/mol]

  Total HF                          3.28430680 [mEh]       2.06093363 [kcal/mol]       8.62294631 [kJ/mol]
  Total SAPT0                       1.25901449 [mEh]       0.79004352 [kcal/mol]       3.30554210 [kJ/mol]

  Special recipe for scaled SAPT0 (see Manual):
    Electrostatics sSAPT0          10.83994715 [mEh]       6.80216953 [kcal/mol]      28.46027731 [kJ/mol]
    Exchange sSAPT0                 0.05681170 [mEh]       0.03564988 [kcal/mol]       0.14915911 [kJ/mol]
    Induction sSAPT0               -7.61245283 [mEh]      -4.77688627 [kcal/mol]     -19.98649215 [kJ/mol]
    Dispersion sSAPT0              -2.02529341 [mEh]      -1.27089081 [kcal/mol]      -5.31740713 [kJ/mol]
  Total sSAPT0                      1.25901261 [mEh]       0.79004234 [kcal/mol]       3.30553714 [kJ/mol]
  --------------------------------------------------------------------------------------------------------

*** tstop() called on n2cn0502 at Mon Jan 29 05:03:27 2024
Module time:
	user time   =   64378.58 seconds =    1072.98 minutes
	system time =    3369.41 seconds =      56.16 minutes
	total time  =     127317 seconds =    2121.95 minutes
Total time:
	user time   =  108757.79 seconds =    1812.63 minutes
	system time =    5844.96 seconds =      97.42 minutes
	total time  =     149822 seconds =    2497.03 minutes

    Psi4 stopped on: Monday, 29 January 2024 05:03AM
    Psi4 wall time for execution: 1 day, 17:37:03.88

*** Psi4 exiting successfully. Buy a developer a beer!
