
    -----------------------------------------------------------------------
          Psi4: An Open-Source Ab Initio Electronic Structure Package
                               Psi4 1.9 release

                         Git: Rev {} zzzzzzz 


    D. G. A. Smith, L. A. Burns, A. C. Simmonett, R. M. Parrish,
    M. C. Schieber, R. Galvelis, P. Kraus, H. Kruse, R. Di Remigio,
    A. Alenaizan, A. M. James, S. Lehtola, J. P. Misiewicz, M. Scheurer,
    R. A. Shaw, J. B. Schriber, Y. Xie, Z. L. Glick, D. A. Sirianni,
    J. S. O'Brien, J. M. Waldrop, A. Kumar, E. G. Hohenstein,
    B. P. Pritchard, B. R. Brooks, H. F. Schaefer III, A. Yu. Sokolov,
    K. Patkowski, A. E. DePrince III, U. Bozkaya, R. A. King,
    F. A. Evangelista, J. M. Turney, T. D. Crawford, C. D. Sherrill,
    J. Chem. Phys. 152(18) 184108 (2020). https://doi.org/10.1063/5.0006002

                            Additional Code Authors
    E. T. Seidl, C. L. Janssen, E. F. Valeev, M. L. Leininger,
    J. F. Gonthier, R. M. Richard, H. R. McAlexander, M. Saitow, X. Wang,
    P. Verma, M. H. Lechner, A. Jiang, S. Behnle, A. G. Heide,
    M. F. Herbst, and D. L. Poole

             Previous Authors, Complete List of Code Contributors,
                       and Citations for Specific Modules
    https://github.com/psi4/psi4/blob/master/codemeta.json
    https://github.com/psi4/psi4/graphs/contributors
    http://psicode.org/psi4manual/master/introduction.html#citing-psifour

    -----------------------------------------------------------------------


    Psi4 started on: Monday, 22 January 2024 12:09PM

    Process ID: 1880704
    Host:       d-6-11-4
    PSIDATADIR: /home/gridsan/tfroembgen/.conda/envs/psi4test/share/psi4
    Memory:     500.0 MiB
    Threads:    12
    
  ==> Input File <==

--------------------------------------------------------------------------
memory 32 GB # how much memory is available ! Depends on the nodes/cores !

molecule dimer {
# monomer A
-1 1    # Charge and multiplicity
B -0.000046  0.000337 7.599994
F -1.153597  0.000048 8.415641
F  1.153661 -0.000581 8.415641
F -0.000019 -1.153637 6.784360
F -0.000019  1.153978 6.784360
--
# monomer B
0 1     # Charge and multiplicity
C   1.22531237526482      0.70753866091955      0.00613762728373
C   1.22532433589282     -0.70753852257020     -0.00619318228664
C   -0.00000567409046      1.41496628609039     -0.00672680580738
C   2.45644923379077      1.41832825917820      0.00902448468363
C   0.00001130712078     -1.41497612663474      0.00347275151708
C   -1.22530046906674      0.70754574598412      0.00838914760619
C   2.45643823516184     -1.41832293188077     -0.00843833914343
C   -0.00000085313587      2.83680140328112     -0.00913035594137
C   3.68182717731192      0.70931832800114     -0.00808954934571
C   2.45512052870677      2.83422403348893     -0.00819210630633
C   3.68182158506039     -0.70933346742900      0.00798293467272
C   -1.22531311884624     -0.70752714354401     -0.00512042085974
C   1.22670006104402      3.54346985599427      0.00816696660346
C   0.00000526469929     -2.83678176723568      0.00832091913869
C   -2.45643555300670      1.41831729028492      0.00842454345199
C   2.45512389762097     -2.83422965658853      0.00783102630520
C   -1.22671388474763      3.54346943575023      0.00827029982280
C   4.91451777504333      1.42717324448953     -0.00160886631602
C   3.69315067131765      3.54279566454522     -0.00155906667985
C   -2.45643712022637     -1.41831290883911     -0.00846337726810
C   1.22670532178455     -3.54347386990643     -0.00780316414624
C   -2.45512491866593      2.83421703463423     -0.00818572995999
C   4.91452486062398     -1.42718653794377      0.00136387641845
C   1.22142509354026      4.97013443726031      0.00150231067809
C   4.89300870916237      2.82518837202648     -0.00039219795739
C   -1.22669652864725     -3.54347062507680     -0.00753595973677
C   -3.68181849668397      0.70932533873199     -0.00807686886569
C   3.69314758099218     -3.54280096939050      0.00148176697923
C   -1.22143177215231      4.97012866986289      0.00168580605083
C   6.13477145276790      0.68054831910577     -0.00083909176631
C   3.65678936045204      4.97295361556775     -0.00065042889723
C   -2.45512642789169     -2.83421472106065      0.00758666850712
C   -3.68181869921921     -0.70932533146830      0.00810055625144
C   4.89301309775526     -2.82519973363176      0.00021895393805
C   -0.00000059327114      5.65044773803267      0.00045449734393
C   6.13477559217374     -0.68055448207492      0.00042622874941
C   2.47813196269732      5.65357712333155      0.00063835075260
C   1.22142288457925     -4.97012668293268     -0.00129718634452
C   -3.69316190412301      3.54279732619245     -0.00139355922051
C   -1.22142804110313     -4.97011793159564     -0.00140994817719
C   -4.91452132810043      1.42717581899491     -0.00153192130862
C   3.65678749952045     -4.97295485423912      0.00080007163680
C   -2.47813805026426      5.65357479452875      0.00092287576113
C   -3.69314125872231     -3.54278984697859      0.00136564082345
C   -4.91451200321153     -1.42718062802730      0.00139857359209
C   -0.00000552908399     -5.65043791501335      0.00005899322272
C   -4.89302000425900      2.82518897091939     -0.00040227981744
C   2.47812647313991     -5.65357317188818     -0.00029052915548
C   -3.65679823041642      4.97295655404175     -0.00047374852278
C   -4.89299899901461     -2.82519139505969      0.00006491824035
C   -2.47812801824129     -5.65356579800621     -0.00056571680280
C   -6.13477002348955      0.68054913825639     -0.00086464346868
C   -3.65678835334731     -4.97294365097028      0.00058578382008
C   -6.13476456307132     -0.68055354348201      0.00040575295444
H   5.83528897565761      3.36927626695423      0.00396712770529
H   7.07385965258860      1.22821762089947     -0.00037744837300
H   4.60066374401555      5.51238117445323     -0.00014522814529
H   5.83528386714679     -3.36930568472863     -0.00423551337640
H   -0.00001167146422      6.73853104613662     -0.00389474766392
H   7.07386165167227     -1.22822657074368     -0.00008250934481
H   2.47331421164041      6.74068466339473      0.00017162982210
H   4.60066897122302     -5.51237575717576      0.00039007446835
H   -2.47331820069565      6.74068209160650      0.00047297644710
H   -0.00000978838621     -6.73852780445195      0.00458867820736
H   -5.83530143450167      3.36927132229595      0.00410314985360
H   2.47330840367253     -6.74068500242887      0.00027980126949
H   -4.60067436136587      5.51237839860371      0.00002010017831
H   -5.83527902699321     -3.36928859177951     -0.00451481925734
H   -2.47329986759855     -6.74067870613986     -0.00016951527498
H   -7.07385728692578      1.22822084484047     -0.00046143985387
H   -4.60067330624313     -5.51236229778631      0.00021776644566
H   -7.07385645456741     -1.22822025997701     -0.00017736581114

    units angstrom      # Angstroms are the default
    no_reorient         # Geometry fixed, default
    symmetry c1         # C1 symmetry, default
}

set {
    scf_type DF         # Density fitting, faster than exact integrals
    freeze_core True    # Freeze core electrons
    basis jun-cc-pVDZ   # Jun-cc-pVDZ basis set, recommended for sSAPT0 in https://doi.org/10.1063/1.4867135
}

energy('ssapt0')        # Compute sSAPT0 energy, includes also SAPT0
--------------------------------------------------------------------------

  Memory set to  29.802 GiB by Python driver.

Scratch directory: /state/partition1/slurm_tmp/24792937.4294967291.0/
   => Loading Basis Set <=

    Name: JUN-CC-PVDZ
    Role: ORBITAL
    Keyword: BASIS
    atoms 1     entry B          line   130 file /home/gridsan/tfroembgen/.conda/envs/psi4test/share/psi4/basis/jun-cc-pvdz.gbs 
    atoms 2-5   entry F          line   266 file /home/gridsan/tfroembgen/.conda/envs/psi4test/share/psi4/basis/jun-cc-pvdz.gbs 
    atoms 6-59  entry C          line   164 file /home/gridsan/tfroembgen/.conda/envs/psi4test/share/psi4/basis/jun-cc-pvdz.gbs 
    atoms 60-77 entry H          line    36 file /home/gridsan/tfroembgen/.conda/envs/psi4test/share/psi4/basis/jun-cc-pvdz.gbs 

   => Loading Basis Set <=

    Name: JUN-CC-PVDZ
    Role: ORBITAL
    Keyword: BASIS
    atoms 1     entry B          line   130 file /home/gridsan/tfroembgen/.conda/envs/psi4test/share/psi4/basis/jun-cc-pvdz.gbs 
    atoms 2-5   entry F          line   266 file /home/gridsan/tfroembgen/.conda/envs/psi4test/share/psi4/basis/jun-cc-pvdz.gbs 
    atoms 6-59  entry C          line   164 file /home/gridsan/tfroembgen/.conda/envs/psi4test/share/psi4/basis/jun-cc-pvdz.gbs 
    atoms 60-77 entry H          line    36 file /home/gridsan/tfroembgen/.conda/envs/psi4test/share/psi4/basis/jun-cc-pvdz.gbs 


  //>>>>>>>>>>>>>>>>>>>>>>>>>>>>>>>>>>>//
  //              Dimer HF             //
  //<<<<<<<<<<<<<<<<<<<<<<<<<<<<<<<<<<<//

   => Libint2 <=

    Primary   basis highest AM E, G, H:  7, 7, 4
    Auxiliary basis highest AM E, G, H:  7, 7, 5
    Onebody   basis highest AM E, G, H:  7, 7, 5
    Solid Harmonics ordering:            gaussian

*** tstart() called on d-6-11-4
*** at Mon Jan 22 12:09:35 2024

   => Loading Basis Set <=

    Name: JUN-CC-PVDZ
    Role: ORBITAL
    Keyword: BASIS
    atoms 1     entry B          line   130 file /home/gridsan/tfroembgen/.conda/envs/psi4test/share/psi4/basis/jun-cc-pvdz.gbs 
    atoms 2-5   entry F          line   266 file /home/gridsan/tfroembgen/.conda/envs/psi4test/share/psi4/basis/jun-cc-pvdz.gbs 
    atoms 6-59  entry C          line   164 file /home/gridsan/tfroembgen/.conda/envs/psi4test/share/psi4/basis/jun-cc-pvdz.gbs 
    atoms 60-77 entry H          line    36 file /home/gridsan/tfroembgen/.conda/envs/psi4test/share/psi4/basis/jun-cc-pvdz.gbs 


         ---------------------------------------------------------
                                   SCF
               by Justin Turney, Rob Parrish, Andy Simmonett
                          and Daniel G. A. Smith
                              RHF Reference
                       12 Threads,  30517 MiB Core
         ---------------------------------------------------------

  ==> Geometry <==

    Molecular point group: c1
    Full point group: C1

    Geometry (in Angstrom), charge = -1, multiplicity = 1:

       Center              X                  Y                   Z               Mass       
    ------------   -----------------  -----------------  -----------------  -----------------
         B           -0.000046449334     0.000336519434     6.722046790312    11.009305360000
         F           -1.153597449334     0.000047519434     7.537693790312    18.998403162730
         F            1.153660550666    -0.000581480566     7.537693790312    18.998403162730
         F           -0.000019449334    -1.153637480566     5.906412790312    18.998403162730
         F           -0.000019449334     1.153977519434     5.906412790312    18.998403162730
         C            1.225311925931     0.707538180353    -0.871809582405    12.000000000000
         C            1.225323886559    -0.707539003137    -0.884140391975    12.000000000000
         C           -0.000006123424     1.414965805524    -0.884674015496    12.000000000000
         C            2.456448784457     1.418327778612    -0.868922725005    12.000000000000
         C            0.000010857787    -1.414976607201    -0.874474458171    12.000000000000
         C           -1.225300918401     0.707545265418    -0.869558062082    12.000000000000
         C            2.456437785828    -1.418323412447    -0.886385548832    12.000000000000
         C           -0.000001302470     2.836800922715    -0.887077565630    12.000000000000
         C            3.681826727978     0.709317847435    -0.886036759034    12.000000000000
         C            2.455120079373     2.834223552923    -0.886139315995    12.000000000000
         C            3.681821135726    -0.709333947995    -0.869964275016    12.000000000000
         C           -1.225313568180    -0.707527624110    -0.883067630548    12.000000000000
         C            1.226699611710     3.543469375428    -0.869780243085    12.000000000000
         C            0.000004815365    -2.836782247802    -0.869626290550    12.000000000000
         C           -2.456436002341     1.418316809719    -0.869522666236    12.000000000000
         C            2.455123448287    -2.834230137155    -0.870116183383    12.000000000000
         C           -1.226714334082     3.543468955184    -0.869676909866    12.000000000000
         C            4.914517325709     1.427172763923    -0.879556076004    12.000000000000
         C            3.693150221984     3.542795183979    -0.879506276368    12.000000000000
         C           -2.456437569560    -1.418313389406    -0.886410586956    12.000000000000
         C            1.226704872451    -3.543474350473    -0.885750373835    12.000000000000
         C           -2.455125368000     2.834216554068    -0.886132939648    12.000000000000
         C            4.914524411290    -1.427187018510    -0.876583333270    12.000000000000
         C            1.221424644206     4.970133956694    -0.876444899010    12.000000000000
         C            4.893008259828     2.825187891460    -0.878339407646    12.000000000000
         C           -1.226696977981    -3.543471105643    -0.885483169425    12.000000000000
         C           -3.681818946018     0.709324858166    -0.886024078554    12.000000000000
         C            3.693147131658    -3.542801449957    -0.876465442709    12.000000000000
         C           -1.221432221486     4.970128189296    -0.876261403638    12.000000000000
         C            6.134771003434     0.680547838539    -0.878786301455    12.000000000000
         C            3.656788911118     4.972953135001    -0.878597638586    12.000000000000
         C           -2.455126877226    -2.834215201627    -0.870360541181    12.000000000000
         C           -3.681819148553    -0.709325812035    -0.869846653437    12.000000000000
         C            4.893012648421    -2.825200214198    -0.877728255750    12.000000000000
         C           -0.000001042605     5.650447257466    -0.877492712344    12.000000000000
         C            6.134775142840    -0.680554962641    -0.877520980939    12.000000000000
         C            2.478131513363     5.653576642765    -0.877308858936    12.000000000000
         C            1.221422435245    -4.970127163499    -0.879244396033    12.000000000000
         C           -3.693162353457     3.542796845626    -0.879340768909    12.000000000000
         C           -1.221428490437    -4.970118412162    -0.879357157866    12.000000000000
         C           -4.914521777434     1.427175338429    -0.879479130997    12.000000000000
         C            3.656787050187    -4.972955334806    -0.877147138052    12.000000000000
         C           -2.478138499598     5.653574313962    -0.877024333927    12.000000000000
         C           -3.693141708056    -3.542790327545    -0.876581568865    12.000000000000
         C           -4.914512452545    -1.427181108594    -0.876548636096    12.000000000000
         C           -0.000005978418    -5.650438395580    -0.877888216466    12.000000000000
         C           -4.893020453593     2.825188490353    -0.878349489506    12.000000000000
         C            2.478126023806    -5.653573652455    -0.878237738844    12.000000000000
         C           -3.656798679750     4.972956073475    -0.878420958211    12.000000000000
         C           -4.892999448349    -2.825191875626    -0.877882291448    12.000000000000
         C           -2.478128467575    -5.653566278573    -0.878512926491    12.000000000000
         C           -6.134770472823     0.680548657690    -0.878811853157    12.000000000000
         C           -3.656788802681    -4.972944131537    -0.877361425868    12.000000000000
         C           -6.134765012405    -0.680554024048    -0.877541456734    12.000000000000
         H            5.835288526324     3.369275786388    -0.873980081983     1.007825032230
         H            7.073859203255     1.228217140333    -0.878324658061     1.007825032230
         H            4.600663294682     5.512380693887    -0.878092437834     1.007825032230
         H            5.835283417813    -3.369306165295    -0.882182723065     1.007825032230
         H           -0.000012120798     6.738530565570    -0.881841957352     1.007825032230
         H            7.073861202338    -1.228227051310    -0.878029719033     1.007825032230
         H            2.473313762307     6.740684182828    -0.877775579866     1.007825032230
         H            4.600668521889    -5.512376237742    -0.877557135220     1.007825032230
         H           -2.473318650030     6.740681611040    -0.877474233241     1.007825032230
         H           -0.000010237720    -6.738528285018    -0.873358531481     1.007825032230
         H           -5.835301883836     3.369270841730    -0.873844059835     1.007825032230
         H            2.473307954339    -6.740685482995    -0.877667408419     1.007825032230
         H           -4.600674810700     5.512377918037    -0.877927109510     1.007825032230
         H           -5.835279476327    -3.369289072346    -0.882462028946     1.007825032230
         H           -2.473300316932    -6.740679186706    -0.878116724963     1.007825032230
         H           -7.073857736260     1.228220364274    -0.878408649542     1.007825032230
         H           -4.600673755577    -5.512362778353    -0.877729443243     1.007825032230
         H           -7.073856903901    -1.228220740543    -0.878124575500     1.007825032230

  Running in c1 symmetry.

  Rotational constants: A =      0.00139  B =      0.00139  C =      0.00110 [cm^-1]
  Rotational constants: A =     41.60600  B =     41.60187  C =     33.02250 [MHz]
  Nuclear repulsion = 7463.280313898929307

  Charge       = -1
  Multiplicity = 1
  Electrons    = 384
  Nalpha       = 192
  Nbeta        = 192

  ==> Algorithm <==

  SCF Algorithm Type is DF.
  DIIS enabled.
  MOM disabled.
  Fractional occupation disabled.
  Guess Type is SAD.
  Energy threshold   = 1.00e-08
  Density threshold  = 1.00e-08
  Integral threshold = 1.00e-12

  ==> Primary Basis <==

  Basis Set: JUN-CC-PVDZ
    Blend: JUN-CC-PVDZ
    Number of shells: 526
    Number of basis functions: 1152
    Number of Cartesian functions: 1211
    Spherical Harmonics?: true
    Max angular momentum: 2

   => Loading Basis Set <=

    Name: (JUN-CC-PVDZ AUX)
    Role: JKFIT
    Keyword: DF_BASIS_SCF
    atoms 1     entry B          line    90 file /home/gridsan/tfroembgen/.conda/envs/psi4test/share/psi4/basis/jun-cc-pvdz-jkfit.gbs 
    atoms 2-5   entry F          line   314 file /home/gridsan/tfroembgen/.conda/envs/psi4test/share/psi4/basis/jun-cc-pvdz-jkfit.gbs 
    atoms 6-59  entry C          line   146 file /home/gridsan/tfroembgen/.conda/envs/psi4test/share/psi4/basis/jun-cc-pvdz-jkfit.gbs 
    atoms 60-77 entry H          line    70 file /home/gridsan/tfroembgen/.conda/envs/psi4test/share/psi4/basis/jun-cc-pvdz-jkfit.gbs 

  ==> Integral Setup <==

  ==> DiskDFJK: Density-Fitted J/K Matrices <==

    J tasked:                  Yes
    K tasked:                  Yes
    wK tasked:                  No
    OpenMP threads:             12
    Integrals threads:          12
    Memory [MiB]:            22888
    Algorithm:                Core
    Integral Cache:           SAVE
    Schwarz Cutoff:          1E-12
    Fitting Condition:       1E-10

   => Auxiliary Basis Set <=

  Basis Set: (JUN-CC-PVDZ AUX)
    Blend: JUN-CC-PVDZ-JKFIT
    Number of shells: 1755
    Number of basis functions: 5075
    Number of Cartesian functions: 5819
    Spherical Harmonics?: true
    Max angular momentum: 3

  Minimum eigenvalue in the overlap matrix is 8.3987332139E-10.
  Reciprocal condition number of the overlap matrix is 3.7555996638E-11.
    Using canonical orthogonalization.
  Overall, 14 of 1152 possible MOs eliminated.


  ==> Pre-Iterations <==

  SCF Guess: Superposition of Atomic Densities via on-the-fly atomic UHF (no occupation information).

   -------------------------
    Irrep   Nso     Nmo    
   -------------------------
     A       1152    1138 
   -------------------------
    Total    1152    1138
   -------------------------

  ==> Iterations <==

                           Total Energy        Delta E     RMS |[F,P]|

   @DF-RHF iter SAD: -2483.25914918797343   -2.48326e+03   0.00000e+00 
   @DF-RHF iter   1: -2477.62783503376522    5.63131e+00   1.09674e-03 ADIIS/DIIS
   @DF-RHF iter   2: -2478.51296704931610   -8.85132e-01   4.72189e-04 ADIIS/DIIS
   @DF-RHF iter   3: -2478.64282427264106   -1.29857e-01   1.29694e-04 ADIIS/DIIS
   @DF-RHF iter   4: -2478.65567180458811   -1.28475e-02   5.11431e-05 DIIS
   @DF-RHF iter   5: -2478.65786012443959   -2.18832e-03   1.55200e-05 DIIS
   @DF-RHF iter   6: -2478.65812809470526   -2.67970e-04   5.36177e-06 DIIS
   @DF-RHF iter   7: -2478.65820792366412   -7.98290e-05   2.63783e-06 DIIS
   @DF-RHF iter   8: -2478.65822985366549   -2.19300e-05   1.21769e-06 DIIS
   @DF-RHF iter   9: -2478.65823638057645   -6.52691e-06   2.46674e-07 DIIS
   @DF-RHF iter  10: -2478.65823659457055   -2.13994e-07   8.69293e-08 DIIS
   @DF-RHF iter  11: -2478.65823661072682   -1.61563e-08   3.36850e-08 DIIS
   @DF-RHF iter  12: -2478.65823661412560   -3.39878e-09   1.14286e-08 DIIS
   @DF-RHF iter  13: -2478.65823661443119   -3.05590e-10   4.42270e-09 DIIS
  Energy and wave function converged.


  ==> Post-Iterations <==

    Orbital Energies [Eh]
    ---------------------

    Doubly Occupied:                                                      

       1A    -26.064349     2A    -26.064313     3A    -26.063712  
       4A    -26.063532     5A    -11.203236     6A    -11.203232  
       7A    -11.203198     8A    -11.203187     9A    -11.203165  
      10A    -11.203149    11A    -11.203123    12A    -11.203108  
      13A    -11.203093    14A    -11.203080    15A    -11.203058  
      16A    -11.203038    17A    -11.202793    18A    -11.202543  
      19A    -11.202522    20A    -11.202291    21A    -11.202267  
      22A    -11.202209    23A    -11.201955    24A    -11.201713  
      25A    -11.201694    26A    -11.201156    27A    -11.201121  
      28A    -11.201094    29A    -11.200775    30A    -11.200760  
      31A    -11.200708    32A    -11.200700    33A    -11.200626  
      34A    -11.200296    35A    -11.200163    36A    -11.200057  
      37A    -11.200037    38A    -11.199899    39A    -11.199867  
      40A    -11.199786    41A    -11.198514    42A    -11.198514  
      43A    -11.198446    44A    -11.198444    45A    -11.198443  
      46A    -11.198442    47A    -11.197090    48A    -11.197089  
      49A    -11.197022    50A    -11.197021    51A    -11.197018  
      52A    -11.197016    53A    -11.196421    54A    -11.196421  
      55A    -11.196388    56A    -11.196386    57A    -11.196364  
      58A    -11.196329    59A     -7.536267    60A     -1.407932  
      61A     -1.348512    62A     -1.348141    63A     -1.347751  
      64A     -1.187063    65A     -1.163593    66A     -1.163548  
      67A     -1.133773    68A     -1.133770    69A     -1.124555  
      70A     -1.102320    71A     -1.093321    72A     -1.079392  
      73A     -1.079361    74A     -1.058027    75A     -1.058026  
      76A     -1.026537    77A     -1.026535    78A     -1.022718  
      79A     -1.010961    80A     -1.010954    81A     -0.984056  
      82A     -0.967998    83A     -0.965513    84A     -0.965496  
      85A     -0.962620    86A     -0.957937    87A     -0.931295  
      88A     -0.931267    89A     -0.906692    90A     -0.906653  
      91A     -0.839180    92A     -0.839148    93A     -0.831785  
      94A     -0.829979    95A     -0.829899    96A     -0.825652  
      97A     -0.825598    98A     -0.806812    99A     -0.782991  
     100A     -0.762985   101A     -0.760733   102A     -0.756537  
     103A     -0.756509   104A     -0.739893   105A     -0.739885  
     106A     -0.690740   107A     -0.689180   108A     -0.677799  
     109A     -0.677766   110A     -0.677352   111A     -0.677320  
     112A     -0.661156   113A     -0.643903   114A     -0.643885  
     115A     -0.638280   116A     -0.638266   117A     -0.606509  
     118A     -0.599211   119A     -0.597812   120A     -0.595621  
     121A     -0.595617   122A     -0.595457   123A     -0.584399  
     124A     -0.584388   125A     -0.574296   126A     -0.572163  
     127A     -0.572146   128A     -0.552151   129A     -0.548635  
     130A     -0.546023   131A     -0.544873   132A     -0.544868  
     133A     -0.538096   134A     -0.535341   135A     -0.535327  
     136A     -0.531112   137A     -0.525518   138A     -0.525378  
     139A     -0.525245   140A     -0.519671   141A     -0.519610  
     142A     -0.512742   143A     -0.512736   144A     -0.510492  
     145A     -0.510455   146A     -0.503264   147A     -0.500276  
     148A     -0.500245   149A     -0.483912   150A     -0.483910  
     151A     -0.482171   152A     -0.482170   153A     -0.474597  
     154A     -0.471203   155A     -0.467768   156A     -0.467746  
     157A     -0.445934   158A     -0.444278   159A     -0.444231  
     160A     -0.440323   161A     -0.438455   162A     -0.432051  
     163A     -0.429536   164A     -0.426572   165A     -0.426559  
     166A     -0.413808   167A     -0.413772   168A     -0.405454  
     169A     -0.405408   170A     -0.405308   171A     -0.395104  
     172A     -0.395009   173A     -0.383939   174A     -0.383934  
     175A     -0.382116   176A     -0.381905   177A     -0.381728  
     178A     -0.348488   179A     -0.348473   180A     -0.347051  
     181A     -0.320517   182A     -0.320513   183A     -0.293512  
     184A     -0.280397   185A     -0.279389   186A     -0.279363  
     187A     -0.255750   188A     -0.243588   189A     -0.227951  
     190A     -0.227911   191A     -0.169345   192A     -0.169301  

    Virtual:                                                              

     193A      0.069388   194A      0.069474   195A      0.096476  
     196A      0.096544   197A      0.098518   198A      0.099085  
     199A      0.099095   200A      0.106230   201A      0.110208  
     202A      0.120664   203A      0.120729   204A      0.121164  
     205A      0.121171   206A      0.131326   207A      0.135945  
     208A      0.135946   209A      0.137118   210A      0.138165  
     211A      0.138239   212A      0.140638   213A      0.140747  
     214A      0.142178   215A      0.144314   216A      0.146757  
     217A      0.147201   218A      0.155727   219A      0.155753  
     220A      0.160155   221A      0.160158   222A      0.164533  
     223A      0.166880   224A      0.169692   225A      0.169694  
     226A      0.170956   227A      0.177992   228A      0.179648  
     229A      0.179667   230A      0.180446   231A      0.182459  
     232A      0.184127   233A      0.184199   234A      0.185174  
     235A      0.185176   236A      0.185978   237A      0.192057  
     238A      0.195936   239A      0.196386   240A      0.199979  
     241A      0.202623   242A      0.202625   243A      0.204600  
     244A      0.204710   245A      0.209711   246A      0.209712  
     247A      0.220603   248A      0.222473   249A      0.223571  
     250A      0.223656   251A      0.223903   252A      0.231558  
     253A      0.231645   254A      0.232199   255A      0.233025  
     256A      0.238609   257A      0.238661   258A      0.240652  
     259A      0.240792   260A      0.241045   261A      0.241568  
     262A      0.248021   263A      0.248294   264A      0.248331  
     265A      0.255813   266A      0.255827   267A      0.255967  
     268A      0.257236   269A      0.260589   270A      0.260646  
     271A      0.263045   272A      0.263669   273A      0.263745  
     274A      0.265270   275A      0.265920   276A      0.266326  
     277A      0.274870   278A      0.277237   279A      0.277464  
     280A      0.277758   281A      0.278611   282A      0.279074  
     283A      0.279467   284A      0.281063   285A      0.282237  
     286A      0.282322   287A      0.287173   288A      0.287253  
     289A      0.292465   290A      0.292652   291A      0.295601  
     292A      0.296122   293A      0.296145   294A      0.299422  
     295A      0.307843   296A      0.307984   297A      0.309507  
     298A      0.309545   299A      0.311468   300A      0.311479  
     301A      0.316467   302A      0.316511   303A      0.322302  
     304A      0.322318   305A      0.323315   306A      0.325747  
     307A      0.326823   308A      0.327222   309A      0.328012  
     310A      0.330232   311A      0.330619   312A      0.331661  
     313A      0.344060   314A      0.345233   315A      0.345991  
     316A      0.346404   317A      0.348415   318A      0.352964  
     319A      0.353608   320A      0.353911   321A      0.355683  
     322A      0.355826   323A      0.358233   324A      0.358459  
     325A      0.359803   326A      0.361134   327A      0.364231  
     328A      0.364272   329A      0.367413   330A      0.367507  
     331A      0.368771   332A      0.372900   333A      0.373103  
     334A      0.373199   335A      0.374435   336A      0.376313  
     337A      0.376829   338A      0.378362   339A      0.378546  
     340A      0.381307   341A      0.383069   342A      0.388144  
     343A      0.389160   344A      0.391757   345A      0.393416  
     346A      0.397804   347A      0.399115   348A      0.399323  
     349A      0.400608   350A      0.401356   351A      0.402078  
     352A      0.404535   353A      0.404678   354A      0.405775  
     355A      0.406084   356A      0.409899   357A      0.415340  
     358A      0.417035   359A      0.418175   360A      0.418205  
     361A      0.424202   362A      0.425343   363A      0.425699  
     364A      0.427943   365A      0.432356   366A      0.434425  
     367A      0.435583   368A      0.439175   369A      0.439987  
     370A      0.441357   371A      0.442675   372A      0.442963  
     373A      0.445848   374A      0.447893   375A      0.448983  
     376A      0.449058   377A      0.449959   378A      0.450026  
     379A      0.451517   380A      0.451552   381A      0.453290  
     382A      0.454519   383A      0.456654   384A      0.459958  
     385A      0.460760   386A      0.461870   387A      0.463209  
     388A      0.463221   389A      0.464295   390A      0.464349  
     391A      0.466368   392A      0.467709   393A      0.467760  
     394A      0.469396   395A      0.471208   396A      0.475308  
     397A      0.475356   398A      0.478315   399A      0.478322  
     400A      0.478536   401A      0.479544   402A      0.480428  
     403A      0.482068   404A      0.487520   405A      0.492638  
     406A      0.493590   407A      0.493656   408A      0.494709  
     409A      0.496727   410A      0.499199   411A      0.500190  
     412A      0.501308   413A      0.502269   414A      0.503472  
     415A      0.506323   416A      0.506476   417A      0.507135  
     418A      0.516713   419A      0.516846   420A      0.517261  
     421A      0.521587   422A      0.521831   423A      0.523655  
     424A      0.524113   425A      0.525481   426A      0.527685  
     427A      0.527723   428A      0.528471   429A      0.529815  
     430A      0.535025   431A      0.535564   432A      0.537652  
     433A      0.539995   434A      0.541457   435A      0.542004  
     436A      0.542166   437A      0.542922   438A      0.545206  
     439A      0.546315   440A      0.549963   441A      0.550592  
     442A      0.553627   443A      0.555140   444A      0.559013  
     445A      0.559658   446A      0.559789   447A      0.560298  
     448A      0.570140   449A      0.570257   450A      0.570845  
     451A      0.574972   452A      0.575486   453A      0.583160  
     454A      0.583386   455A      0.584109   456A      0.584594  
     457A      0.588174   458A      0.594628   459A      0.595769  
     460A      0.601314   461A      0.601379   462A      0.603948  
     463A      0.604736   464A      0.605405   465A      0.606425  
     466A      0.607027   467A      0.607203   468A      0.611440  
     469A      0.615163   470A      0.615241   471A      0.615612  
     472A      0.616092   473A      0.617625   474A      0.621550  
     475A      0.624925   476A      0.625180   477A      0.647269  
     478A      0.647404   479A      0.650977   480A      0.654462  
     481A      0.654573   482A      0.666965   483A      0.672837  
     484A      0.672953   485A      0.681063   486A      0.681310  
     487A      0.681560   488A      0.681729   489A      0.699179  
     490A      0.699389   491A      0.702238   492A      0.702515  
     493A      0.707262   494A      0.707330   495A      0.711426  
     496A      0.724132   497A      0.724318   498A      0.724749  
     499A      0.732729   500A      0.732732   501A      0.734254  
     502A      0.738141   503A      0.742372   504A      0.744841  
     505A      0.771219   506A      0.771386   507A      0.788700  
     508A      0.795504   509A      0.798449   510A      0.798612  
     511A      0.798714   512A      0.798812   513A      0.811897  
     514A      0.811927   515A      0.818646   516A      0.821526  
     517A      0.831103   518A      0.846003   519A      0.851745  
     520A      0.851933   521A      0.860461   522A      0.862730  
     523A      0.863803   524A      0.863911   525A      0.868918  
     526A      0.870009   527A      0.878498   528A      0.878822  
     529A      0.882021   530A      0.882333   531A      0.882697  
     532A      0.890570   533A      0.896282   534A      0.898396  
     535A      0.901407   536A      0.909767   537A      0.909969  
     538A      0.915372   539A      0.919983   540A      0.920115  
     541A      0.924227   542A      0.925721   543A      0.926939  
     544A      0.929713   545A      0.930968   546A      0.931020  
     547A      0.932341   548A      0.934390   549A      0.934835  
     550A      0.938217   551A      0.943437   552A      0.943618  
     553A      0.949129   554A      0.952132   555A      0.952491  
     556A      0.953349   557A      0.954569   558A      0.962482  
     559A      0.963024   560A      0.965546   561A      0.966130  
     562A      0.967127   563A      0.967857   564A      0.972085  
     565A      0.975791   566A      0.976031   567A      0.976596  
     568A      0.981651   569A      0.987398   570A      0.987553  
     571A      0.988054   572A      0.990676   573A      0.990795  
     574A      0.998989   575A      0.999130   576A      1.000285  
     577A      1.000505   578A      1.011832   579A      1.011996  
     580A      1.012907   581A      1.023222   582A      1.023423  
     583A      1.027017   584A      1.027372   585A      1.028398  
     586A      1.028476   587A      1.032736   588A      1.033776  
     589A      1.037335   590A      1.043313   591A      1.043362  
     592A      1.047237   593A      1.054516   594A      1.054579  
     595A      1.060847   596A      1.068642   597A      1.068762  
     598A      1.069386   599A      1.071936   600A      1.071984  
     601A      1.087024   602A      1.087188   603A      1.091648  
     604A      1.091877   605A      1.093436   606A      1.093515  
     607A      1.093665   608A      1.097921   609A      1.098068  
     610A      1.100092   611A      1.100221   612A      1.101374  
     613A      1.103071   614A      1.104773   615A      1.104905  
     616A      1.108323   617A      1.108414   618A      1.115280  
     619A      1.117478   620A      1.119030   621A      1.119670  
     622A      1.124833   623A      1.125264   624A      1.129373  
     625A      1.131408   626A      1.131598   627A      1.135020  
     628A      1.137201   629A      1.138609   630A      1.141004  
     631A      1.142190   632A      1.142371   633A      1.144748  
     634A      1.145085   635A      1.146256   636A      1.158141  
     637A      1.159119   638A      1.159164   639A      1.160243  
     640A      1.170773   641A      1.170822   642A      1.175233  
     643A      1.176087   644A      1.179238   645A      1.180572  
     646A      1.182915   647A      1.183005   648A      1.188900  
     649A      1.193203   650A      1.193314   651A      1.197724  
     652A      1.199108   653A      1.199146   654A      1.200863  
     655A      1.201230   656A      1.210070   657A      1.219868  
     658A      1.228282   659A      1.231097   660A      1.234443  
     661A      1.234602   662A      1.238630   663A      1.240764  
     664A      1.240976   665A      1.249590   666A      1.250364  
     667A      1.255701   668A      1.255820   669A      1.265697  
     670A      1.273035   671A      1.273058   672A      1.276466  
     673A      1.278091   674A      1.278140   675A      1.290028  
     676A      1.292038   677A      1.292311   678A      1.311508  
     679A      1.311938   680A      1.316564   681A      1.316658  
     682A      1.318390   683A      1.318510   684A      1.319474  
     685A      1.319632   686A      1.327592   687A      1.331557  
     688A      1.333683   689A      1.347364   690A      1.348417  
     691A      1.349193   692A      1.349412   693A      1.352469  
     694A      1.353487   695A      1.353883   696A      1.356030  
     697A      1.359781   698A      1.363510   699A      1.364165  
     700A      1.364759   701A      1.369304   702A      1.373961  
     703A      1.374346   704A      1.377011   705A      1.379940  
     706A      1.385605   707A      1.385712   708A      1.389290  
     709A      1.395257   710A      1.396716   711A      1.398260  
     712A      1.399731   713A      1.405047   714A      1.410961  
     715A      1.410979   716A      1.413903   717A      1.415013  
     718A      1.415206   719A      1.415749   720A      1.422596  
     721A      1.422883   722A      1.434204   723A      1.446795  
     724A      1.453399   725A      1.459388   726A      1.459458  
     727A      1.464279   728A      1.464381   729A      1.466889  
     730A      1.467139   731A      1.475934   732A      1.476270  
     733A      1.480731   734A      1.481489   735A      1.485282  
     736A      1.486178   737A      1.490440   738A      1.491326  
     739A      1.491405   740A      1.494660   741A      1.494709  
     742A      1.495118   743A      1.503111   744A      1.503525  
     745A      1.505989   746A      1.520153   747A      1.520515  
     748A      1.529470   749A      1.529962   750A      1.571739  
     751A      1.571833   752A      1.577338   753A      1.577361  
     754A      1.583537   755A      1.608489   756A      1.631259  
     757A      1.634581   758A      1.638167   759A      1.638594  
     760A      1.655705   761A      1.655981   762A      1.656469  
     763A      1.665430   764A      1.665476   765A      1.665541  
     766A      1.670628   767A      1.670836   768A      1.675025  
     769A      1.678398   770A      1.678666   771A      1.687419  
     772A      1.687727   773A      1.695725   774A      1.695817  
     775A      1.699902   776A      1.699947   777A      1.699995  
     778A      1.700642   779A      1.705551   780A      1.716637  
     781A      1.716700   782A      1.723002   783A      1.731844  
     784A      1.731946   785A      1.733246   786A      1.733278  
     787A      1.733363   788A      1.737519   789A      1.742678  
     790A      1.742737   791A      1.751497   792A      1.752468  
     793A      1.754530   794A      1.754608   795A      1.757225  
     796A      1.761622   797A      1.761706   798A      1.770866  
     799A      1.770905   800A      1.797425   801A      1.807655  
     802A      1.814771   803A      1.814809   804A      1.815032  
     805A      1.817093   806A      1.832246   807A      1.832261  
     808A      1.846933   809A      1.846945   810A      1.871382  
     811A      1.871501   812A      1.871602   813A      1.873900  
     814A      1.880988   815A      1.881074   816A      1.886371  
     817A      1.886472   818A      1.891800   819A      1.898616  
     820A      1.898990   821A      1.915441   822A      1.915511  
     823A      1.916088   824A      1.916482   825A      1.919074  
     826A      1.924114   827A      1.927729   828A      1.934104  
     829A      1.936253   830A      1.936280   831A      1.951860  
     832A      1.951931   833A      1.952086   834A      1.953833  
     835A      1.957323   836A      1.957415   837A      1.964603  
     838A      1.964745   839A      1.968940   840A      1.969283  
     841A      1.973398   842A      1.973543   843A      1.975086  
     844A      1.977731   845A      1.977809   846A      1.994258  
     847A      1.996825   848A      1.997025   849A      1.997467  
     850A      2.000186   851A      2.000212   852A      2.001181  
     853A      2.002381   854A      2.004513   855A      2.010133  
     856A      2.010189   857A      2.010392   858A      2.011116  
     859A      2.013684   860A      2.024836   861A      2.031400  
     862A      2.031895   863A      2.037786   864A      2.039991  
     865A      2.040536   866A      2.045481   867A      2.052574  
     868A      2.053590   869A      2.053670   870A      2.058237  
     871A      2.062348   872A      2.067562   873A      2.067729  
     874A      2.082986   875A      2.083964   876A      2.085543  
     877A      2.085638   878A      2.086074   879A      2.086765  
     880A      2.086858   881A      2.103433   882A      2.107086  
     883A      2.107475   884A      2.113401   885A      2.114020  
     886A      2.115414   887A      2.115670   888A      2.123868  
     889A      2.124342   890A      2.126562   891A      2.127171  
     892A      2.127489   893A      2.131617   894A      2.131904  
     895A      2.135878   896A      2.138129   897A      2.140493  
     898A      2.141339   899A      2.145562   900A      2.147986  
     901A      2.149254   902A      2.150833   903A      2.151833  
     904A      2.153888   905A      2.155964   906A      2.156074  
     907A      2.162303   908A      2.163717   909A      2.163820  
     910A      2.166193   911A      2.166489   912A      2.168066  
     913A      2.169828   914A      2.174299   915A      2.174448  
     916A      2.176464   917A      2.176680   918A      2.181286  
     919A      2.181629   920A      2.189272   921A      2.190018  
     922A      2.190698   923A      2.190767   924A      2.198221  
     925A      2.198236   926A      2.210885   927A      2.216049  
     928A      2.216092   929A      2.218480   930A      2.218552  
     931A      2.227813   932A      2.233555   933A      2.233631  
     934A      2.244647   935A      2.244970   936A      2.247780  
     937A      2.248539   938A      2.252831   939A      2.252919  
     940A      2.254994   941A      2.275092   942A      2.276743  
     943A      2.276786   944A      2.282818   945A      2.284530  
     946A      2.284714   947A      2.286018   948A      2.297031  
     949A      2.297331   950A      2.298287   951A      2.298717  
     952A      2.301353   953A      2.314331   954A      2.314462  
     955A      2.325302   956A      2.325322   957A      2.326723  
     958A      2.326778   959A      2.334922   960A      2.355009  
     961A      2.361653   962A      2.366377   963A      2.368120  
     964A      2.376316   965A      2.378428   966A      2.387080  
     967A      2.387853   968A      2.387938   969A      2.390240  
     970A      2.406755   971A      2.407359   972A      2.407883  
     973A      2.408051   974A      2.422408   975A      2.422512  
     976A      2.431631   977A      2.434711   978A      2.470615  
     979A      2.479656   980A      2.479841   981A      2.479845  
     982A      2.491363   983A      2.497074   984A      2.497151  
     985A      2.525713   986A      2.527746   987A      2.527954  
     988A      2.540519   989A      2.540619   990A      2.557781  
     991A      2.573905   992A      2.585102   993A      2.585582  
     994A      2.597982   995A      2.600133   996A      2.600300  
     997A      2.608362   998A      2.608399   999A      2.611307  
    1000A      2.615234  1001A      2.615242  1002A      2.628619  
    1003A      2.628655  1004A      2.628865  1005A      2.629414  
    1006A      2.641240  1007A      2.641393  1008A      2.643046  
    1009A      2.645115  1010A      2.645382  1011A      2.660904  
    1012A      2.678143  1013A      2.678196  1014A      2.680635  
    1015A      2.687283  1016A      2.687838  1017A      2.695844  
    1018A      2.695909  1019A      2.705280  1020A      2.705617  
    1021A      2.711821  1022A      2.737813  1023A      2.738906  
    1024A      2.739085  1025A      2.740832  1026A      2.758643  
    1027A      2.758959  1028A      2.769070  1029A      2.769115  
    1030A      2.774484  1031A      2.774529  1032A      2.778035  
    1033A      2.778277  1034A      2.793367  1035A      2.806953  
    1036A      2.807514  1037A      2.833280  1038A      2.850476  
    1039A      2.850599  1040A      2.871068  1041A      2.882965  
    1042A      2.883412  1043A      2.906799  1044A      2.906893  
    1045A      2.912913  1046A      2.915117  1047A      2.915462  
    1048A      2.915539  1049A      2.921950  1050A      2.946119  
    1051A      2.948262  1052A      2.950823  1053A      2.971381  
    1054A      2.971467  1055A      2.978543  1056A      2.988326  
    1057A      2.988469  1058A      3.004726  1059A      3.004791  
    1060A      3.017576  1061A      3.062284  1062A      3.062763  
    1063A      3.066012  1064A      3.083804  1065A      3.120396  
    1066A      3.120474  1067A      3.126167  1068A      3.126353  
    1069A      3.164262  1070A      3.165030  1071A      3.181951  
    1072A      3.184537  1073A      3.184920  1074A      3.192454  
    1075A      3.201132  1076A      3.201210  1077A      3.201270  
    1078A      3.203782  1079A      3.203791  1080A      3.212534  
    1081A      3.212990  1082A      3.220601  1083A      3.221036  
    1084A      3.246083  1085A      3.265587  1086A      3.269614  
    1087A      3.274364  1088A      3.292511  1089A      3.328674  
    1090A      3.332569  1091A      3.332695  1092A      3.337457  
    1093A      3.337735  1094A      3.472535  1095A      3.472958  
    1096A      3.501789  1097A      3.537944  1098A      3.540648  
    1099A      3.605954  1100A      3.634013  1101A      3.635937  
    1102A      3.650632  1103A      3.682197  1104A      3.684219  
    1105A      3.718447  1106A      3.723039  1107A      3.825265  
    1108A      3.839218  1109A      3.840153  1110A      3.925761  
    1111A      3.925772  1112A      3.968508  1113A      3.968651  
    1114A      4.033250  1115A      4.067271  1116A      4.090452  
    1117A      4.102394  1118A      4.138652  1119A      4.175284  
    1120A      4.175497  1121A      4.175797  1122A      4.203071  
    1123A      4.203356  1124A      4.203685  1125A      4.204033  
    1126A      4.204238  1127A      4.236034  1128A      4.236047  
    1129A      4.236551  1130A      4.450517  1131A      4.450850  
    1132A      4.451027  1133A      4.650220  1134A      4.651302  
    1135A      4.651560  1136A      4.751951  1137A      4.787501  
    1138A      4.788148  

    Final Occupation by Irrep:
              A 
    DOCC [   192 ]
    NA   [   192 ]
    NB   [   192 ]

  @DF-RHF Final Energy: -2478.65823661443119

   => Energetics <=

    Nuclear Repulsion Energy =           7463.2803138989293075
    One-Electron Energy =              -18277.1212753658146539
    Two-Electron Energy =                8335.1827248524550669
    Total Energy =                      -2478.6582366144302796

Computation Completed


Properties will be evaluated at   0.000000,   0.000000,   0.000000 [a0]

Properties computed using the SCF density matrix


 Multipole Moments:

 ------------------------------------------------------------------------------------
     Multipole            Electronic (a.u.)      Nuclear  (a.u.)        Total (a.u.)
 ------------------------------------------------------------------------------------

 L = 1.  Multiply by 2.5417464519 to convert [e a0] to [Debye]
 Dipole X            :         -0.0001771           -0.0000160           -0.0001932
 Dipole Y            :          0.0013001           -0.0001716            0.0011284
 Dipole Z            :         34.5809668          -46.5903603          -12.0093935
 Magnitude           :                                                   12.0093935

 ------------------------------------------------------------------------------------

*** tstop() called on d-6-11-4 at Mon Jan 22 12:15:38 2024
Module time:
	user time   =    3424.10 seconds =      57.07 minutes
	system time =      88.40 seconds =       1.47 minutes
	total time  =        363 seconds =       6.05 minutes
Total time:
	user time   =    3424.10 seconds =      57.07 minutes
	system time =      88.40 seconds =       1.47 minutes
	total time  =        363 seconds =       6.05 minutes

  //>>>>>>>>>>>>>>>>>>>>>>>>>>>>>>>>>>>//
  //            Monomer A HF           //
  //<<<<<<<<<<<<<<<<<<<<<<<<<<<<<<<<<<<//

   => Libint2 <=

    Primary   basis highest AM E, G, H:  7, 7, 4
    Auxiliary basis highest AM E, G, H:  7, 7, 5
    Onebody   basis highest AM E, G, H:  7, 7, 5
    Solid Harmonics ordering:            gaussian

*** tstart() called on d-6-11-4
*** at Mon Jan 22 12:15:38 2024

   => Loading Basis Set <=

    Name: JUN-CC-PVDZ
    Role: ORBITAL
    Keyword: BASIS
    atoms 1     entry B          line   130 file /home/gridsan/tfroembgen/.conda/envs/psi4test/share/psi4/basis/jun-cc-pvdz.gbs 
    atoms 2-5   entry F          line   266 file /home/gridsan/tfroembgen/.conda/envs/psi4test/share/psi4/basis/jun-cc-pvdz.gbs 
    atoms 6-59  entry C          line   164 file /home/gridsan/tfroembgen/.conda/envs/psi4test/share/psi4/basis/jun-cc-pvdz.gbs 
    atoms 60-77 entry H          line    36 file /home/gridsan/tfroembgen/.conda/envs/psi4test/share/psi4/basis/jun-cc-pvdz.gbs 


         ---------------------------------------------------------
                                   SCF
               by Justin Turney, Rob Parrish, Andy Simmonett
                          and Daniel G. A. Smith
                              RHF Reference
                       12 Threads,  30517 MiB Core
         ---------------------------------------------------------

  ==> Geometry <==

    Molecular point group: c1
    Full point group: C1

    Geometry (in Angstrom), charge = -1, multiplicity = 1:

       Center              X                  Y                   Z               Mass       
    ------------   -----------------  -----------------  -----------------  -----------------
         B           -0.000046449334     0.000336519434     6.722046790312    11.009305360000
         F           -1.153597449334     0.000047519434     7.537693790312    18.998403162730
         F            1.153660550666    -0.000581480566     7.537693790312    18.998403162730
         F           -0.000019449334    -1.153637480566     5.906412790312    18.998403162730
         F           -0.000019449334     1.153977519434     5.906412790312    18.998403162730
      Gh(C)           1.225311925931     0.707538180353    -0.871809582405    12.000000000000
      Gh(C)           1.225323886559    -0.707539003137    -0.884140391975    12.000000000000
      Gh(C)          -0.000006123424     1.414965805524    -0.884674015496    12.000000000000
      Gh(C)           2.456448784457     1.418327778612    -0.868922725005    12.000000000000
      Gh(C)           0.000010857787    -1.414976607201    -0.874474458171    12.000000000000
      Gh(C)          -1.225300918401     0.707545265418    -0.869558062082    12.000000000000
      Gh(C)           2.456437785828    -1.418323412447    -0.886385548832    12.000000000000
      Gh(C)          -0.000001302470     2.836800922715    -0.887077565630    12.000000000000
      Gh(C)           3.681826727978     0.709317847435    -0.886036759034    12.000000000000
      Gh(C)           2.455120079373     2.834223552923    -0.886139315995    12.000000000000
      Gh(C)           3.681821135726    -0.709333947995    -0.869964275016    12.000000000000
      Gh(C)          -1.225313568180    -0.707527624110    -0.883067630548    12.000000000000
      Gh(C)           1.226699611710     3.543469375428    -0.869780243085    12.000000000000
      Gh(C)           0.000004815365    -2.836782247802    -0.869626290550    12.000000000000
      Gh(C)          -2.456436002341     1.418316809719    -0.869522666236    12.000000000000
      Gh(C)           2.455123448287    -2.834230137155    -0.870116183383    12.000000000000
      Gh(C)          -1.226714334082     3.543468955184    -0.869676909866    12.000000000000
      Gh(C)           4.914517325709     1.427172763923    -0.879556076004    12.000000000000
      Gh(C)           3.693150221984     3.542795183979    -0.879506276368    12.000000000000
      Gh(C)          -2.456437569560    -1.418313389406    -0.886410586956    12.000000000000
      Gh(C)           1.226704872451    -3.543474350473    -0.885750373835    12.000000000000
      Gh(C)          -2.455125368000     2.834216554068    -0.886132939648    12.000000000000
      Gh(C)           4.914524411290    -1.427187018510    -0.876583333270    12.000000000000
      Gh(C)           1.221424644206     4.970133956694    -0.876444899010    12.000000000000
      Gh(C)           4.893008259828     2.825187891460    -0.878339407646    12.000000000000
      Gh(C)          -1.226696977981    -3.543471105643    -0.885483169425    12.000000000000
      Gh(C)          -3.681818946018     0.709324858166    -0.886024078554    12.000000000000
      Gh(C)           3.693147131658    -3.542801449957    -0.876465442709    12.000000000000
      Gh(C)          -1.221432221486     4.970128189296    -0.876261403638    12.000000000000
      Gh(C)           6.134771003434     0.680547838539    -0.878786301455    12.000000000000
      Gh(C)           3.656788911118     4.972953135001    -0.878597638586    12.000000000000
      Gh(C)          -2.455126877226    -2.834215201627    -0.870360541181    12.000000000000
      Gh(C)          -3.681819148553    -0.709325812035    -0.869846653437    12.000000000000
      Gh(C)           4.893012648421    -2.825200214198    -0.877728255750    12.000000000000
      Gh(C)          -0.000001042605     5.650447257466    -0.877492712344    12.000000000000
      Gh(C)           6.134775142840    -0.680554962641    -0.877520980939    12.000000000000
      Gh(C)           2.478131513363     5.653576642765    -0.877308858936    12.000000000000
      Gh(C)           1.221422435245    -4.970127163499    -0.879244396033    12.000000000000
      Gh(C)          -3.693162353457     3.542796845626    -0.879340768909    12.000000000000
      Gh(C)          -1.221428490437    -4.970118412162    -0.879357157866    12.000000000000
      Gh(C)          -4.914521777434     1.427175338429    -0.879479130997    12.000000000000
      Gh(C)           3.656787050187    -4.972955334806    -0.877147138052    12.000000000000
      Gh(C)          -2.478138499598     5.653574313962    -0.877024333927    12.000000000000
      Gh(C)          -3.693141708056    -3.542790327545    -0.876581568865    12.000000000000
      Gh(C)          -4.914512452545    -1.427181108594    -0.876548636096    12.000000000000
      Gh(C)          -0.000005978418    -5.650438395580    -0.877888216466    12.000000000000
      Gh(C)          -4.893020453593     2.825188490353    -0.878349489506    12.000000000000
      Gh(C)           2.478126023806    -5.653573652455    -0.878237738844    12.000000000000
      Gh(C)          -3.656798679750     4.972956073475    -0.878420958211    12.000000000000
      Gh(C)          -4.892999448349    -2.825191875626    -0.877882291448    12.000000000000
      Gh(C)          -2.478128467575    -5.653566278573    -0.878512926491    12.000000000000
      Gh(C)          -6.134770472823     0.680548657690    -0.878811853157    12.000000000000
      Gh(C)          -3.656788802681    -4.972944131537    -0.877361425868    12.000000000000
      Gh(C)          -6.134765012405    -0.680554024048    -0.877541456734    12.000000000000
      Gh(H)           5.835288526324     3.369275786388    -0.873980081983     1.007825032230
      Gh(H)           7.073859203255     1.228217140333    -0.878324658061     1.007825032230
      Gh(H)           4.600663294682     5.512380693887    -0.878092437834     1.007825032230
      Gh(H)           5.835283417813    -3.369306165295    -0.882182723065     1.007825032230
      Gh(H)          -0.000012120798     6.738530565570    -0.881841957352     1.007825032230
      Gh(H)           7.073861202338    -1.228227051310    -0.878029719033     1.007825032230
      Gh(H)           2.473313762307     6.740684182828    -0.877775579866     1.007825032230
      Gh(H)           4.600668521889    -5.512376237742    -0.877557135220     1.007825032230
      Gh(H)          -2.473318650030     6.740681611040    -0.877474233241     1.007825032230
      Gh(H)          -0.000010237720    -6.738528285018    -0.873358531481     1.007825032230
      Gh(H)          -5.835301883836     3.369270841730    -0.873844059835     1.007825032230
      Gh(H)           2.473307954339    -6.740685482995    -0.877667408419     1.007825032230
      Gh(H)          -4.600674810700     5.512377918037    -0.877927109510     1.007825032230
      Gh(H)          -5.835279476327    -3.369289072346    -0.882462028946     1.007825032230
      Gh(H)          -2.473300316932    -6.740679186706    -0.878116724963     1.007825032230
      Gh(H)          -7.073857736260     1.228220364274    -0.878408649542     1.007825032230
      Gh(H)          -4.600673755577    -5.512362778353    -0.877729443243     1.007825032230
      Gh(H)          -7.073856903901    -1.228220740543    -0.878124575500     1.007825032230

  Running in c1 symmetry.

  Rotational constants: A =      0.00139  B =      0.00139  C =      0.00110 [cm^-1]
  Rotational constants: A =     41.60600  B =     41.60187  C =     33.02250 [MHz]
  Nuclear repulsion =  178.879482610381274

  Charge       = -1
  Multiplicity = 1
  Electrons    = 42
  Nalpha       = 21
  Nbeta        = 21

  ==> Algorithm <==

  SCF Algorithm Type is DF.
  DIIS enabled.
  MOM disabled.
  Fractional occupation disabled.
  Guess Type is SAD.
  Energy threshold   = 1.00e-08
  Density threshold  = 1.00e-08
  Integral threshold = 1.00e-12

  ==> Primary Basis <==

  Basis Set: JUN-CC-PVDZ
    Blend: JUN-CC-PVDZ
    Number of shells: 526
    Number of basis functions: 1152
    Number of Cartesian functions: 1211
    Spherical Harmonics?: true
    Max angular momentum: 2

   => Loading Basis Set <=

    Name: (JUN-CC-PVDZ AUX)
    Role: JKFIT
    Keyword: DF_BASIS_SCF
    atoms 1     entry B          line    90 file /home/gridsan/tfroembgen/.conda/envs/psi4test/share/psi4/basis/jun-cc-pvdz-jkfit.gbs 
    atoms 2-5   entry F          line   314 file /home/gridsan/tfroembgen/.conda/envs/psi4test/share/psi4/basis/jun-cc-pvdz-jkfit.gbs 
    atoms 6-59  entry C          line   146 file /home/gridsan/tfroembgen/.conda/envs/psi4test/share/psi4/basis/jun-cc-pvdz-jkfit.gbs 
    atoms 60-77 entry H          line    70 file /home/gridsan/tfroembgen/.conda/envs/psi4test/share/psi4/basis/jun-cc-pvdz-jkfit.gbs 

  ==> Integral Setup <==

  ==> DiskDFJK: Density-Fitted J/K Matrices <==

    J tasked:                  Yes
    K tasked:                  Yes
    wK tasked:                  No
    OpenMP threads:             12
    Integrals threads:          12
    Memory [MiB]:            22888
    Algorithm:                Core
    Integral Cache:           LOAD
    Schwarz Cutoff:          1E-12
    Fitting Condition:       1E-10

   => Auxiliary Basis Set <=

  Basis Set: (JUN-CC-PVDZ AUX)
    Blend: JUN-CC-PVDZ-JKFIT
    Number of shells: 1755
    Number of basis functions: 5075
    Number of Cartesian functions: 5819
    Spherical Harmonics?: true
    Max angular momentum: 3

  Minimum eigenvalue in the overlap matrix is 8.3987332139E-10.
  Reciprocal condition number of the overlap matrix is 3.7555996638E-11.
    Using canonical orthogonalization.
  Overall, 14 of 1152 possible MOs eliminated.


  ==> Pre-Iterations <==

  SCF Guess: Superposition of Atomic Densities via on-the-fly atomic UHF (no occupation information).

   -------------------------
    Irrep   Nso     Nmo    
   -------------------------
     A       1152    1138 
   -------------------------
    Total    1152    1138
   -------------------------

  ==> Iterations <==

                           Total Energy        Delta E     RMS |[F,P]|

   @DF-RHF iter SAD:  -421.23044416499749   -4.21230e+02   0.00000e+00 
   @DF-RHF iter   1:  -422.64971141199067   -1.41927e+00   5.29786e-04 ADIIS/DIIS
   @DF-RHF iter   2:  -422.73247924666879   -8.27678e-02   3.22860e-04 ADIIS/DIIS
   @DF-RHF iter   3:  -422.77105099145456   -3.85717e-02   1.73774e-05 DIIS
   @DF-RHF iter   4:  -422.77141132040600   -3.60329e-04   2.75004e-06 DIIS
   @DF-RHF iter   5:  -422.77141995432009   -8.63391e-06   7.00377e-07 DIIS
   @DF-RHF iter   6:  -422.77142050968723   -5.55367e-07   1.44525e-07 DIIS
   @DF-RHF iter   7:  -422.77142053055843   -2.08712e-08   1.43358e-08 DIIS
   @DF-RHF iter   8:  -422.77142053076699   -2.08559e-10   4.74606e-09 DIIS
  Energy and wave function converged.


  ==> Post-Iterations <==

    Orbital Energies [Eh]
    ---------------------

    Doubly Occupied:                                                      

       1A    -26.067093     2A    -26.067026     3A    -26.066992  
       4A    -26.066913     5A     -7.539298     6A     -1.410959  
       7A     -1.351246     8A     -1.351192     9A     -1.351059  
      10A     -0.602241    11A     -0.528450    12A     -0.528419  
      13A     -0.528361    14A     -0.447303    15A     -0.447261  
      16A     -0.408464    17A     -0.408428    18A     -0.408369  
      19A     -0.384991    20A     -0.384952    21A     -0.384905  

    Virtual:                                                              

      22A      0.075108    23A      0.077534    24A      0.077674  
      25A      0.086108    26A      0.086111    27A      0.097050  
      28A      0.099111    29A      0.099294    30A      0.114900  
      31A      0.115002    32A      0.115384    33A      0.115398  
      34A      0.122393    35A      0.130452    36A      0.130812  
      37A      0.133082    38A      0.133093    39A      0.133984  
      40A      0.133999    41A      0.140687    42A      0.143583  
      43A      0.143592    44A      0.153823    45A      0.154989  
      46A      0.155105    47A      0.155524    48A      0.160821  
      49A      0.164149    50A      0.167054    51A      0.167337  
      52A      0.167598    53A      0.173070    54A      0.173612  
      55A      0.176497    56A      0.176500    57A      0.177963  
      58A      0.178393    59A      0.183187    60A      0.184316  
      61A      0.184404    62A      0.186575    63A      0.186600  
      64A      0.190243    65A      0.190247    66A      0.196060  
      67A      0.196116    68A      0.197498    69A      0.199017  
      70A      0.200306    71A      0.202283    72A      0.202411  
      73A      0.204859    74A      0.205799    75A      0.207554  
      76A      0.207596    77A      0.209086    78A      0.211288  
      79A      0.213875    80A      0.213883    81A      0.219611  
      82A      0.219678    83A      0.220860    84A      0.223686  
      85A      0.231130    86A      0.232544    87A      0.232563  
      88A      0.232577    89A      0.233064    90A      0.233836  
      91A      0.234185    92A      0.242732    93A      0.243347  
      94A      0.243881    95A      0.245834    96A      0.247114  
      97A      0.250525    98A      0.250598    99A      0.253298  
     100A      0.256986   101A      0.257003   102A      0.258176  
     103A      0.258237   104A      0.261382   105A      0.261461  
     106A      0.262166   107A      0.262293   108A      0.271967  
     109A      0.272027   110A      0.273138   111A      0.277177  
     112A      0.277228   113A      0.281030   114A      0.281898  
     115A      0.282058   116A      0.283085   117A      0.288046  
     118A      0.288120   119A      0.289056   120A      0.289106  
     121A      0.292478   122A      0.298798   123A      0.298982  
     124A      0.301978   125A      0.301992   126A      0.305505  
     127A      0.308837   128A      0.308869   129A      0.312142  
     130A      0.312278   131A      0.317353   132A      0.317398  
     133A      0.317760   134A      0.317795   135A      0.317964  
     136A      0.331004   137A      0.331030   138A      0.333893  
     139A      0.335091   140A      0.335096   141A      0.335171  
     142A      0.338472   143A      0.338494   144A      0.340042  
     145A      0.340070   146A      0.340592   147A      0.343283  
     148A      0.347378   149A      0.351720   150A      0.353997  
     151A      0.354258   152A      0.355717   153A      0.359034  
     154A      0.359807   155A      0.365094   156A      0.374408  
     157A      0.374541   158A      0.377496   159A      0.377546  
     160A      0.378090   161A      0.381855   162A      0.382063  
     163A      0.383936   164A      0.386367   165A      0.386559  
     166A      0.387109   167A      0.389444   168A      0.391635  
     169A      0.393792   170A      0.395534   171A      0.398289  
     172A      0.398861   173A      0.399899   174A      0.411036  
     175A      0.411193   176A      0.412330   177A      0.412801  
     178A      0.413250   179A      0.417230   180A      0.419934  
     181A      0.421742   182A      0.423053   183A      0.423408  
     184A      0.423506   185A      0.426423   186A      0.427289  
     187A      0.427397   188A      0.429267   189A      0.429524  
     190A      0.435462   191A      0.436079   192A      0.436621  
     193A      0.436772   194A      0.437763   195A      0.438398  
     196A      0.439834   197A      0.444812   198A      0.450789  
     199A      0.452313   200A      0.458964   201A      0.459330  
     202A      0.461644   203A      0.462096   204A      0.463386  
     205A      0.467550   206A      0.470573   207A      0.470681  
     208A      0.472914   209A      0.473393   210A      0.473794  
     211A      0.474894   212A      0.478632   213A      0.483165  
     214A      0.484495   215A      0.486806   216A      0.486833  
     217A      0.487491   218A      0.490409   219A      0.490496  
     220A      0.493736   221A      0.494764   222A      0.496905  
     223A      0.497042   224A      0.501627   225A      0.502534  
     226A      0.502641   227A      0.503228   228A      0.504117  
     229A      0.506403   230A      0.509513   231A      0.510756  
     232A      0.511378   233A      0.511632   234A      0.515343  
     235A      0.517032   236A      0.517974   237A      0.518512  
     238A      0.524829   239A      0.528150   240A      0.528665  
     241A      0.528777   242A      0.533538   243A      0.534397  
     244A      0.536721   245A      0.537515   246A      0.537562  
     247A      0.542766   248A      0.543256   249A      0.544856  
     250A      0.545560   251A      0.546081   252A      0.550365  
     253A      0.552758   254A      0.553561   255A      0.555695  
     256A      0.556085   257A      0.557064   258A      0.560712  
     259A      0.562007   260A      0.565104   261A      0.569160  
     262A      0.574504   263A      0.574840   264A      0.575988  
     265A      0.576754   266A      0.579683   267A      0.581308  
     268A      0.584483   269A      0.585658   270A      0.586425  
     271A      0.587045   272A      0.587989   273A      0.588221  
     274A      0.588608   275A      0.589373   276A      0.604188  
     277A      0.604431   278A      0.605725   279A      0.606752  
     280A      0.607683   281A      0.609421   282A      0.615141  
     283A      0.624958   284A      0.625315   285A      0.627122  
     286A      0.627680   287A      0.627894   288A      0.629299  
     289A      0.635498   290A      0.637266   291A      0.637684  
     292A      0.638152   293A      0.639878   294A      0.644523  
     295A      0.649904   296A      0.654160   297A      0.654368  
     298A      0.664304   299A      0.664385   300A      0.666902  
     301A      0.667305   302A      0.667358   303A      0.669476  
     304A      0.669860   305A      0.671454   306A      0.671604  
     307A      0.676716   308A      0.677175   309A      0.685103  
     310A      0.691752   311A      0.694538   312A      0.696670  
     313A      0.697163   314A      0.697623   315A      0.701753  
     316A      0.701932   317A      0.702018   318A      0.703471  
     319A      0.704382   320A      0.705351   321A      0.707037  
     322A      0.717840   323A      0.719438   324A      0.723084  
     325A      0.729553   326A      0.734420   327A      0.735216  
     328A      0.735613   329A      0.735651   330A      0.736762  
     331A      0.740633   332A      0.743189   333A      0.743921  
     334A      0.745957   335A      0.750941   336A      0.750982  
     337A      0.755647   338A      0.757433   339A      0.758987  
     340A      0.766262   341A      0.766694   342A      0.769314  
     343A      0.770793   344A      0.771204   345A      0.772361  
     346A      0.772668   347A      0.778853   348A      0.784679  
     349A      0.784716   350A      0.787495   351A      0.788158  
     352A      0.799108   353A      0.801920   354A      0.802003  
     355A      0.816070   356A      0.816091   357A      0.817753  
     358A      0.822904   359A      0.825822   360A      0.827294  
     361A      0.827345   362A      0.829093   363A      0.830357  
     364A      0.830602   365A      0.835624   366A      0.835894  
     367A      0.836045   368A      0.841094   369A      0.841207  
     370A      0.843937   371A      0.847416   372A      0.851390  
     373A      0.851448   374A      0.853331   375A      0.856377  
     376A      0.856439   377A      0.860552   378A      0.860688  
     379A      0.862434   380A      0.865062   381A      0.871744  
     382A      0.894291   383A      0.894335   384A      0.905242  
     385A      0.905298   386A      0.923052   387A      0.924242  
     388A      0.926697   389A      0.928278   390A      0.930014  
     391A      0.932172   392A      0.938673   393A      0.938738  
     394A      0.939885   395A      0.946640   396A      0.946921  
     397A      0.954832   398A      0.955291   399A      0.955329  
     400A      0.960897   401A      0.985636   402A      0.989387  
     403A      0.989401   404A      1.006073   405A      1.015619  
     406A      1.015655   407A      1.025742   408A      1.025774  
     409A      1.033798   410A      1.042040   411A      1.050475  
     412A      1.050518   413A      1.064037   414A      1.068612  
     415A      1.090793   416A      1.090846   417A      1.110109  
     418A      1.110172   419A      1.117323   420A      1.120096  
     421A      1.120108   422A      1.128725   423A      1.128734  
     424A      1.154161   425A      1.157224   426A      1.157294  
     427A      1.164083   428A      1.216012   429A      1.216053  
     430A      1.220698   431A      1.220846   432A      1.227231  
     433A      1.234682   434A      1.238276   435A      1.238342  
     436A      1.256158   437A      1.256208   438A      1.271763  
     439A      1.278609   440A      1.278656   441A      1.284832  
     442A      1.291647   443A      1.344402   444A      1.344525  
     445A      1.349466   446A      1.356512   447A      1.356525  
     448A      1.359083   449A      1.365583   450A      1.365601  
     451A      1.368210   452A      1.379704   453A      1.379793  
     454A      1.388155   455A      1.390746   456A      1.420586  
     457A      1.431115   458A      1.431129   459A      1.478704  
     460A      1.505309   461A      1.505781   462A      1.523427  
     463A      1.523468   464A      1.528036   465A      1.529891  
     466A      1.530018   467A      1.533205   468A      1.543576  
     469A      1.544474   470A      1.607571   471A      1.616325  
     472A      1.616448   473A      1.619406   474A      1.620564  
     475A      1.628764   476A      1.631057   477A      1.633993  
     478A      1.636210   479A      1.685309   480A      1.697895  
     481A      1.700418   482A      1.710812   483A      1.713561  
     484A      1.721670   485A      1.726026   486A      1.726893  
     487A      1.745898   488A      1.746699   489A      1.747958  
     490A      1.750112   491A      1.761753   492A      1.802395  
     493A      1.803655   494A      1.803875   495A      1.804730  
     496A      1.805924   497A      1.812863   498A      1.816130  
     499A      1.817040   500A      1.818311   501A      1.826045  
     502A      1.828738   503A      1.840001   504A      1.849528  
     505A      1.850245   506A      1.855206   507A      1.855303  
     508A      1.860905   509A      1.869254   510A      1.873679  
     511A      1.884884   512A      1.885682   513A      1.888496  
     514A      1.888635   515A      1.888887   516A      1.890247  
     517A      1.893568   518A      1.893989   519A      1.898131  
     520A      1.899437   521A      1.901607   522A      1.904372  
     523A      1.911155   524A      1.918789   525A      1.919361  
     526A      1.930031   527A      1.933632   528A      1.933888  
     529A      1.936004   530A      1.936911   531A      1.942883  
     532A      1.947495   533A      1.948586   534A      1.950413  
     535A      1.950756   536A      1.950973   537A      1.966057  
     538A      1.967167   539A      1.967405   540A      1.968816  
     541A      1.969094   542A      1.972985   543A      1.979540  
     544A      1.979822   545A      1.987218   546A      1.987939  
     547A      1.990286   548A      1.992654   549A      1.993013  
     550A      1.994756   551A      1.996696   552A      1.998774  
     553A      2.002848   554A      2.003438   555A      2.006698  
     556A      2.010665   557A      2.028042   558A      2.028843  
     559A      2.029094   560A      2.030205   561A      2.031155  
     562A      2.034300   563A      2.035687   564A      2.039087  
     565A      2.047043   566A      2.047189   567A      2.052654  
     568A      2.055573   569A      2.057557   570A      2.057665  
     571A      2.061846   572A      2.062103   573A      2.062183  
     574A      2.068194   575A      2.080088   576A      2.080516  
     577A      2.089772   578A      2.090019   579A      2.118550  
     580A      2.126491   581A      2.126736   582A      2.131647  
     583A      2.136309   584A      2.137968   585A      2.138606  
     586A      2.139947   587A      2.141828   588A      2.142479  
     589A      2.148662   590A      2.154405   591A      2.154817  
     592A      2.158890   593A      2.159448   594A      2.175149  
     595A      2.175227   596A      2.179191   597A      2.180969  
     598A      2.181152   599A      2.188366   600A      2.188450  
     601A      2.198560   602A      2.199080   603A      2.199177  
     604A      2.201762   605A      2.201931   606A      2.206355  
     607A      2.206508   608A      2.208124   609A      2.208768  
     610A      2.209211   611A      2.209486   612A      2.209760  
     613A      2.214225   614A      2.214316   615A      2.220690  
     616A      2.220747   617A      2.220898   618A      2.224149  
     619A      2.224556   620A      2.224657   621A      2.229206  
     622A      2.229671   623A      2.229856   624A      2.230190  
     625A      2.232335   626A      2.234810   627A      2.234986  
     628A      2.235732   629A      2.236356   630A      2.238816  
     631A      2.238996   632A      2.242315   633A      2.242656  
     634A      2.244726   635A      2.247127   636A      2.247476  
     637A      2.250755   638A      2.252252   639A      2.252642  
     640A      2.252765   641A      2.254245   642A      2.275689  
     643A      2.275771   644A      2.297508   645A      2.299102  
     646A      2.302808   647A      2.302859   648A      2.307431  
     649A      2.307612   650A      2.308663   651A      2.311967  
     652A      2.312052   653A      2.326658   654A      2.327414  
     655A      2.327657   656A      2.334254   657A      2.334370  
     658A      2.335317   659A      2.346200   660A      2.346240  
     661A      2.352538   662A      2.352676   663A      2.357871  
     664A      2.369891   665A      2.369995   666A      2.377489  
     667A      2.385858   668A      2.386027   669A      2.388873  
     670A      2.389009   671A      2.394186   672A      2.400999  
     673A      2.404283   674A      2.404443   675A      2.404485  
     676A      2.418870   677A      2.420063   678A      2.423616  
     679A      2.424324   680A      2.427593   681A      2.427785  
     682A      2.429925   683A      2.429963   684A      2.430682  
     685A      2.432616   686A      2.439255   687A      2.440097  
     688A      2.440268   689A      2.440688   690A      2.442549  
     691A      2.447979   692A      2.454986   693A      2.455155  
     694A      2.461726   695A      2.467884   696A      2.468920  
     697A      2.470654   698A      2.470664   699A      2.477903  
     700A      2.478021   701A      2.478473   702A      2.483074  
     703A      2.483129   704A      2.492376   705A      2.494794  
     706A      2.495893   707A      2.497294   708A      2.508408  
     709A      2.508425   710A      2.515251   711A      2.515358  
     712A      2.524668   713A      2.526956   714A      2.530588  
     715A      2.530648   716A      2.536299   717A      2.545709  
     718A      2.546749   719A      2.546932   720A      2.561843  
     721A      2.561981   722A      2.566255   723A      2.566284  
     724A      2.575073   725A      2.584913   726A      2.587612  
     727A      2.595733   728A      2.595786   729A      2.600483  
     730A      2.603068   731A      2.607784   732A      2.607921  
     733A      2.608128   734A      2.608206   735A      2.614907  
     736A      2.620820   737A      2.620883   738A      2.625498  
     739A      2.633762   740A      2.638967   741A      2.640502  
     742A      2.640641   743A      2.665551   744A      2.665587  
     745A      2.681608   746A      2.685337   747A      2.685379  
     748A      2.692112   749A      2.692148   750A      2.693351  
     751A      2.693409   752A      2.694383   753A      2.708166  
     754A      2.708513   755A      2.709357   756A      2.713817  
     757A      2.717691   758A      2.718098   759A      2.718533  
     760A      2.718655   761A      2.736918   762A      2.737014  
     763A      2.753208   764A      2.753356   765A      2.761615  
     766A      2.761933   767A      2.768932   768A      2.769290  
     769A      2.772742   770A      2.773999   771A      2.774196  
     772A      2.780027   773A      2.780103   774A      2.785165  
     775A      2.785281   776A      2.803111   777A      2.803293  
     778A      2.804971   779A      2.805048   780A      2.806998  
     781A      2.811264   782A      2.818093   783A      2.818226  
     784A      2.820370   785A      2.821174   786A      2.825974  
     787A      2.826754   788A      2.829163   789A      2.844609  
[...]
     709A      1.366295   710A      1.380070   711A      1.391365  
     712A      1.397881   713A      1.404028   714A      1.404145  
     715A      1.407926   716A      1.408062   717A      1.412237  
     718A      1.412330   719A      1.420046   720A      1.421620  
     721A      1.425161   722A      1.425858   723A      1.429530  
     724A      1.429570   725A      1.432002   726A      1.436325  
     727A      1.436372   728A      1.439372   729A      1.439606  
     730A      1.439925   731A      1.447947   732A      1.448218  
     733A      1.450499   734A      1.463484   735A      1.463646  
     736A      1.472815   737A      1.473047   738A      1.516478  
     739A      1.516553   740A      1.521219   741A      1.521225  
     742A      1.528776   743A      1.552340   744A      1.571037  
     745A      1.585234   746A      1.598402   747A      1.599537  
     748A      1.600174   749A      1.608575   750A      1.608628  
     751A      1.609168   752A      1.612888   753A      1.613073  
     754A      1.617230   755A      1.621495   756A      1.621784  
     757A      1.629953   758A      1.630447   759A      1.631967  
     760A      1.632296   761A      1.637902   762A      1.640075  
     763A      1.641067   764A      1.643518   765A      1.643629  
     766A      1.643709   767A      1.644078   768A      1.650031  
     769A      1.661010   770A      1.661153   771A      1.667419  
     772A      1.676265   773A      1.676337   774A      1.676742  
     775A      1.676762   776A      1.677011   777A      1.682364  
     778A      1.686600   779A      1.686660   780A      1.696038  
     781A      1.697365   782A      1.699337   783A      1.699383  
     784A      1.700693   785A      1.704745   786A      1.704810  
     787A      1.715709   788A      1.715745   789A      1.738485  
     790A      1.741669   791A      1.742353   792A      1.751383  
     793A      1.760272   794A      1.760281   795A      1.761060  
     796A      1.761734   797A      1.776731   798A      1.776748  
     799A      1.791479   800A      1.791491   801A      1.816482  
     802A      1.816542   803A      1.816648   804A      1.818058  
     805A      1.823980   806A      1.824665   807A      1.824744  
     808A      1.830773   809A      1.831081   810A      1.836787  
     811A      1.842395   812A      1.842702   813A      1.860763  
     814A      1.860787   815A      1.860803   816A      1.861140  
     817A      1.864028   818A      1.868786   819A      1.872188  
     820A      1.880147   821A      1.880196   822A      1.896143  
     823A      1.896224   824A      1.899398   825A      1.902942  
     826A      1.903063   827A      1.908540   828A      1.908688  
     829A      1.913800   830A      1.914236   831A      1.917639  
     832A      1.917784   833A      1.919219   834A      1.921964  
     835A      1.922042   836A      1.940431   837A      1.941059  
     838A      1.941866   839A      1.941974   840A      1.946387  
     841A      1.946417   842A      1.954034   843A      1.954126  
     844A      1.954287   845A      1.954569   846A      1.957984  
     847A      1.970298   848A      1.982933   849A      1.983186  
     850A      1.989883   851A      1.997089   852A      1.998514  
     853A      1.998532   854A      2.004041   855A      2.008028  
     856A      2.012233   857A      2.012485   858A      2.027217  
     859A      2.027817   860A      2.029943   861A      2.030073  
     862A      2.030513   863A      2.031218   864A      2.031333  
     865A      2.047828   866A      2.051746   867A      2.052228  
     868A      2.057416   869A      2.058080   870A      2.059383  
     871A      2.060382   872A      2.068214   873A      2.070054  
     874A      2.071187   875A      2.071671   876A      2.075365  
     877A      2.075811   878A      2.080920   879A      2.084221  
     880A      2.084765   881A      2.092770   882A      2.094464  
     883A      2.095452   884A      2.096844   885A      2.100493  
     886A      2.100574   887A      2.106265   888A      2.108202  
     889A      2.108310   890A      2.109482   891A      2.109538  
     892A      2.110914   893A      2.114330   894A      2.119201  
     895A      2.119286   896A      2.120331   897A      2.120518  
     898A      2.126051   899A      2.126247   900A      2.133496  
     901A      2.134554   902A      2.135763   903A      2.135830  
     904A      2.143157   905A      2.143174   906A      2.155476  
     907A      2.159598   908A      2.159622   909A      2.162713  
     910A      2.162800   911A      2.171235   912A      2.178211  
     913A      2.178281   914A      2.190334   915A      2.190711  
     916A      2.192482   917A      2.193751   918A      2.195762  
     919A      2.195866   920A      2.198292   921A      2.219650  
     922A      2.220256   923A      2.220278   924A      2.227844  
     925A      2.228114   926A      2.228464   927A      2.228965  
     928A      2.243216   929A      2.243569   930A      2.243780  
     931A      2.244171   932A      2.247068   933A      2.260027  
     934A      2.260169   935A      2.270111   936A      2.270132  
     937A      2.272003   938A      2.272054   939A      2.281039  
     940A      2.300169   941A      2.306657   942A      2.310283  
     943A      2.312100   944A      2.319922   945A      2.322274  
     946A      2.330910   947A      2.330971   948A      2.331070  
     949A      2.333808   950A      2.350652   951A      2.351362  
     952A      2.352331   953A      2.352429   954A      2.366236  
     955A      2.366344   956A      2.374567   957A      2.379392  
     958A      2.415821   959A      2.423987   960A      2.424359  
     961A      2.424380   962A      2.436438   963A      2.441072  
     964A      2.441129   965A      2.469871   966A      2.472628  
     967A      2.472837   968A      2.485320   969A      2.485410  
     970A      2.502283   971A      2.519126   972A      2.529708  
     973A      2.529835   974A      2.543307   975A      2.545256  
     976A      2.545426   977A      2.554184   978A      2.554220  
     979A      2.554779   980A      2.559807   981A      2.559816  
     982A      2.572951   983A      2.572989   984A      2.574638  
     985A      2.575191   986A      2.586207   987A      2.586330  
     988A      2.587207   989A      2.589689   990A      2.591378  
     991A      2.605961   992A      2.623400   993A      2.623443  
     994A      2.624993   995A      2.631280   996A      2.631856  
     997A      2.641139   998A      2.641200   999A      2.650745  
    1000A      2.651098  1001A      2.656830  1002A      2.681827  
    1003A      2.683021  1004A      2.683953  1005A      2.686710  
    1006A      2.701913  1007A      2.702210  1008A      2.712989  
    1009A      2.712996  1010A      2.718641  1011A      2.718655  
    1012A      2.722486  1013A      2.722763  1014A      2.737279  
    1015A      2.752006  1016A      2.752532  1017A      2.776841  
    1018A      2.794418  1019A      2.794490  1020A      2.809170  
    1021A      2.809490  1022A      2.810512  1023A      2.815533  
    1024A      2.827072  1025A      2.827424  1026A      2.851421  
    1027A      2.851639  1028A      2.855999  1029A      2.858288  
    1030A      2.859290  1031A      2.859352  1032A      2.866974  
    1033A      2.916617  1034A      2.916704  1035A      2.923623  
    1036A      2.933481  1037A      2.933540  1038A      2.949531  
    1039A      2.949572  1040A      2.962694  1041A      3.006434  
    1042A      3.006801  1043A      3.011847  1044A      3.029273  
    1045A      3.064022  1046A      3.064110  1047A      3.070345  
    1048A      3.070522  1049A      3.109326  1050A      3.110114  
    1051A      3.127469  1052A      3.129358  1053A      3.129770  
    1054A      3.137434  1055A      3.146029  1056A      3.146205  
    1057A      3.146250  1058A      3.148919  1059A      3.148926  
    1060A      3.157541  1061A      3.157984  1062A      3.165540  
    1063A      3.165979  1064A      3.191586  1065A      3.211126  
    1066A      3.218293  1067A      3.237278  1068A      3.272196  
    1069A      3.276874  1070A      3.277011  1071A      3.281681  
    1072A      3.281921  1073A      3.416194  1074A      3.416641  
    1075A      3.442770  1076A      3.481250  1077A      3.483989  
    1078A      3.548999  1079A      3.576982  1080A      3.578957  
    1081A      3.593793  1082A      3.626442  1083A      3.628438  
    1084A      3.662748  1085A      3.667365  1086A      3.769203  
    1087A      3.782619  1088A      3.783572  1089A      3.870667  
    1090A      3.870702  1091A      3.913044  1092A      3.913165  
    1093A      3.976885  1094A      4.010840  1095A      4.032618  
    1096A      4.044526  1097A      4.080645  1098A      4.179190  
    1099A      4.182619  1100A      4.183834  1101A      4.319315  
    1102A      5.746091  1103A      5.746338  1104A      5.747241  
    1105A      5.750444  1106A      5.750640  1107A      5.756079  
    1108A      5.756681  1109A      5.757532  1110A      5.775655  
    1111A      5.776347  1112A      5.776716  1113A      6.017163  
    1114A      6.017811  1115A      6.018206  1116A      6.189973  
    1117A      6.324296  1118A      6.324610  1119A      6.369963  
    1120A      6.371396  1121A      6.372208  1122A      7.138966  
    1123A      7.154502  1124A      7.219533  1125A      7.221509  
    1126A      7.223967  1127A      7.239588  1128A      7.240728  
    1129A      7.246175  1130A      7.450374  1131A      7.451314  
    1132A      7.456123  1133A      7.585608  1134A     12.589218  
    1135A     42.904683  1136A     42.906330  1137A     42.907299  
    1138A     42.934711  

    Final Occupation by Irrep:
              A 
    DOCC [   171 ]
    NA   [   171 ]
    NB   [   171 ]

  @DF-RHF Final Energy: -2055.89162421118181

   => Energetics <=

    Nuclear Repulsion Energy =           6452.5568002797781446
    One-Electron Energy =              -15636.4245294050906523
    Two-Electron Energy =                7127.9761049141297917
    Total Energy =                      -2055.8916242111818065

Computation Completed


Properties will be evaluated at   0.000000,   0.000000,   0.000000 [a0]

Properties computed using the SCF density matrix


 Multipole Moments:

 ------------------------------------------------------------------------------------
     Multipole            Electronic (a.u.)      Nuclear  (a.u.)        Total (a.u.)
 ------------------------------------------------------------------------------------

 L = 1.  Multiply by 2.5417464519 to convert [e a0] to [Debye]
 Dipole X            :          0.0000824            0.0000112            0.0000936
 Dipole Y            :          0.0000295           -0.0000531           -0.0000237
 Dipole Z            :        567.4061174         -567.4067274           -0.0006099
 Magnitude           :                                                    0.0006175

 ------------------------------------------------------------------------------------

*** tstop() called on d-6-11-4 at Mon Jan 22 12:25:41 2024
Module time:
	user time   =    2294.27 seconds =      38.24 minutes
	system time =      55.52 seconds =       0.93 minutes
	total time  =        485 seconds =       8.08 minutes
Total time:
	user time   =    6636.18 seconds =     110.60 minutes
	system time =     157.76 seconds =       2.63 minutes
	total time  =        966 seconds =      16.10 minutes
  Constructing Basis Sets for SAPT...

   => Loading Basis Set <=

    Name: (JUN-CC-PVDZ AUX)
    Role: RIFIT
    Keyword: DF_BASIS_SAPT
    atoms 1     entry B          line    56 file /home/gridsan/tfroembgen/.conda/envs/psi4test/share/psi4/basis/jun-cc-pvdz-ri.gbs 
    atoms 2-5   entry F          line   232 file /home/gridsan/tfroembgen/.conda/envs/psi4test/share/psi4/basis/jun-cc-pvdz-ri.gbs 
    atoms 6-59  entry C          line   100 file /home/gridsan/tfroembgen/.conda/envs/psi4test/share/psi4/basis/jun-cc-pvdz-ri.gbs 
    atoms 60-77 entry H          line    30 file /home/gridsan/tfroembgen/.conda/envs/psi4test/share/psi4/basis/jun-cc-pvdz-ri.gbs 

   => Loading Basis Set <=

    Name: (JUN-CC-PVDZ AUX)
    Role: JKFIT
    Keyword: DF_BASIS_ELST
    atoms 1     entry B          line    90 file /home/gridsan/tfroembgen/.conda/envs/psi4test/share/psi4/basis/jun-cc-pvdz-jkfit.gbs 
    atoms 2-5   entry F          line   314 file /home/gridsan/tfroembgen/.conda/envs/psi4test/share/psi4/basis/jun-cc-pvdz-jkfit.gbs 
    atoms 6-59  entry C          line   146 file /home/gridsan/tfroembgen/.conda/envs/psi4test/share/psi4/basis/jun-cc-pvdz-jkfit.gbs 
    atoms 60-77 entry H          line    70 file /home/gridsan/tfroembgen/.conda/envs/psi4test/share/psi4/basis/jun-cc-pvdz-jkfit.gbs 


  //>>>>>>>>>>>>>>>>>>>>>>>>>>>>>>>>>>>//
  //               SSAPT0              //
  //<<<<<<<<<<<<<<<<<<<<<<<<<<<<<<<<<<<//


*** tstart() called on d-6-11-4
*** at Mon Jan 22 12:25:42 2024

        SAPT0  
    Ed Hohenstein
     6 June 2009

      Orbital Information
  --------------------------
    NSO        =      1152
    NMO        =      1138
    NRI        =      4087
    NRI (Elst) =      5075
    NOCC A     =        21
    NOCC B     =       171
    FOCC A     =         5
    FOCC B     =        54
    NVIR A     =      1117
    NVIR B     =       967

    Elst10,r            =     0.006594928224 [Eh]
    Exch10              =    -0.000000119374 [Eh]
    Exch10 (S^2)        =    -0.000000119374 [Eh]

    Iter     Energy [mEh]          dE [mEh]         Residual      Time [s]
       1      -0.00368682       0.003686821       0.446197888           295
       2      -0.00434268       0.000655864       0.233313371           639
       3      -0.00460978       0.000267096       0.044340362           935
       4      -0.00461562       0.000005841       0.009266153          1060
       5      -0.00460787      -0.000007747       0.001251560          1075
       6      -0.00460879       0.000000917       0.000238947          1088
       7      -0.00460876      -0.000000031       0.000057236          1103
       8      -0.00460875      -0.000000014       0.000013908          1118
       9      -0.00460875      -0.000000001       0.000002914          1217
      10      -0.00460875       0.000000001       0.000000426          1229

    CHF Iterations converged


    Iter     Energy [mEh]          dE [mEh]         Residual      Time [s]
       1      -2.56691425       2.566914254      26.484060069           357
       2      -1.74678862      -0.820125631       3.286860052           423
       3      -1.74946668       0.002678053       1.197153961           438
       4      -1.79120477       0.041738091       0.268309299           453
       5      -1.79303449       0.001829725       0.074907809           469
       6      -1.79221462      -0.000819878       0.035039675           486
       7      -1.79194017      -0.000274440       0.016502453           505
       8      -1.79209650       0.000156323       0.011526218           520
       9      -1.79214648       0.000049979       0.007126978           540
      10      -1.79209897      -0.000047508       0.003588065           557
      11      -1.79209281      -0.000006161       0.001623906           575
      12      -1.79209724       0.000004437       0.000713088           590
      13      -1.79210009       0.000002845       0.000267248           608
      14      -1.79209981      -0.000000277       0.000093778           625
      15      -1.79209927      -0.000000544       0.000035500           643
      16      -1.79209938       0.000000111       0.000023253           661
      17      -1.79209945       0.000000075       0.000010205           678
      18      -1.79209944      -0.000000013       0.000003697           694
      19      -1.79209943      -0.000000013       0.000001902           710
      20      -1.79209943      -0.000000001       0.000000826           730

    CHF Iterations converged

    Ind20,r (A<-B)      =    -0.000004608747 [Eh]
    Ind20,r (B<-A)      =    -0.001792099425 [Eh]
    Ind20,r             =    -0.001796708172 [Eh]
    Exch-Ind20,r (A<-B) =     0.000000016235 [Eh]
    Exch-Ind20,r (B<-A) =     0.000000026285 [Eh]
    Exch-Ind20,r        =     0.000000042520 [Eh]
    Disp20              =    -0.000259911537 [Eh]
    Disp20 (SS)         =    -0.000129955769 [Eh]
    Disp20 (OS)         =    -0.000129955769 [Eh]
    Exch-Disp20         =     0.000000028249 [Eh]
    Exch-Disp20 (SS)    =     0.000000021898 [Eh]
    Exch-Disp20 (OS)    =     0.000000006351 [Eh]

    SAPT Results 
  --------------------------------------------------------------------------------------------------------
    Electrostatics                  6.59492822 [mEh]       4.13837994 [kcal/mol]      17.31498167 [kJ/mol]
      Elst10,r                      6.59492822 [mEh]       4.13837994 [kcal/mol]      17.31498167 [kJ/mol]

    Exchange                       -0.00011937 [mEh]      -0.00007491 [kcal/mol]      -0.00031342 [kJ/mol]
      Exch10                       -0.00011937 [mEh]      -0.00007491 [kcal/mol]      -0.00031342 [kJ/mol]
      Exch10(S^2)                  -0.00011937 [mEh]      -0.00007491 [kcal/mol]      -0.00031342 [kJ/mol]

    Induction                      -1.78668133 [mEh]      -1.12115946 [kcal/mol]      -4.69093119 [kJ/mol]
      Ind20,r                      -1.79670817 [mEh]      -1.12745140 [kcal/mol]      -4.71725666 [kJ/mol]
      Exch-Ind20,r                  0.00004252 [mEh]       0.00002668 [kcal/mol]       0.00011164 [kJ/mol]
      delta HF,r (2)                0.00998432 [mEh]       0.00626526 [kcal/mol]       0.02621383 [kJ/mol]

    Dispersion                     -0.25988329 [mEh]      -0.16307923 [kcal/mol]      -0.68232348 [kJ/mol]
      Disp20                       -0.25991154 [mEh]      -0.16309695 [kcal/mol]      -0.68239765 [kJ/mol]
      Exch-Disp20                   0.00002825 [mEh]       0.00001773 [kcal/mol]       0.00007417 [kJ/mol]
      Disp20 (SS)                  -0.12995577 [mEh]      -0.08154848 [kcal/mol]      -0.34119882 [kJ/mol]
      Disp20 (OS)                  -0.12995577 [mEh]      -0.08154848 [kcal/mol]      -0.34119882 [kJ/mol]
      Exch-Disp20 (SS)              0.00002190 [mEh]       0.00001374 [kcal/mol]       0.00005749 [kJ/mol]
      Exch-Disp20 (OS)              0.00000635 [mEh]       0.00000399 [kcal/mol]       0.00001668 [kJ/mol]

  Total HF                          4.80812752 [mEh]       3.01714557 [kcal/mol]      12.62373706 [kJ/mol]
  Total SAPT0                       4.54824423 [mEh]       2.85406634 [kcal/mol]      11.94141358 [kJ/mol]

  Special recipe for scaled SAPT0 (see Manual):
    Electrostatics sSAPT0           6.59492822 [mEh]       4.13837994 [kcal/mol]      17.31498167 [kJ/mol]
    Exchange sSAPT0                -0.00011937 [mEh]      -0.00007491 [kcal/mol]      -0.00031342 [kJ/mol]
    Induction sSAPT0               -1.78668133 [mEh]      -1.12115946 [kcal/mol]      -4.69093119 [kJ/mol]
    Dispersion sSAPT0              -0.25988329 [mEh]      -0.16307923 [kcal/mol]      -0.68232348 [kJ/mol]
  Total sSAPT0                      4.54824423 [mEh]       2.85406634 [kcal/mol]      11.94141358 [kJ/mol]
  --------------------------------------------------------------------------------------------------------

*** tstop() called on d-6-11-4 at Mon Jan 22 13:26:46 2024
Module time:
	user time   =    7090.73 seconds =     118.18 minutes
	system time =     616.85 seconds =      10.28 minutes
	total time  =       3664 seconds =      61.07 minutes
Total time:
	user time   =   13728.63 seconds =     228.81 minutes
	system time =     774.61 seconds =      12.91 minutes
	total time  =       4631 seconds =      77.18 minutes

    Psi4 stopped on: Monday, 22 January 2024 01:26PM
    Psi4 wall time for execution: 1:17:11.79

*** Psi4 exiting successfully. Buy a developer a beer!
