
    -----------------------------------------------------------------------
          Psi4: An Open-Source Ab Initio Electronic Structure Package
                               Psi4 1.9 release

                         Git: Rev {} zzzzzzz 


    D. G. A. Smith, L. A. Burns, A. C. Simmonett, R. M. Parrish,
    M. C. Schieber, R. Galvelis, P. Kraus, H. Kruse, R. Di Remigio,
    A. Alenaizan, A. M. James, S. Lehtola, J. P. Misiewicz, M. Scheurer,
    R. A. Shaw, J. B. Schriber, Y. Xie, Z. L. Glick, D. A. Sirianni,
    J. S. O'Brien, J. M. Waldrop, A. Kumar, E. G. Hohenstein,
    B. P. Pritchard, B. R. Brooks, H. F. Schaefer III, A. Yu. Sokolov,
    K. Patkowski, A. E. DePrince III, U. Bozkaya, R. A. King,
    F. A. Evangelista, J. M. Turney, T. D. Crawford, C. D. Sherrill,
    J. Chem. Phys. 152(18) 184108 (2020). https://doi.org/10.1063/5.0006002

                            Additional Code Authors
    E. T. Seidl, C. L. Janssen, E. F. Valeev, M. L. Leininger,
    J. F. Gonthier, R. M. Richard, H. R. McAlexander, M. Saitow, X. Wang,
    P. Verma, M. H. Lechner, A. Jiang, S. Behnle, A. G. Heide,
    M. F. Herbst, and D. L. Poole

             Previous Authors, Complete List of Code Contributors,
                       and Citations for Specific Modules
    https://github.com/psi4/psi4/blob/master/codemeta.json
    https://github.com/psi4/psi4/graphs/contributors
    http://psicode.org/psi4manual/master/introduction.html#citing-psifour

    -----------------------------------------------------------------------


    Psi4 started on: Friday, 26 January 2024 11:41PM

    Process ID: 840021
    Host:       n2cn0492
    PSIDATADIR: /opt/software/pc2/EB-SW/software/PSI4/1.9-foss-2022a/share/psi4
    Memory:     500.0 MiB
    Threads:    16
    
  ==> Input File <==

--------------------------------------------------------------------------
memory 64 GB # how much memory is available ! Depends on the nodes/cores !

molecule dimer {
# monomer A
+1 1    # Charge and multiplicity
C  0.680067 -0.008042 -5.415929
C -0.680504 -0.006014 -5.415545
N -1.085635 -0.005016 -4.097221
C  0.000108 -0.001740 -3.315820
C -2.477365  0.044390 -3.629242
N  1.085222 -0.005016 -4.097221
H  1.385146 -0.015870 -6.233368
H -1.385302 -0.006204 -6.233214
H -0.000009  0.000007 -2.234731
C  2.478117 -0.021908 -3.632123
H  2.490592  0.005437 -2.541870
H  2.967028 -0.935354 -3.979299
H  3.001428  0.853575 -4.023595
H -2.857359  1.066461 -3.709201
H -3.082679 -0.625694 -4.242306
H -2.518128 -0.282594 -2.589294
--
# monomer B
0 1     # Charge and multiplicity
C   -3.66844126402057      7.80375217008252      0.00190004133558
C   -4.84759871934653      7.13124183134024     -0.00046653359696
C   -4.89495929917518      5.69633040353158     -0.00103944469517
C   -3.65374067877320      4.98073034095895      0.00662099703436
C   -2.40942512149445      7.11398103667468      0.00209438359570
C   -2.42547734410473      5.68112195090346     -0.00491050527438
C   -1.19474401643570      7.78614419430947      0.00356656413763
C   0.03795902893699      7.09942164575698      0.00139585983271
C   0.03033258741920      5.66948955970466     -0.00408752508301
C   -1.20098450790502      4.96927034791531      0.00488220885047
C   1.27795782581485      7.77285944319479      0.00277170839332
C   2.48535808472416      7.08769688523756      0.00049722048857
C   2.48612868491717      5.65477081024076     -0.00644052849921
C   1.25408291964399      4.95607811366431      0.00518741308898
C   3.75171459140595      7.76391215098033      0.00062407186893
C   4.92356605618520      7.07878077698995     -0.00143240883900
C   4.95560727132542      5.64344746336949     -0.00159282164606
C   3.70680153420475      4.94121020833308      0.00349873852374
H   -3.65852113775815      8.89082741913536      0.00358502958574
H   -1.18921332975660      8.87412108735996      0.00753844057883
H   1.28429423888630      8.86083343548850      0.00693053253426
H   3.75354208679975      8.85103527897216      0.00214659618464
H   5.86995870320703      7.61379483465560     -0.00235777588134
H   -5.78823170750226      7.67630221293400     -0.00202638095293
C   -6.09197395869619      4.99326001364347     -0.00291168518608
C   -6.12866148031747      3.58258016879823     -0.00171050815740
C   -3.66457974004527      3.56418217974434     -0.00463560277484
C   -4.89429820469869      2.86108077590057      0.00453338221034
C   -2.43733499489796      2.84761165708481      0.00719617576166
C   -1.20922785759670      3.54788693497833     -0.00648285103018
C   1.24714157216223      3.53468075142962     -0.00729145743546
C   0.01517603956900      2.83311183930540      0.00439272578912
C   2.46764517244071      2.82128997725533      0.00449278391269
C   3.70254947457969      3.52466015442405     -0.00899517692985
C   6.14498038638375      4.92757236613191     -0.00282626685777
C   6.16658835886151      3.51658447594213     -0.00065971342101
C   4.92460995845939      2.80840792535402      0.00587903281610
H   7.08990550964105      5.46688776622306     -0.00658814770723
H   -7.03104175110130      5.54268795285765     -0.00714490013730
C   -7.33969804112295      2.85841153457957     -0.00333767559888
C   -7.36488195805880      1.47032337158330     -0.00157213747140
C   -4.90350460894690      1.44442681216000     -0.00628840166334
C   -6.13225715261081      0.73993935705394      0.00600164231964
C   -3.67687480051673      0.72669714267312      0.00433931473643
C   -2.44565658606518      1.42964113326212     -0.00597039546461
C   -1.22360068130162      0.71532450163492      0.00545886906656
C   0.00763786931376      1.41738314923765      0.00392452278437
C   1.23121980774686      0.70211669058719     -0.01490206287210
C   2.46082110053113      1.40329203612573      0.00460244601878
C   3.68443025419614      0.68719842821222      0.00377365974158
C   4.91870890153864      1.39173456118907     -0.00862816189375
C   7.36980207796101      2.77948220318441     -0.00242013321349
C   7.38016266612146      1.39121750785509     -0.00087345036788
C   6.13979953912259      0.67411862320065      0.00545489144369
H   -8.27919079934664      3.40711804112415     -0.00763522772059
H   8.31511347147953      3.31811809662368     -0.00663070901292
C   -8.59175593758115      0.72483255304480     -0.00123170985383
C   -8.59902460370342     -0.63263980622873      0.00089141472904
C   -6.13981313911873     -0.67413663715361     -0.00609792660607
C   -7.38018411213749     -1.39126618958160      0.00131813493501
C   -4.91868448025621     -1.39175501803000      0.00624257154343
C   -3.68443829568458     -0.68723731573599     -0.00478966852105
C   -2.46081704024768     -1.40334517882457      0.00575341766833
C   -1.23116201232071     -0.70217386488055     -0.00636696112346
C   -0.00756962538737     -1.41741884941102      0.00108956317991
C   1.22364771588843     -0.71527537726392      0.01109518512883
C   2.44567064933149     -1.42964328900682     -0.00065482763106
C   3.67686670284649     -0.72670743155550     -0.00479541202602
C   6.13224884641929     -0.73997883984993     -0.00632338623858
C   4.90351914550401     -1.44445752054090      0.00751768830159
C   8.59901484869081      0.63260386666793     -0.00101133422380
C   8.59174548810050     -0.72485086719319      0.00072504603735
C   7.36486276438985     -1.47033266560598      0.00049486934466
H   -9.52830597181814      1.27684744919284     -0.00270163681798
H   9.54141097460619      1.17457248844457     -0.00206336648518
C   -7.36983790976868     -2.77954514593389      0.00312634335708
C   -4.92459910905015     -2.80843725734101     -0.00460528907921
C   -6.16662249566744     -3.51665219282533      0.00169655107992
C   -3.70251035970491     -3.52468154912026      0.00571878010666
C   -2.46764698511392     -2.82132596280400     -0.00632585824990
C   -0.01513347410770     -2.83314164539971     -0.00604426974092
C   -1.24712184122656     -3.53473217556300      0.00551968366725
C   1.20924506964357     -3.54791467864352      0.00805871345849
C   2.43733602215464     -2.84764173817541     -0.00608104485234
C   4.89430234377080     -2.86112296828604     -0.00526030478103
C   3.66461525504104     -3.56421984553201      0.00761911515957
C   6.12863901474565     -3.58258405771778      0.00096495711699
C   7.33967266469532     -2.85841330737039      0.00248018319869
H   -9.54144911125902     -1.17456346666430      0.00226083090216
H   9.52826186807155     -1.27691907390448      0.00197485379837
H   -8.31516504384864     -3.31814985321231      0.00729857188773
H   8.27915514249207     -3.40714078989363      0.00681973918158
C   -6.14499418870218     -4.92764727278338      0.00302254913999
C   -3.70678334799751     -4.94126171411716     -0.00679841894792
C   -4.95559005800169     -5.64349397349412      0.00116871569699
C   -2.48612132622665     -5.65478557440947      0.00614125209662
C   -1.25405833548005     -4.95612205000132     -0.00503435388927
C   1.20101257386816     -4.96928038819302     -0.00385322963129
C   -0.03033667441341     -5.66952030313900      0.00398997003238
C   3.65375010132847     -4.98074377541453     -0.00309522988330
C   2.42549269587528     -5.68117463552727      0.00628170066869
C   6.09196561781097     -4.99325796338655      0.00325918379042
C   4.89497644461045     -5.69634842095790      0.00202298796027
H   -7.08989238804069     -5.46699984223871      0.00742531082125
H   7.03105520920009     -5.54265853633254      0.00683896355417
C   -4.92354532219813     -7.07882109967734      0.00061394679214
C   -2.48534208823777     -7.08772807792913     -0.00189594564379
C   -3.75168589177895     -7.76394715763627     -0.00170126671874
C   -0.03794895698805     -7.09946487446944     -0.00168022049625
C   -1.27795610040136     -7.77290438466689     -0.00366491325785
C   2.40944432072629     -7.11402201200282     -0.00081701968533
C   1.19474993715296     -7.78618536556242     -0.00296931056689
C   4.84762105249800     -7.13126211057943      0.00168979497423
C   3.66847160587561     -7.80378799294376     -0.00065863938960
H   -5.86994035041618     -7.61383059804164      0.00215798365757
H   5.78824962538815     -7.67633218931421      0.00281691445618
H   -3.75352693944918     -8.85107156923607     -0.00353718114765
H   -1.28430440589466     -8.86087539249706     -0.00809229711623
H   1.18922157469537     -8.87416062058945     -0.00706194725726
H   3.65854661482387     -8.89086063405326     -0.00231318081200

    units angstrom      # Angstroms are the default
    no_reorient         # Geometry fixed, default
    symmetry c1         # C1 symmetry, default
}

set {
    scf_type DF         # Density fitting, faster than exact integrals
    freeze_core True    # Freeze core electrons
    basis jun-cc-pVDZ   # Jun-cc-pVDZ basis set, recommended for sSAPT0 in https://doi.org/10.1063/1.4867135
}

energy('ssapt0')        # Compute sSAPT0 energy, includes also SAPT0
--------------------------------------------------------------------------

  Memory set to  59.605 GiB by Python driver.

Scratch directory: /tmp/
   => Loading Basis Set <=

    Name: JUN-CC-PVDZ
    Role: ORBITAL
    Keyword: BASIS
    atoms 1-2, 4-5, 10, 17-34, 41-53, 56-70, 73-89, 92-104, 109-119, 122-130 entry C          line   164 file /opt/software/pc2/EB-SW/software/PSI4/1.9-foss-2022a/share/psi4/basis/jun-cc-pvdz.gbs 
    atoms 3, 6                                                               entry N          line   198 file /opt/software/pc2/EB-SW/software/PSI4/1.9-foss-2022a/share/psi4/basis/jun-cc-pvdz.gbs 
    atoms 7-9, 11-16, 35-40, 54-55, 71-72, 90-91, 105-108, 120-121, 131-136  entry H          line    36 file /opt/software/pc2/EB-SW/software/PSI4/1.9-foss-2022a/share/psi4/basis/jun-cc-pvdz.gbs 

   => Loading Basis Set <=

    Name: JUN-CC-PVDZ
    Role: ORBITAL
    Keyword: BASIS
    atoms 1-2, 4-5, 10, 17-34, 41-53, 56-70, 73-89, 92-104, 109-119, 122-130 entry C          line   164 file /opt/software/pc2/EB-SW/software/PSI4/1.9-foss-2022a/share/psi4/basis/jun-cc-pvdz.gbs 
    atoms 3, 6                                                               entry N          line   198 file /opt/software/pc2/EB-SW/software/PSI4/1.9-foss-2022a/share/psi4/basis/jun-cc-pvdz.gbs 
    atoms 7-9, 11-16, 35-40, 54-55, 71-72, 90-91, 105-108, 120-121, 131-136  entry H          line    36 file /opt/software/pc2/EB-SW/software/PSI4/1.9-foss-2022a/share/psi4/basis/jun-cc-pvdz.gbs 


  //>>>>>>>>>>>>>>>>>>>>>>>>>>>>>>>>>>>//
  //              Dimer HF             //
  //<<<<<<<<<<<<<<<<<<<<<<<<<<<<<<<<<<<//

   => Libint2 <=

    Primary   basis highest AM E, G, H:  5, 4, 3
    Auxiliary basis highest AM E, G, H:  6, 5, 4
    Onebody   basis highest AM E, G, H:  6, 5, 4
    Solid Harmonics ordering:            gaussian

*** tstart() called on n2cn0492
*** at Fri Jan 26 23:41:34 2024

   => Loading Basis Set <=

    Name: JUN-CC-PVDZ
    Role: ORBITAL
    Keyword: BASIS
    atoms 1-2, 4-5, 10, 17-34, 41-53, 56-70, 73-89, 92-104, 109-119, 122-130 entry C          line   164 file /opt/software/pc2/EB-SW/software/PSI4/1.9-foss-2022a/share/psi4/basis/jun-cc-pvdz.gbs 
    atoms 3, 6                                                               entry N          line   198 file /opt/software/pc2/EB-SW/software/PSI4/1.9-foss-2022a/share/psi4/basis/jun-cc-pvdz.gbs 
    atoms 7-9, 11-16, 35-40, 54-55, 71-72, 90-91, 105-108, 120-121, 131-136  entry H          line    36 file /opt/software/pc2/EB-SW/software/PSI4/1.9-foss-2022a/share/psi4/basis/jun-cc-pvdz.gbs 


         ---------------------------------------------------------
                                   SCF
               by Justin Turney, Rob Parrish, Andy Simmonett
                          and Daniel G. A. Smith
                              RHF Reference
                       16 Threads,  61035 MiB Core
         ---------------------------------------------------------

  ==> Geometry <==

    Molecular point group: c1
    Full point group: C1

    Geometry (in Angstrom), charge = 1, multiplicity = 1:

       Center              X                  Y                   Z               Mass       
    ------------   -----------------  -----------------  -----------------  -----------------
         C            0.680062820275    -0.008027535675    -5.095717220331    12.000000000000
         C           -0.680508179725    -0.005999535675    -5.095333220331    12.000000000000
         N           -1.085639179725    -0.005001535675    -3.777009220331    14.003074004430
         C            0.000103820275    -0.001725535675    -2.995608220331    12.000000000000
         C           -2.477369179725     0.044404464325    -3.309030220331    12.000000000000
         N            1.085217820275    -0.005001535675    -3.777009220331    14.003074004430
         H            1.385141820275    -0.015855535675    -5.913156220331     1.007825032230
         H           -1.385306179725    -0.006189535675    -5.913002220331     1.007825032230
         H           -0.000013179725     0.000021464325    -1.914519220331     1.007825032230
         C            2.478112820275    -0.021893535675    -3.311911220331    12.000000000000
         H            2.490587820275     0.005451464325    -2.221658220331     1.007825032230
         H            2.967023820275    -0.935339535675    -3.659087220331     1.007825032230
         H            3.001423820275     0.853589464325    -3.703383220331     1.007825032230
         H           -2.857363179725     1.066475464325    -3.388989220331     1.007825032230
         H           -3.082683179725    -0.625679535675    -3.922094220331     1.007825032230
         H           -2.518132179725    -0.282579535675    -2.269082220331     1.007825032230
         C           -3.668445443746     7.803766634408     0.322111821005    12.000000000000
         C           -4.847602899072     7.131256295665     0.319745246072    12.000000000000
         C           -4.894963478901     5.696344867857     0.319172334974    12.000000000000
         C           -3.653744858499     4.980744805284     0.326832776703    12.000000000000
         C           -2.409429301220     7.113995501000     0.322306163265    12.000000000000
         C           -2.425481523830     5.681136415228     0.315301274395    12.000000000000
         C           -1.194748196161     7.786158658634     0.323778343807    12.000000000000
         C            0.037954849212     7.099436110082     0.321607639502    12.000000000000
         C            0.030328407694     5.669504024030     0.316124254586    12.000000000000
         C           -1.200988687630     4.969284812240     0.325093988519    12.000000000000
         C            1.277953646089     7.772873907520     0.322983488062    12.000000000000
         C            2.485353904999     7.087711349563     0.320709000158    12.000000000000
         C            2.486124505192     5.654785274566     0.313771251170    12.000000000000
         C            1.254078739919     4.956092577989     0.325399192758    12.000000000000
         C            3.751710411681     7.763926615305     0.320835851538    12.000000000000
         C            4.923561876460     7.078795241315     0.318779370830    12.000000000000
         C            4.955603091600     5.643461927694     0.318618958023    12.000000000000
         C            3.706797354479     4.941224672658     0.323710518193    12.000000000000
         H           -3.658525317484     8.890841883460     0.323796809255     1.007825032230
         H           -1.189217509482     8.874135551685     0.327750220248     1.007825032230
         H            1.284290059161     8.860847899813     0.327142312203     1.007825032230
         H            3.753537907074     8.851049743297     0.322358375854     1.007825032230
         H            5.869954523482     7.613809298981     0.317854003788     1.007825032230
         H           -5.788235887228     7.676316677259     0.318185398716     1.007825032230
         C           -6.091978138422     4.993274477968     0.317300094483    12.000000000000
         C           -6.128665660043     3.582594633123     0.318501271512    12.000000000000
         C           -3.664583919771     3.564196644069     0.315576176894    12.000000000000
         C           -4.894302384424     2.861095240226     0.324745161879    12.000000000000
         C           -2.437339174623     2.847626121410     0.327407955431    12.000000000000
         C           -1.209232037322     3.547901399303     0.313728928639    12.000000000000
         C            1.247137392437     3.534695215755     0.312920322234    12.000000000000
         C            0.015171859844     2.833126303630     0.324604505458    12.000000000000
         C            2.467640992715     2.821304441580     0.324704563582    12.000000000000
         C            3.702545294854     3.524674618749     0.311216602739    12.000000000000
         C            6.144976206658     4.927586830457     0.317385512811    12.000000000000
         C            6.166584179136     3.516598940267     0.319552066248    12.000000000000
         C            4.924605778734     2.808422389679     0.326090812485    12.000000000000
         H            7.089901329916     5.466902230548     0.313623631962     1.007825032230
         H           -7.031045930827     5.542702417183     0.313066879532     1.007825032230
         C           -7.339702220848     2.858425998905     0.316874104070    12.000000000000
         C           -7.364886137784     1.470337835908     0.318639642198    12.000000000000
         C           -4.903508788672     1.444441276485     0.313923378006    12.000000000000
         C           -6.132261332336     0.739953821379     0.326213421989    12.000000000000
         C           -3.676878980242     0.726711606998     0.324551094405    12.000000000000
         C           -2.445660765791     1.429655597587     0.314241384204    12.000000000000
         C           -1.223604861027     0.715338965960     0.325670648736    12.000000000000
         C            0.007633689588     1.417397613563     0.324136302453    12.000000000000
         C            1.231215628021     0.702131154912     0.305309716797    12.000000000000
         C            2.460816920806     1.403306500451     0.324814225688    12.000000000000
         C            3.684426074471     0.687212892537     0.323985439411    12.000000000000
         C            4.918704721813     1.391749025514     0.311583617775    12.000000000000
         C            7.369797898236     2.779496667509     0.317791646456    12.000000000000
         C            7.380158486396     1.391231972180     0.319338329301    12.000000000000
         C            6.139795359397     0.674133087526     0.325666671113    12.000000000000
         H           -8.279194979072     3.407132505449     0.312576551948     1.007825032230
         H            8.315109291754     3.318132560949     0.313581070656     1.007825032230
         C           -8.591760117307     0.724847017370     0.318980069815    12.000000000000
         C           -8.599028783429    -0.632625341904     0.321103194398    12.000000000000
         C           -6.139817318844    -0.674122172829     0.314113853063    12.000000000000
         C           -7.380188291863    -1.391251725257     0.321529914604    12.000000000000
         C           -4.918688659982    -1.391740553705     0.326454351212    12.000000000000
         C           -3.684442475410    -0.687222851411     0.315422111148    12.000000000000
         C           -2.460821219973    -1.403330714500     0.325965197337    12.000000000000
         C           -1.231166192046    -0.702159400556     0.313844818546    12.000000000000
         C           -0.007573805113    -1.417404385086     0.321301342849    12.000000000000
         C            1.223643536163    -0.715260912939     0.331306964798    12.000000000000
         C            2.445666469606    -1.429628824682     0.319556952038    12.000000000000
         C            3.676862523121    -0.726692967231     0.315416367643    12.000000000000
         C            6.132244666694    -0.739964375525     0.313888393430    12.000000000000
         C            4.903514965779    -1.444443056216     0.327729467971    12.000000000000
         C            8.599010668965     0.632618330993     0.319200445445    12.000000000000
         C            8.591741308375    -0.724836402868     0.320936825706    12.000000000000
         C            7.364858584664    -1.470318201281     0.320706649014    12.000000000000
         H           -9.528310151544     1.276861913518     0.317510142851     1.007825032230
         H            9.541406794881     1.174586952770     0.318148413184     1.007825032230
         C           -7.369842089494    -2.779530681609     0.323338123026    12.000000000000
         C           -4.924603288776    -2.808422793016     0.315606490590    12.000000000000
         C           -6.166626675393    -3.516637728500     0.321908330749    12.000000000000
         C           -3.702514539430    -3.524667084795     0.325930559776    12.000000000000
         C           -2.467651164839    -2.821311498479     0.313885921419    12.000000000000
         C           -0.015137653833    -2.833127181075     0.314167509928    12.000000000000
         C           -1.247126020952    -3.534717711238     0.325731463336    12.000000000000
         C            1.209240889918    -3.547900214319     0.328270493127    12.000000000000
         C            2.437331842429    -2.847627273850     0.314130734817    12.000000000000
         C            4.894298164045    -2.861108503961     0.314951474888    12.000000000000
         C            3.664611075316    -3.564205381207     0.327830894829    12.000000000000
         C            6.128634835020    -3.582569593393     0.321176736786    12.000000000000
         C            7.339668484970    -2.858398843045     0.322691962868    12.000000000000
         H           -9.541453290984    -1.174549002339     0.322472610571     1.007825032230
         H            9.528257688346    -1.276904609579     0.322186633467     1.007825032230
         H           -8.315169223574    -3.318135388887     0.327510351557     1.007825032230
         H            8.279150962767    -3.407126325569     0.327031518851     1.007825032230
         C           -6.144998368428    -4.927632808458     0.323234328809    12.000000000000
         C           -3.706787527723    -4.941247249792     0.313413360721    12.000000000000
         C           -4.955594237727    -5.643479509169     0.321380495366    12.000000000000
         C           -2.486125505952    -5.654771110084     0.326353031766    12.000000000000
         C           -1.254062515205    -4.956107585676     0.315177425780    12.000000000000
         C            1.201008394143    -4.969265923868     0.316358550038    12.000000000000
         C           -0.030340854139    -5.669505838814     0.324201749701    12.000000000000
         C            3.653745921603    -4.980729311090     0.317116549786    12.000000000000
         C            2.425488516150    -5.681160171202     0.326493480338    12.000000000000
         C            6.091961438086    -4.993243499062     0.323470963459    12.000000000000
         C            4.894972264885    -5.696333956633     0.322234767629    12.000000000000
         H           -7.089896567766    -5.466985377914     0.327637090490     1.007825032230
         H            7.031051029475    -5.542644072008     0.327050743223     1.007825032230
         C           -4.923549501924    -7.078806635352     0.320825726461    12.000000000000
         C           -2.485346267963    -7.087713613604     0.318315834025    12.000000000000
         C           -3.751690071504    -7.763932693311     0.318510512950    12.000000000000
         C           -0.037953136713    -7.099450410144     0.318531559173    12.000000000000
         C           -1.277960280127    -7.772889920342     0.316546866411    12.000000000000
         C            2.409440141001    -7.114007547678     0.319394759984    12.000000000000
         C            1.194745757428    -7.786170901237     0.317242469102    12.000000000000
         C            4.847616872773    -7.131247646254     0.321901574643    12.000000000000
         C            3.668467426150    -7.803773528619     0.319553140279    12.000000000000
         H           -5.869944530142    -7.613816133717     0.322369763327     1.007825032230
         H            5.788245445663    -7.676317724989     0.323028694125     1.007825032230
         H           -3.753531119175    -8.851057104911     0.316674598521     1.007825032230
         H           -1.284308585620    -8.860860928172     0.312119482553     1.007825032230
         H            1.189217394970    -8.874146156264     0.313149832412     1.007825032230
         H            3.658542435098    -8.890846169728     0.317898598857     1.007825032230

  Running in c1 symmetry.

  Rotational constants: A =      0.00066  B =      0.00065  C =      0.00035 [cm^-1]
  Rotational constants: A =     19.77500  B =     19.59383  C =     10.51914 [MHz]
  Nuclear repulsion = 18275.834724948170333

  Charge       = 1
  Multiplicity = 1
  Electrons    = 652
  Nalpha       = 326
  Nbeta        = 326

  ==> Algorithm <==

  SCF Algorithm Type is DF.
  DIIS enabled.
  MOM disabled.
  Fractional occupation disabled.
  Guess Type is SAD.
  Energy threshold   = 1.00e-08
  Density threshold  = 1.00e-08
  Integral threshold = 1.00e-12

  ==> Primary Basis <==

  Basis Set: JUN-CC-PVDZ
    Blend: JUN-CC-PVDZ
    Number of shells: 923
    Number of basis functions: 2019
    Number of Cartesian functions: 2122
    Spherical Harmonics?: true
    Max angular momentum: 2

   => Loading Basis Set <=

    Name: (JUN-CC-PVDZ AUX)
    Role: JKFIT
    Keyword: DF_BASIS_SCF
    atoms 1-2, 4-5, 10, 17-34, 41-53, 56-70, 73-89, 92-104, 109-119, 122-130 entry C          line   146 file /opt/software/pc2/EB-SW/software/PSI4/1.9-foss-2022a/share/psi4/basis/jun-cc-pvdz-jkfit.gbs 
    atoms 3, 6                                                               entry N          line   202 file /opt/software/pc2/EB-SW/software/PSI4/1.9-foss-2022a/share/psi4/basis/jun-cc-pvdz-jkfit.gbs 
    atoms 7-9, 11-16, 35-40, 54-55, 71-72, 90-91, 105-108, 120-121, 131-136  entry H          line    70 file /opt/software/pc2/EB-SW/software/PSI4/1.9-foss-2022a/share/psi4/basis/jun-cc-pvdz-jkfit.gbs 

  ==> Integral Setup <==

  ==> DiskDFJK: Density-Fitted J/K Matrices <==

    J tasked:                  Yes
    K tasked:                  Yes
    wK tasked:                  No
    OpenMP threads:             16
    Integrals threads:          16
    Memory [MiB]:            45776
    Algorithm:                Disk
    Integral Cache:           SAVE
    Schwarz Cutoff:          1E-12
    Fitting Condition:       1E-10

   => Auxiliary Basis Set <=

  Basis Set: (JUN-CC-PVDZ AUX)
    Blend: JUN-CC-PVDZ-JKFIT
    Number of shells: 3078
    Number of basis functions: 8896
    Number of Cartesian functions: 10198
    Spherical Harmonics?: true
    Max angular momentum: 3

  Minimum eigenvalue in the overlap matrix is 6.0687835412E-11.
  Reciprocal condition number of the overlap matrix is 2.4509858160E-12.
    Using canonical orthogonalization.
  Overall, 40 of 2019 possible MOs eliminated.


  ==> Pre-Iterations <==

  SCF Guess: Superposition of Atomic Densities via on-the-fly atomic UHF (no occupation information).

   -------------------------
    Irrep   Nso     Nmo    
   -------------------------
     A       2019    1979 
   -------------------------
    Total    2019    1979
   -------------------------

  ==> Iterations <==

                           Total Energy        Delta E     RMS |[F,P]|

   @DF-RHF iter SAD: -3967.52151328614582   -3.96752e+03   0.00000e+00 
   @DF-RHF iter   1: -3952.12051278439640    1.54010e+01   7.16068e-04 ADIIS/DIIS
   @DF-RHF iter   2: -3953.50136837946820   -1.38086e+00   2.41088e-04 ADIIS/DIIS
   @DF-RHF iter   3: -3953.62234492790139   -1.20977e-01   1.18600e-04 ADIIS/DIIS
   @DF-RHF iter   4: -3953.65131908273997   -2.89742e-02   5.18672e-05 DIIS
   @DF-RHF iter   5: -3953.65821000646656   -6.89092e-03   1.23326e-05 DIIS
   @DF-RHF iter   6: -3953.65876883008059   -5.58824e-04   4.72848e-06 DIIS
   @DF-RHF iter   7: -3953.65896788019882   -1.99050e-04   2.27203e-06 DIIS
   @DF-RHF iter   8: -3953.65903330174115   -6.54215e-05   1.12481e-06 DIIS
   @DF-RHF iter   9: -3953.65905192338005   -1.86216e-05   3.75695e-07 DIIS
   @DF-RHF iter  10: -3953.65905321925948   -1.29588e-06   1.54048e-07 DIIS
   @DF-RHF iter  11: -3953.65905338770290   -1.68443e-07   6.45065e-08 DIIS
   @DF-RHF iter  12: -3953.65905342313272   -3.54298e-08   3.37986e-08 DIIS
   @DF-RHF iter  13: -3953.65905343220857   -9.07585e-09   1.14025e-08 DIIS
   @DF-RHF iter  14: -3953.65905343295617   -7.47605e-10   5.22422e-09 DIIS
  Energy and wave function converged.


  ==> Post-Iterations <==

    Orbital Energies [Eh]
    ---------------------

    Doubly Occupied:                                                      

       1A    -15.790217     2A    -15.789768     3A    -11.482066  
       4A    -11.420703     5A    -11.419147     6A    -11.405210  
       7A    -11.405166     8A    -11.343481     9A    -11.343183  
      10A    -11.342739    11A    -11.342149    12A    -11.341515  
      13A    -11.341256    14A    -11.339492    15A    -11.339471  
      16A    -11.339332    17A    -11.339164    18A    -11.338174  
      19A    -11.338140    20A    -11.337232    21A    -11.337143  
      22A    -11.336203    23A    -11.336115    24A    -11.335609  
      25A    -11.335566    26A    -11.335491    27A    -11.335462  
      28A    -11.334463    29A    -11.334417    30A    -11.334316  
      31A    -11.334276    32A    -11.331141    33A    -11.331110  
      34A    -11.331057    35A    -11.330986    36A    -11.330170  
      37A    -11.330138    38A    -11.330109    39A    -11.330099  
      40A    -11.329432    41A    -11.329371    42A    -11.329267  
      43A    -11.329202    44A    -11.328271    45A    -11.328266  
      46A    -11.327696    47A    -11.327676    48A    -11.327656  
      49A    -11.327647    50A    -11.327254    51A    -11.327241  
      52A    -11.327054    53A    -11.327025    54A    -11.327014  
      55A    -11.326995    56A    -11.326574    57A    -11.326554  
      58A    -11.326549    59A    -11.326547    60A    -11.326521  
      61A    -11.326512    62A    -11.326018    63A    -11.326008  
      64A    -11.326002    65A    -11.325994    66A    -11.325521  
      67A    -11.325506    68A    -11.325305    69A    -11.325296  
      70A    -11.325267    71A    -11.325258    72A    -11.324700  
      73A    -11.324675    74A    -11.324671    75A    -11.324671  
      76A    -11.324179    77A    -11.324173    78A    -11.324146  
      79A    -11.324141    80A    -11.318355    81A    -11.318280  
      82A    -11.318273    83A    -11.318201    84A    -11.317667  
      85A    -11.317612    86A    -11.317580    87A    -11.317556  
      88A    -11.317349    89A    -11.317325    90A    -11.317266  
      91A    -11.317244    92A    -11.315204    93A    -11.315195  
      94A    -11.314337    95A    -11.314318    96A    -11.314312  
      97A    -11.314305    98A    -11.313734    99A    -11.313725  
     100A    -11.312857   101A    -11.312837   102A    -11.312828  
     103A    -11.312820   104A     -1.534743   105A     -1.390168  
     106A     -1.329118   107A     -1.310086   108A     -1.308838  
     109A     -1.288751   110A     -1.288493   111A     -1.287146  
     112A     -1.267431   113A     -1.262736   114A     -1.259335  
     115A     -1.258204   116A     -1.239655   117A     -1.239631  
     118A     -1.225361   119A     -1.225000   120A     -1.223540  
     121A     -1.210089   122A     -1.210037   123A     -1.196582  
     124A     -1.196349   125A     -1.183849   126A     -1.183012  
     127A     -1.182165   128A     -1.178415   129A     -1.176488  
     130A     -1.156017   131A     -1.155919   132A     -1.145784  
     133A     -1.141982   134A     -1.141909   135A     -1.136155  
     136A     -1.136069   137A     -1.134491   138A     -1.113471  
     139A     -1.113463   140A     -1.107452   141A     -1.103681  
     142A     -1.103534   143A     -1.095040   144A     -1.093389  
     145A     -1.092714   146A     -1.075786   147A     -1.074454  
     148A     -1.072960   149A     -1.069956   150A     -1.069038  
     151A     -1.068890   152A     -1.055344   153A     -1.038732  
     154A     -1.038505   155A     -1.021539   156A     -1.021424  
     157A     -0.980370   158A     -0.976586   159A     -0.976554  
     160A     -0.976099   161A     -0.969614   162A     -0.969580  
     163A     -0.962806   164A     -0.962658   165A     -0.959214  
     166A     -0.959108   167A     -0.957620   168A     -0.953795  
     169A     -0.937251   170A     -0.932007   171A     -0.918368  
     172A     -0.916937   173A     -0.916426   174A     -0.913524  
     175A     -0.910834   176A     -0.901023   177A     -0.900925  
     178A     -0.892451   179A     -0.892352   180A     -0.874418  
     181A     -0.854191   182A     -0.853713   183A     -0.850744  
     184A     -0.849385   185A     -0.849309   186A     -0.847948  
     187A     -0.847897   188A     -0.834318   189A     -0.830668  
     190A     -0.818655   191A     -0.807551   192A     -0.798611  
     193A     -0.794218   194A     -0.793625   195A     -0.792122  
     196A     -0.791514   197A     -0.791082   198A     -0.787172  
     199A     -0.782379   200A     -0.782120   201A     -0.775822  
     202A     -0.770519   203A     -0.765402   204A     -0.765152  
     205A     -0.754776   206A     -0.751463   207A     -0.751326  
     208A     -0.748305   209A     -0.748263   210A     -0.748111  
     211A     -0.746116   212A     -0.743790   213A     -0.742044  
     214A     -0.719003   215A     -0.718646   216A     -0.718260  
     217A     -0.717125   218A     -0.717028   219A     -0.714847  
     220A     -0.709596   221A     -0.709123   222A     -0.705864  
     223A     -0.704330   224A     -0.703635   225A     -0.703207  
     226A     -0.702021   227A     -0.695616   228A     -0.687458  
     229A     -0.679735   230A     -0.679515   231A     -0.678268  
     232A     -0.675127   233A     -0.675032   234A     -0.674918  
     235A     -0.669149   236A     -0.668420   237A     -0.666687  
     238A     -0.666659   239A     -0.666208   240A     -0.664991  
     241A     -0.661583   242A     -0.661225   243A     -0.660920  
     244A     -0.660816   245A     -0.657178   246A     -0.657005  
     247A     -0.656761   248A     -0.643733   249A     -0.643516  
     250A     -0.641116   251A     -0.640893   252A     -0.639358  
     253A     -0.638983   254A     -0.637432   255A     -0.637243  
     256A     -0.632074   257A     -0.631705   258A     -0.626104  
     259A     -0.625596   260A     -0.623855   261A     -0.622231  
     262A     -0.620601   263A     -0.616482   264A     -0.611025  
     265A     -0.610060   266A     -0.605790   267A     -0.605684  
     268A     -0.599891   269A     -0.599700   270A     -0.596617  
     271A     -0.593135   272A     -0.593036   273A     -0.584265  
     274A     -0.583954   275A     -0.580698   276A     -0.580567  
     277A     -0.574331   278A     -0.574190   279A     -0.564173  
     280A     -0.563519   281A     -0.563424   282A     -0.562849  
     283A     -0.562445   284A     -0.560279   285A     -0.554177  
     286A     -0.545891   287A     -0.542036   288A     -0.542032  
     289A     -0.539438   290A     -0.537202   291A     -0.533195  
     292A     -0.533050   293A     -0.526330   294A     -0.516490  
     295A     -0.516169   296A     -0.512502   297A     -0.511829  
     298A     -0.510296   299A     -0.498645   300A     -0.498380  
     301A     -0.483207   302A     -0.475083   303A     -0.474868  
     304A     -0.455248   305A     -0.455065   306A     -0.453373  
     307A     -0.449882   308A     -0.449747   309A     -0.421039  
     310A     -0.420979   311A     -0.417607   312A     -0.411071  
     313A     -0.410865   314A     -0.409741   315A     -0.396690  
     316A     -0.396303   317A     -0.375871   318A     -0.371880  
     319A     -0.371811   320A     -0.366498   321A     -0.351732  
     322A     -0.323189   323A     -0.322684   324A     -0.318746  
     325A     -0.270725   326A     -0.270435  

    Virtual:                                                              

     327A     -0.078465   328A     -0.077986   329A     -0.034886  
     330A     -0.034469   331A     -0.034264   332A     -0.025770  
     333A     -0.025171   334A     -0.022511   335A     -0.012687  
     336A     -0.005353   337A     -0.005124   338A     -0.004825  
     339A     -0.003750   340A     -0.002196   341A     -0.001467  
     342A      0.000592   343A      0.000871   344A      0.001003  
     345A      0.003813   346A      0.003888   347A      0.006190  
     348A      0.008024   349A      0.009449   350A      0.009588  
     351A      0.009739   352A      0.013898   353A      0.014079  
     354A      0.014145   355A      0.015124   356A      0.017189  
     357A      0.018695   358A      0.025113   359A      0.025155  
     360A      0.025203   361A      0.025402   362A      0.026306  
     363A      0.031190   364A      0.033741   365A      0.034375  
     366A      0.034972   367A      0.035366   368A      0.037548  
     369A      0.039628   370A      0.040028   371A      0.042363  
     372A      0.042374   373A      0.043259   374A      0.044550  
     375A      0.049608   376A      0.050680   377A      0.051435  
     378A      0.051626   379A      0.051957   380A      0.052411  
     381A      0.053210   382A      0.053684   383A      0.054149  
     384A      0.055088   385A      0.055412   386A      0.057751  
     387A      0.059883   388A      0.062641   389A      0.063659  
     390A      0.065322   391A      0.068010   392A      0.068502  
     393A      0.071798   394A      0.073048   395A      0.073431  
     396A      0.073861   397A      0.075822   398A      0.076368  
     399A      0.076686   400A      0.078964   401A      0.079634  
     402A      0.081751   403A      0.082003   404A      0.085969  
     405A      0.086074   406A      0.086173   407A      0.088682  
     408A      0.089796   409A      0.090996   410A      0.091042  
     411A      0.095622   412A      0.098500   413A      0.100363  
     414A      0.102527   415A      0.102914   416A      0.103669  
     417A      0.105284   418A      0.105987   419A      0.106716  
     420A      0.107176   421A      0.107267   422A      0.107949  
     423A      0.108653   424A      0.112972   425A      0.113039  
     426A      0.113585   427A      0.113969   428A      0.115032  
     429A      0.116344   430A      0.120604   431A      0.124134  
     432A      0.125240   433A      0.126263   434A      0.126467  
     435A      0.126753   436A      0.128865   437A      0.129287  
     438A      0.130777   439A      0.131500   440A      0.134011  
     441A      0.134741   442A      0.135045   443A      0.135156  
     444A      0.135924   445A      0.136867   446A      0.138715  
     447A      0.142597   448A      0.145694   449A      0.146025  
     450A      0.146142   451A      0.146697   452A      0.147424  
     453A      0.147910   454A      0.148583   455A      0.149030  
     456A      0.149525   457A      0.150897   458A      0.152347  
     459A      0.153168   460A      0.153492   461A      0.153710  
     462A      0.154080   463A      0.155735   464A      0.157543  
     465A      0.158199   466A      0.158804   467A      0.159023  
     468A      0.160713   469A      0.161836   470A      0.162779  
     471A      0.165236   472A      0.165945   473A      0.166227  
     474A      0.166289   475A      0.169505   476A      0.170032  
     477A      0.170832   478A      0.172168   479A      0.172690  
     480A      0.173974   481A      0.174128   482A      0.174321  
     483A      0.176080   484A      0.176702   485A      0.179350  
     486A      0.179555   487A      0.180035   488A      0.182110  
     489A      0.183435   490A      0.184082   491A      0.185132  
     492A      0.185189   493A      0.187263   494A      0.190935  
     495A      0.191853   496A      0.192764   497A      0.193324  
     498A      0.193895   499A      0.194462   500A      0.194548  
     501A      0.195586   502A      0.197705   503A      0.200184  
     504A      0.200382   505A      0.201309   506A      0.202132  
     507A      0.205212   508A      0.206041   509A      0.206196  
     510A      0.207154   511A      0.207360   512A      0.208153  
     513A      0.208287   514A      0.211141   515A      0.211396  
     516A      0.212007   517A      0.213473   518A      0.215662  
     519A      0.216955   520A      0.217361   521A      0.219649  
     522A      0.220025   523A      0.220302   524A      0.221892  
     525A      0.222067   526A      0.224818   527A      0.226112  
     528A      0.227689   529A      0.228046   530A      0.228456  
     531A      0.228654   532A      0.229557   533A      0.231517  
     534A      0.232033   535A      0.232906   536A      0.233691  
     537A      0.234330   538A      0.235882   539A      0.237052  
     540A      0.237623   541A      0.238104   542A      0.238854  
     543A      0.241191   544A      0.243486   545A      0.244203  
     546A      0.244636   547A      0.245614   548A      0.246264  
     549A      0.246580   550A      0.248771   551A      0.251173  
     552A      0.251419   553A      0.252088   554A      0.253844  
     555A      0.255274   556A      0.255630   557A      0.256726  
     558A      0.257860   559A      0.258645   560A      0.258798  
     561A      0.259838   562A      0.260718   563A      0.261804  
     564A      0.262238   565A      0.262481   566A      0.263003  
     567A      0.264611   568A      0.266248   569A      0.267330  
     570A      0.268290   571A      0.268656   572A      0.270148  
     573A      0.271006   574A      0.271293   575A      0.272032  
     576A      0.272458   577A      0.273448   578A      0.274573  
     579A      0.275278   580A      0.275502   581A      0.276074  
     582A      0.278771   583A      0.279053   584A      0.280167  
     585A      0.281873   586A      0.282389   587A      0.283020  
     588A      0.284016   589A      0.286914   590A      0.287281  
     591A      0.287360   592A      0.288172   593A      0.288303  
     594A      0.289937   595A      0.291659   596A      0.293351  
     597A      0.293525   598A      0.295237   599A      0.295519  
     600A      0.296654   601A      0.298191   602A      0.299472  
     603A      0.299686   604A      0.300610   605A      0.300929  
     606A      0.302101   607A      0.303831   608A      0.304218  
     609A      0.307000   610A      0.307650   611A      0.308272  
     612A      0.309023   613A      0.310406   614A      0.311025  
     615A      0.311568   616A      0.312452   617A      0.314269  
     618A      0.314854   619A      0.316028   620A      0.317236  
     621A      0.317618   622A      0.318156   623A      0.319955  
     624A      0.320709   625A      0.320739   626A      0.321359  
     627A      0.321851   628A      0.323237   629A      0.325174  
     630A      0.325386   631A      0.326515   632A      0.327108  
     633A      0.327253   634A      0.328968   635A      0.329386  
     636A      0.329791   637A      0.332008   638A      0.332971  
     639A      0.333250   640A      0.334202   641A      0.334753  
     642A      0.335362   643A      0.336180   644A      0.339875  
     645A      0.340485   646A      0.340761   647A      0.340921  
     648A      0.341556   649A      0.341639   650A      0.342967  
     651A      0.343377   652A      0.343720   653A      0.344190  
     654A      0.345553   655A      0.345812   656A      0.347060  
     657A      0.347705   658A      0.349331   659A      0.349481  
     660A      0.350548   661A      0.351647   662A      0.351958  
     663A      0.352948   664A      0.354102   665A      0.354570  
     666A      0.356373   667A      0.357604   668A      0.358328  
     669A      0.358790   670A      0.359489   671A      0.360554  
     672A      0.363521   673A      0.364031   674A      0.364502  
     675A      0.365027   676A      0.365852   677A      0.367169  
     678A      0.368129   679A      0.368509   680A      0.369514  
     681A      0.370175   682A      0.371896   683A      0.371999  
     684A      0.373263   685A      0.374279   686A      0.375487  
     687A      0.376022   688A      0.377867   689A      0.378624  
     690A      0.379221   691A      0.380260   692A      0.383164  
     693A      0.384732   694A      0.385433   695A      0.387360  
     696A      0.388302   697A      0.389016   698A      0.389793  
     699A      0.391563   700A      0.391859   701A      0.392264  
     702A      0.392433   703A      0.393135   704A      0.394359  
     705A      0.394581   706A      0.395474   707A      0.396164  
     708A      0.398237   709A      0.399914   710A      0.403446  
     711A      0.403788   712A      0.404039   713A      0.405589  
     714A      0.406348   715A      0.407035   716A      0.408355  
     717A      0.408762   718A      0.409697   719A      0.410020  
     720A      0.410370   721A      0.411870   722A      0.412127  
     723A      0.413247   724A      0.414410   725A      0.415022  
     726A      0.416350   727A      0.416657   728A      0.417268  
     729A      0.417953   730A      0.418425   731A      0.422294  
     732A      0.423082   733A      0.425528   734A      0.426922  
     735A      0.427626   736A      0.429822   737A      0.430004  
     738A      0.430771   739A      0.432262   740A      0.433655  
     741A      0.434825   742A      0.435562   743A      0.436218  
     744A      0.437205   745A      0.438875   746A      0.441103  
     747A      0.441345   748A      0.441717   749A      0.442568  
     750A      0.443073   751A      0.444594   752A      0.445991  
     753A      0.447755   754A      0.448791   755A      0.450968  
     756A      0.452707   757A      0.454169   758A      0.455225  
     759A      0.455983   760A      0.456489   761A      0.456814  
     762A      0.459257   763A      0.459550   764A      0.461373  
     765A      0.462524   766A      0.462923   767A      0.465377  
     768A      0.466613   769A      0.467458   770A      0.468341  
     771A      0.469680   772A      0.470411   773A      0.473332  
     774A      0.474748   775A      0.476435   776A      0.477220  
     777A      0.477869   778A      0.482583   779A      0.482885  
     780A      0.484989   781A      0.486899   782A      0.489492  
     783A      0.492762   784A      0.495347   785A      0.496336  
     786A      0.498544   787A      0.498861   788A      0.499716  
     789A      0.500118   790A      0.501384   791A      0.501801  
     792A      0.502749   793A      0.504242   794A      0.506378  
     795A      0.508621   796A      0.510419   797A      0.511228  
     798A      0.513047   799A      0.513971   800A      0.514306  
     801A      0.516426   802A      0.517487   803A      0.517656  
     804A      0.519880   805A      0.520649   806A      0.521474  
     807A      0.522265   808A      0.524455   809A      0.526578  
     810A      0.528016   811A      0.530865   812A      0.531760  
     813A      0.532951   814A      0.534103   815A      0.538646  
     816A      0.539447   817A      0.541239   818A      0.541843  
     819A      0.542515   820A      0.544524   821A      0.545556  
     822A      0.546597   823A      0.551338   824A      0.554705  
     825A      0.557447   826A      0.558672   827A      0.559735  
     828A      0.560283   829A      0.566653   830A      0.567384  
     831A      0.569891   832A      0.570368   833A      0.572695  
     834A      0.575096   835A      0.576807   836A      0.584065  
     837A      0.586287   838A      0.588628   839A      0.589925  
     840A      0.591892   841A      0.593341   842A      0.594445  
     843A      0.595179   844A      0.595880   845A      0.601044  
     846A      0.601529   847A      0.604444   848A      0.606018  
     849A      0.609977   850A      0.614613   851A      0.618688  
     852A      0.621555   853A      0.624216   854A      0.625707  
     855A      0.626057   856A      0.626983   857A      0.628989  
     858A      0.631783   859A      0.632861   860A      0.633941  
     861A      0.636146   862A      0.638827   863A      0.640588  
     864A      0.645823   865A      0.647536   866A      0.659305  
     867A      0.666302   868A      0.670014   869A      0.671734  
     870A      0.674336   871A      0.674616   872A      0.675301  
     873A      0.678436   874A      0.679080   875A      0.680471  
     876A      0.685428   877A      0.688511   878A      0.698036  
     879A      0.699962   880A      0.711447   881A      0.713193  
     882A      0.719920   883A      0.722203   884A      0.722660  
     885A      0.724889   886A      0.727010   887A      0.728462  
     888A      0.730846   889A      0.732311   890A      0.736751  
     891A      0.738335   892A      0.739946   893A      0.743072  
     894A      0.744399   895A      0.745983   896A      0.750324  
     897A      0.752180   898A      0.753420   899A      0.755435  
     900A      0.755730   901A      0.757786   902A      0.758696  
     903A      0.759749   904A      0.761828   905A      0.764330  
     906A      0.765198   907A      0.766144   908A      0.767168  
     909A      0.769500   910A      0.771182   911A      0.772760  
     912A      0.773869   913A      0.777661   914A      0.781047  
     915A      0.783137   916A      0.783477   917A      0.785006  
     918A      0.786655   919A      0.789947   920A      0.792016  
     921A      0.792690   922A      0.793162   923A      0.796453  
     924A      0.799365   925A      0.800062   926A      0.801640  
     927A      0.803543   928A      0.806547   929A      0.806889  
     930A      0.809114   931A      0.810525   932A      0.813182  
     933A      0.813318   934A      0.814103   935A      0.814228  
     936A      0.816464   937A      0.821575   938A      0.822900  
     939A      0.823632   940A      0.824289   941A      0.824975  
     942A      0.826006   943A      0.827586   944A      0.828653  
     945A      0.830229   946A      0.831031   947A      0.834185  
     948A      0.836637   949A      0.839236   950A      0.843025  
     951A      0.843624   952A      0.844708   953A      0.845231  
     954A      0.846479   955A      0.850486   956A      0.852446  
     957A      0.852633   958A      0.853936   959A      0.855403  
     960A      0.856063   961A      0.856560   962A      0.858217  
     963A      0.859879   964A      0.861044   965A      0.861567  
     966A      0.863390   967A      0.865207   968A      0.865598  
     969A      0.867867   970A      0.868661   971A      0.870514  
     972A      0.872186   973A      0.873063   974A      0.874057  
     975A      0.875919   976A      0.878074   977A      0.879435  
     978A      0.880610   979A      0.881423   980A      0.882611  
     981A      0.886170   982A      0.887985   983A      0.888869  
     984A      0.890269   985A      0.890400   986A      0.891609  
     987A      0.893583   988A      0.894473   989A      0.895009  
     990A      0.895983   991A      0.896800   992A      0.898264  
     993A      0.900520   994A      0.902808   995A      0.903914  
     996A      0.905452   997A      0.907760   998A      0.909777  
     999A      0.913663  1000A      0.916256  1001A      0.917114  
    1002A      0.919821  1003A      0.921643  1004A      0.925893  
    1005A      0.926363  1006A      0.927628  1007A      0.930723  
    1008A      0.931620  1009A      0.933662  1010A      0.937206  
    1011A      0.937970  1012A      0.938999  1013A      0.940392  
    1014A      0.940991  1015A      0.942709  1016A      0.943868  
    1017A      0.944914  1018A      0.947762  1019A      0.948709  
    1020A      0.950209  1021A      0.950995  1022A      0.952445  
    1023A      0.954732  1024A      0.955631  1025A      0.958201  
    1026A      0.959523  1027A      0.960622  1028A      0.962226  
    1029A      0.964272  1030A      0.965882  1031A      0.967574  
    1032A      0.969367  1033A      0.970713  1034A      0.971901  
    1035A      0.973180  1036A      0.974539  1037A      0.976481  
    1038A      0.976933  1039A      0.981541  1040A      0.982507  
    1041A      0.982928  1042A      0.984547  1043A      0.986241  
    1044A      0.986722  1045A      0.987049  1046A      0.988805  
    1047A      0.989270  1048A      0.989603  1049A      0.991661  
    1050A      0.993996  1051A      0.994947  1052A      0.995210  
    1053A      0.996615  1054A      0.996705  1055A      0.998155  
    1056A      1.000861  1057A      1.002031  1058A      1.002703  
    1059A      1.003460  1060A      1.003926  1061A      1.005972  
    1062A      1.006834  1063A      1.007731  1064A      1.008414  
    1065A      1.008633  1066A      1.009180  1067A      1.009975  
    1068A      1.010834  1069A      1.010930  1070A      1.011566  
    1071A      1.013313  1072A      1.014524  1073A      1.015327  
    1074A      1.015755  1075A      1.016873  1076A      1.018679  
    1077A      1.019367  1078A      1.020254  1079A      1.020704  
    1080A      1.021773  1081A      1.022566  1082A      1.023563  
    1083A      1.023759  1084A      1.024461  1085A      1.025617  
    1086A      1.027174  1087A      1.027617  1088A      1.028552  
    1089A      1.029233  1090A      1.031245  1091A      1.032527  
    1092A      1.033984  1093A      1.034424  1094A      1.035103  
    1095A      1.037570  1096A      1.038293  1097A      1.039556  
    1098A      1.041204  1099A      1.043722  1100A      1.044778  
    1101A      1.047010  1102A      1.048259  1103A      1.049823  
    1104A      1.051306  1105A      1.052491  1106A      1.052872  
    1107A      1.054537  1108A      1.056816  1109A      1.058229  
    1110A      1.058804  1111A      1.060592  1112A      1.062729  
    1113A      1.065877  1114A      1.067965  1115A      1.068733  
    1116A      1.070061  1117A      1.070839  1118A      1.072279  
    1119A      1.074166  1120A      1.074725  1121A      1.076912  
    1122A      1.080040  1123A      1.080901  1124A      1.081808  
    1125A      1.083026  1126A      1.084856  1127A      1.086187  
    1128A      1.089138  1129A      1.090301  1130A      1.091260  
    1131A      1.091916  1132A      1.093449  1133A      1.095817  
    1134A      1.099721  1135A      1.099958  1136A      1.101577  
    1137A      1.103783  1138A      1.105051  1139A      1.107764  
    1140A      1.108674  1141A      1.113646  1142A      1.116127  
    1143A      1.116933  1144A      1.118146  1145A      1.119322  
    1146A      1.120981  1147A      1.122550  1148A      1.125591  
    1149A      1.126897  1150A      1.129995  1151A      1.131190  
    1152A      1.132085  1153A      1.132968  1154A      1.135272  
    1155A      1.138569  1156A      1.140692  1157A      1.143415  
    1158A      1.147046  1159A      1.147559  1160A      1.149774  
    1161A      1.152770  1162A      1.153860  1163A      1.154785  
    1164A      1.158602  1165A      1.158960  1166A      1.159635  
    1167A      1.165113  1168A      1.165832  1169A      1.167676  
    1170A      1.168706  1171A      1.170954  1172A      1.174776  
    1173A      1.178033  1174A      1.178643  1175A      1.180980  
    1176A      1.186727  1177A      1.187233  1178A      1.187637  
    1179A      1.188764  1180A      1.194708  1181A      1.195799  
    1182A      1.197953  1183A      1.198155  1184A      1.200369  
    1185A      1.204367  1186A      1.205154  1187A      1.208117  
    1188A      1.210028  1189A      1.210534  1190A      1.218280  
    1191A      1.221658  1192A      1.223479  1193A      1.225364  
    1194A      1.226472  1195A      1.227079  1196A      1.228918  
    1197A      1.228993  1198A      1.230182  1199A      1.231795  
    1200A      1.234443  1201A      1.236826  1202A      1.239002  
    1203A      1.240214  1204A      1.243272  1205A      1.245904  
    1206A      1.248601  1207A      1.249046  1208A      1.250927  
    1209A      1.251427  1210A      1.253746  1211A      1.254910  
    1212A      1.255888  1213A      1.257248  1214A      1.258382  
    1215A      1.259316  1216A      1.260506  1217A      1.262465  
    1218A      1.263646  1219A      1.266519  1220A      1.266729  
    1221A      1.268853  1222A      1.270823  1223A      1.272980  
    1224A      1.274201  1225A      1.274474  1226A      1.275602  
    1227A      1.280000  1228A      1.281565  1229A      1.287958  
    1230A      1.288118  1231A      1.292039  1232A      1.294504  
    1233A      1.295933  1234A      1.299639  1235A      1.299965  
    1236A      1.301788  1237A      1.304330  1238A      1.304943  
    1239A      1.306823  1240A      1.310204  1241A      1.310850  
    1242A      1.311967  1243A      1.313279  1244A      1.315016  
    1245A      1.319267  1246A      1.321472  1247A      1.326452  
    1248A      1.329677  1249A      1.332066  1250A      1.334487  
    1251A      1.335841  1252A      1.337778  1253A      1.342248  
    1254A      1.343971  1255A      1.344681  1256A      1.348059  
    1257A      1.348937  1258A      1.349528  1259A      1.351426  
    1260A      1.352130  1261A      1.355407  1262A      1.361168  
    1263A      1.362037  1264A      1.363722  1265A      1.365138  
    1266A      1.365253  1267A      1.366444  1268A      1.368095  
    1269A      1.369774  1270A      1.372302  1271A      1.373376  
    1272A      1.375672  1273A      1.377254  1274A      1.377480  
    1275A      1.378929  1276A      1.381408  1277A      1.382873  
    1278A      1.383086  1279A      1.388553  1280A      1.389446  
    1281A      1.389489  1282A      1.391676  1283A      1.393358  
    1284A      1.397724  1285A      1.402869  1286A      1.403913  
    1287A      1.405572  1288A      1.407148  1289A      1.408398  
    1290A      1.410463  1291A      1.413478  1292A      1.418526  
    1293A      1.420032  1294A      1.422686  1295A      1.423377  
    1296A      1.424301  1297A      1.426237  1298A      1.430120  
    1299A      1.438678  1300A      1.438764  1301A      1.440032  
    1302A      1.440329  1303A      1.449461  1304A      1.450853  
    1305A      1.454641  1306A      1.463667  1307A      1.469984  
    1308A      1.471785  1309A      1.475933  1310A      1.476622  
    1311A      1.482977  1312A      1.484695  1313A      1.489161  
    1314A      1.508723  1315A      1.513976  1316A      1.516668  
    1317A      1.518611  1318A      1.523786  1319A      1.524877  
    1320A      1.530755  1321A      1.532918  1322A      1.536410  
    1323A      1.537729  1324A      1.540479  1325A      1.540943  
    1326A      1.542244  1327A      1.543292  1328A      1.544332  
    1329A      1.545824  1330A      1.547815  1331A      1.548156  
    1332A      1.549712  1333A      1.551141  1334A      1.553850  
    1335A      1.555184  1336A      1.556909  1337A      1.557953  
    1338A      1.558577  1339A      1.560069  1340A      1.561123  
    1341A      1.564146  1342A      1.565463  1343A      1.565524  
    1344A      1.566658  1345A      1.568049  1346A      1.568781  
    1347A      1.571509  1348A      1.572204  1349A      1.573897  
    1350A      1.574163  1351A      1.575423  1352A      1.577972  
    1353A      1.578416  1354A      1.581684  1355A      1.581949  
    1356A      1.586751  1357A      1.588164  1358A      1.590002  
    1359A      1.591674  1360A      1.592832  1361A      1.594456  
    1362A      1.595963  1363A      1.596549  1364A      1.598815  
    1365A      1.600461  1366A      1.600997  1367A      1.602033  
    1368A      1.602817  1369A      1.605254  1370A      1.607739  
    1371A      1.609577  1372A      1.610496  1373A      1.611276  
    1374A      1.612959  1375A      1.621780  1376A      1.622471  
    1377A      1.624387  1378A      1.625151  1379A      1.627862  
    1380A      1.631145  1381A      1.632658  1382A      1.632815  
    1383A      1.637022  1384A      1.639022  1385A      1.640940  
    1386A      1.643047  1387A      1.643906  1388A      1.647157  
    1389A      1.648492  1390A      1.649858  1391A      1.651073  
    1392A      1.653091  1393A      1.654322  1394A      1.656296  
    1395A      1.657231  1396A      1.659035  1397A      1.661307  
    1398A      1.667197  1399A      1.674210  1400A      1.675582  
    1401A      1.679996  1402A      1.681871  1403A      1.682699  
    1404A      1.685074  1405A      1.689531  1406A      1.692854  
    1407A      1.697775  1408A      1.699993  1409A      1.704841  
    1410A      1.709976  1411A      1.714815  1412A      1.716823  
    1413A      1.723219  1414A      1.723592  1415A      1.728966  
    1416A      1.730583  1417A      1.731649  1418A      1.732938  
    1419A      1.740151  1420A      1.743492  1421A      1.755515  
    1422A      1.758758  1423A      1.761759  1424A      1.763141  
    1425A      1.765062  1426A      1.765771  1427A      1.766984  
    1428A      1.768786  1429A      1.770040  1430A      1.771084  
    1431A      1.772356  1432A      1.773202  1433A      1.781068  
    1434A      1.781911  1435A      1.784962  1436A      1.786503  
    1437A      1.792748  1438A      1.793214  1439A      1.794315  
    1440A      1.795148  1441A      1.796888  1442A      1.799328  
    1443A      1.802297  1444A      1.803660  1445A      1.805755  
    1446A      1.805943  1447A      1.806775  1448A      1.807362  
    1449A      1.812199  1450A      1.813061  1451A      1.815338  
    1452A      1.817347  1453A      1.817605  1454A      1.819558  
    1455A      1.820569  1456A      1.821318  1457A      1.821969  
    1458A      1.822213  1459A      1.822403  1460A      1.825911  
    1461A      1.831249  1462A      1.832187  1463A      1.840233  
    1464A      1.841449  1465A      1.843501  1466A      1.843969  
    1467A      1.846260  1468A      1.846353  1469A      1.847895  
    1470A      1.853142  1471A      1.853819  1472A      1.854452  
    1473A      1.855866  1474A      1.856806  1475A      1.857981  
    1476A      1.861477  1477A      1.864194  1478A      1.866104  
    1479A      1.869047  1480A      1.871347  1481A      1.873050  
    1482A      1.873692  1483A      1.874866  1484A      1.876054  
    1485A      1.877290  1486A      1.880083  1487A      1.880745  
    1488A      1.884756  1489A      1.885182  1490A      1.886659  
    1491A      1.888405  1492A      1.889381  1493A      1.892437  
    1494A      1.893440  1495A      1.895812  1496A      1.896701  
    1497A      1.897823  1498A      1.899262  1499A      1.901996  
    1500A      1.904110  1501A      1.904364  1502A      1.906284  
    1503A      1.909189  1504A      1.911379  1505A      1.912678  
    1506A      1.915648  1507A      1.916354  1508A      1.917310  
    1509A      1.920892  1510A      1.923601  1511A      1.925281  
    1512A      1.927918  1513A      1.929132  1514A      1.930970  
    1515A      1.932898  1516A      1.936532  1517A      1.940860  
    1518A      1.943413  1519A      1.944065  1520A      1.947238  
    1521A      1.947766  1522A      1.949649  1523A      1.951095  
    1524A      1.951761  1525A      1.952743  1526A      1.953834  
    1527A      1.954516  1528A      1.957639  1529A      1.958431  
    1530A      1.959391  1531A      1.960076  1532A      1.963939  
    1533A      1.964367  1534A      1.969814  1535A      1.970779  
    1536A      1.972317  1537A      1.975001  1538A      1.976259  
    1539A      1.978172  1540A      1.979802  1541A      1.980357  
    1542A      1.984217  1543A      1.986259  1544A      1.988739  
    1545A      1.989304  1546A      1.991035  1547A      1.993180  
    1548A      1.995815  1549A      1.997063  1550A      1.998641  
    1551A      2.000600  1552A      2.001704  1553A      2.003783  
    1554A      2.005000  1555A      2.005823  1556A      2.009992  
    1557A      2.013742  1558A      2.014665  1559A      2.015650  
    1560A      2.016242  1561A      2.017685  1562A      2.018814  
    1563A      2.018976  1564A      2.021056  1565A      2.021447  
    1566A      2.021767  1567A      2.022714  1568A      2.023138  
    1569A      2.025865  1570A      2.026646  1571A      2.027153  
    1572A      2.028070  1573A      2.029024  1574A      2.029670  
    1575A      2.030213  1576A      2.032039  1577A      2.033080  
    1578A      2.034960  1579A      2.036235  1580A      2.037706  
    1581A      2.039304  1582A      2.043382  1583A      2.044316  
    1584A      2.046975  1585A      2.048301  1586A      2.048410  
    1587A      2.049574  1588A      2.051991  1589A      2.052655  
    1590A      2.054614  1591A      2.055251  1592A      2.058265  
    1593A      2.058590  1594A      2.059371  1595A      2.061415  
    1596A      2.062800  1597A      2.063265  1598A      2.063968  
    1599A      2.065076  1600A      2.065600  1601A      2.067207  
    1602A      2.070953  1603A      2.073430  1604A      2.074788  
    1605A      2.075995  1606A      2.079987  1607A      2.080290  
    1608A      2.080848  1609A      2.083631  1610A      2.084874  
    1611A      2.089115  1612A      2.091471  1613A      2.092443  
    1614A      2.094635  1615A      2.095009  1616A      2.097129  
    1617A      2.098738  1618A      2.100073  1619A      2.102108  
    1620A      2.103344  1621A      2.106056  1622A      2.111949  
    1623A      2.112381  1624A      2.113758  1625A      2.116147  
    1626A      2.118257  1627A      2.118947  1628A      2.121667  
    1629A      2.122574  1630A      2.124627  1631A      2.125412  
    1632A      2.126970  1633A      2.127746  1634A      2.128911  
    1635A      2.130830  1636A      2.134784  1637A      2.135457  
    1638A      2.135866  1639A      2.137083  1640A      2.139195  
    1641A      2.143566  1642A      2.147331  1643A      2.147930  
    1644A      2.149593  1645A      2.150629  1646A      2.153138  
    1647A      2.153751  1648A      2.156345  1649A      2.157344  
    1650A      2.158794  1651A      2.161399  1652A      2.163078  
    1653A      2.164478  1654A      2.166050  1655A      2.167811  
    1656A      2.168382  1657A      2.170845  1658A      2.171361  
    1659A      2.171802  1660A      2.174055  1661A      2.176451  
    1662A      2.179636  1663A      2.182924  1664A      2.187069  
    1665A      2.188513  1666A      2.189813  1667A      2.199924  
    1668A      2.200974  1669A      2.204221  1670A      2.205223  
    1671A      2.208817  1672A      2.212357  1673A      2.214223  
    1674A      2.216056  1675A      2.217559  1676A      2.218792  
    1677A      2.221792  1678A      2.227740  1679A      2.228238  
    1680A      2.229789  1681A      2.233066  1682A      2.236404  
    1683A      2.240208  1684A      2.246656  1685A      2.247247  
    1686A      2.249711  1687A      2.259575  1688A      2.260018  
    1689A      2.261070  1690A      2.264291  1691A      2.264859  
    1692A      2.265761  1693A      2.266030  1694A      2.267511  
    1695A      2.268034  1696A      2.270544  1697A      2.273631  
    1698A      2.275110  1699A      2.275661  1700A      2.276354  
    1701A      2.277799  1702A      2.279794  1703A      2.280154  
    1704A      2.281420  1705A      2.281979  1706A      2.284586  
    1707A      2.286632  1708A      2.294382  1709A      2.303931  
    1710A      2.311040  1711A      2.314687  1712A      2.319010  
    1713A      2.320130  1714A      2.323476  1715A      2.329302  
    1716A      2.330802  1717A      2.336242  1718A      2.347303  
    1719A      2.352733  1720A      2.354756  1721A      2.358460  
    1722A      2.361561  1723A      2.364164  1724A      2.368753  
    1725A      2.377146  1726A      2.381487  1727A      2.384649  
    1728A      2.390347  1729A      2.394034  1730A      2.399921  
    1731A      2.400335  1732A      2.402807  1733A      2.403545  
    1734A      2.406678  1735A      2.407106  1736A      2.426108  
    1737A      2.427872  1738A      2.428760  1739A      2.438191  
    1740A      2.439671  1741A      2.442724  1742A      2.446672  
    1743A      2.447897  1744A      2.449864  1745A      2.459553  
    1746A      2.471892  1747A      2.473586  1748A      2.475213  
    1749A      2.476836  1750A      2.478741  1751A      2.480883  
    1752A      2.482391  1753A      2.484618  1754A      2.485780  
    1755A      2.486443  1756A      2.486950  1757A      2.487419  
    1758A      2.498282  1759A      2.506436  1760A      2.509140  
    1761A      2.519162  1762A      2.520805  1763A      2.522784  
    1764A      2.523177  1765A      2.524123  1766A      2.525680  
    1767A      2.527187  1768A      2.527784  1769A      2.533752  
    1770A      2.536936  1771A      2.537482  1772A      2.545230  
    1773A      2.545626  1774A      2.549025  1775A      2.550283  
    1776A      2.550595  1777A      2.554876  1778A      2.556102  
    1779A      2.566776  1780A      2.570228  1781A      2.574236  
    1782A      2.576255  1783A      2.579304  1784A      2.579620  
    1785A      2.580730  1786A      2.583346  1787A      2.585797  
    1788A      2.586610  1789A      2.593616  1790A      2.594088  
    1791A      2.595470  1792A      2.596515  1793A      2.603706  
    1794A      2.607572  1795A      2.608859  1796A      2.610904  
    1797A      2.613782  1798A      2.616545  1799A      2.617961  
    1800A      2.620630  1801A      2.622959  1802A      2.624391  
    1803A      2.625541  1804A      2.625950  1805A      2.628193  
    1806A      2.628659  1807A      2.631315  1808A      2.632709  
    1809A      2.643416  1810A      2.656254  1811A      2.658739  
    1812A      2.662047  1813A      2.665078  1814A      2.666243  
    1815A      2.667278  1816A      2.668955  1817A      2.686250  
    1818A      2.691087  1819A      2.691816  1820A      2.698684  
    1821A      2.707845  1822A      2.711414  1823A      2.713109  
    1824A      2.717307  1825A      2.730767  1826A      2.731698  
    1827A      2.733465  1828A      2.734291  1829A      2.735740  
    1830A      2.741033  1831A      2.742602  1832A      2.744039  
    1833A      2.746176  1834A      2.746841  1835A      2.750598  
    1836A      2.754675  1837A      2.757054  1838A      2.762962  
    1839A      2.767662  1840A      2.772448  1841A      2.775755  
    1842A      2.775880  1843A      2.779596  1844A      2.781406  
    1845A      2.789687  1846A      2.792149  1847A      2.797754  
    1848A      2.797967  1849A      2.801152  1850A      2.804645  
    1851A      2.808612  1852A      2.815126  1853A      2.821257  
    1854A      2.823676  1855A      2.824556  1856A      2.828272  
    1857A      2.847478  1858A      2.855655  1859A      2.856156  
    1860A      2.867139  1861A      2.867953  1862A      2.869058  
    1863A      2.871966  1864A      2.890153  1865A      2.903656  
    1866A      2.904751  1867A      2.908757  1868A      2.913060  
    1869A      2.916652  1870A      2.931048  1871A      2.934608  
    1872A      2.962306  1873A      2.963837  1874A      2.969506  
    1875A      2.978464  1876A      2.979602  1877A      2.984092  
    1878A      2.985862  1879A      2.990843  1880A      2.991366  
    1881A      2.995590  1882A      3.005698  1883A      3.008200  
    1884A      3.008386  1885A      3.045236  1886A      3.048420  
    1887A      3.051778  1888A      3.058293  1889A      3.059051  
    1890A      3.065106  1891A      3.067040  1892A      3.072289  
    1893A      3.079127  1894A      3.079797  1895A      3.081440  
    1896A      3.088264  1897A      3.090744  1898A      3.090986  
    1899A      3.091874  1900A      3.094521  1901A      3.098483  
    1902A      3.099792  1903A      3.112443  1904A      3.113224  
    1905A      3.115863  1906A      3.116991  1907A      3.131404  
    1908A      3.132007  1909A      3.139866  1910A      3.158361  
    1911A      3.193666  1912A      3.195857  1913A      3.197157  
    1914A      3.199950  1915A      3.201223  1916A      3.205803  
    1917A      3.207402  1918A      3.211193  1919A      3.212042  
    1920A      3.214274  1921A      3.230450  1922A      3.237961  
    1923A      3.243411  1924A      3.256187  1925A      3.294216  
    1926A      3.296570  1927A      3.326564  1928A      3.350459  
    1929A      3.356280  1930A      3.378878  1931A      3.385922  
    1932A      3.389708  1933A      3.391798  1934A      3.399052  
    1935A      3.400467  1936A      3.406683  1937A      3.410567  
    1938A      3.418187  1939A      3.421137  1940A      3.429201  
    1941A      3.445305  1942A      3.447952  1943A      3.485975  
    1944A      3.512123  1945A      3.515243  1946A      3.520761  
    1947A      3.524449  1948A      3.545746  1949A      3.580593  
    1950A      3.590753  1951A      3.604160  1952A      3.609099  
    1953A      3.611329  1954A      3.640371  1955A      3.685679  
    1956A      3.692992  1957A      3.697890  1958A      3.710507  
    1959A      3.714136  1960A      3.723197  1961A      3.781358  
    1962A      3.782693  1963A      3.808991  1964A      3.812138  
    1965A      3.849676  1966A      3.860804  1967A      3.875678  
    1968A      3.882252  1969A      3.884655  1970A      3.896765  
    1971A      3.901089  1972A      3.909818  1973A      3.913273  
    1974A      3.954345  1975A      3.956532  1976A      4.012385  
    1977A      4.234928  1978A      4.341846  1979A      4.366178  

    Final Occupation by Irrep:
              A 
    DOCC [   326 ]
    NA   [   326 ]
    NB   [   326 ]

  @DF-RHF Final Energy: -3953.65905343295617

   => Energetics <=

    Nuclear Repulsion Energy =          18275.8347249481703329
    One-Electron Energy =              -41756.0701198936512810
    Two-Electron Energy =               19526.5763415125256870
    Total Energy =                      -3953.6590534329552611

Computation Completed


Properties will be evaluated at   0.000000,   0.000000,   0.000000 [a0]

Properties computed using the SCF density matrix


 Multipole Moments:

 ------------------------------------------------------------------------------------
     Multipole            Electronic (a.u.)      Nuclear  (a.u.)        Total (a.u.)
 ------------------------------------------------------------------------------------

 L = 1.  Multiply by 2.5417464519 to convert [e a0] to [Debye]
 Dipole X            :         -0.0019226            0.0004804           -0.0014422
 Dipole Y            :         -0.0515684            0.0561130            0.0045446
 Dipole Z            :         18.5902418          -23.6212722           -5.0310305
 Magnitude           :                                                    5.0310327

 ------------------------------------------------------------------------------------

*** tstop() called on n2cn0492 at Sat Jan 27 01:19:40 2024
Module time:
	user time   =   28797.85 seconds =     479.96 minutes
	system time =    2720.08 seconds =      45.33 minutes
	total time  =       5886 seconds =      98.10 minutes
Total time:
	user time   =   28797.85 seconds =     479.96 minutes
	system time =    2720.08 seconds =      45.33 minutes
	total time  =       5886 seconds =      98.10 minutes

  //>>>>>>>>>>>>>>>>>>>>>>>>>>>>>>>>>>>//
  //            Monomer A HF           //
  //<<<<<<<<<<<<<<<<<<<<<<<<<<<<<<<<<<<//

   => Libint2 <=

    Primary   basis highest AM E, G, H:  5, 4, 3
    Auxiliary basis highest AM E, G, H:  6, 5, 4
    Onebody   basis highest AM E, G, H:  6, 5, 4
    Solid Harmonics ordering:            gaussian

*** tstart() called on n2cn0492
*** at Sat Jan 27 01:19:40 2024

   => Loading Basis Set <=

    Name: JUN-CC-PVDZ
    Role: ORBITAL
    Keyword: BASIS
    atoms 1-2, 4-5, 10, 17-34, 41-53, 56-70, 73-89, 92-104, 109-119, 122-130 entry C          line   164 file /opt/software/pc2/EB-SW/software/PSI4/1.9-foss-2022a/share/psi4/basis/jun-cc-pvdz.gbs 
    atoms 3, 6                                                               entry N          line   198 file /opt/software/pc2/EB-SW/software/PSI4/1.9-foss-2022a/share/psi4/basis/jun-cc-pvdz.gbs 
    atoms 7-9, 11-16, 35-40, 54-55, 71-72, 90-91, 105-108, 120-121, 131-136  entry H          line    36 file /opt/software/pc2/EB-SW/software/PSI4/1.9-foss-2022a/share/psi4/basis/jun-cc-pvdz.gbs 


         ---------------------------------------------------------
                                   SCF
               by Justin Turney, Rob Parrish, Andy Simmonett
                          and Daniel G. A. Smith
                              RHF Reference
                       16 Threads,  61035 MiB Core
         ---------------------------------------------------------

  ==> Geometry <==

    Molecular point group: c1
    Full point group: C1

    Geometry (in Angstrom), charge = 1, multiplicity = 1:

       Center              X                  Y                   Z               Mass       
    ------------   -----------------  -----------------  -----------------  -----------------
         C            0.680062820275    -0.008027535675    -5.095717220331    12.000000000000
         C           -0.680508179725    -0.005999535675    -5.095333220331    12.000000000000
         N           -1.085639179725    -0.005001535675    -3.777009220331    14.003074004430
[...]
    1588A      2.202670  1589A      2.204367  1590A      2.205831  
    1591A      2.206674  1592A      2.209369  1593A      2.210862  
    1594A      2.211835  1595A      2.215360  1596A      2.217099  
    1597A      2.219689  1598A      2.221577  1599A      2.222844  
    1600A      2.224889  1601A      2.226152  1602A      2.227222  
    1603A      2.230343  1604A      2.231557  1605A      2.232146  
    1606A      2.232794  1607A      2.237420  1608A      2.239083  
    1609A      2.240047  1610A      2.241180  1611A      2.243522  
    1612A      2.244131  1613A      2.245976  1614A      2.247637  
    1615A      2.249305  1616A      2.250836  1617A      2.257680  
    1618A      2.259302  1619A      2.261318  1620A      2.265397  
    1621A      2.267695  1622A      2.271023  1623A      2.272285  
    1624A      2.276710  1625A      2.281683  1626A      2.283285  
    1627A      2.284232  1628A      2.284573  1629A      2.286013  
    1630A      2.290424  1631A      2.293326  1632A      2.295522  
    1633A      2.297636  1634A      2.298116  1635A      2.302785  
    1636A      2.304452  1637A      2.308256  1638A      2.317620  
    1639A      2.321031  1640A      2.324846  1641A      2.325918  
    1642A      2.327699  1643A      2.330554  1644A      2.330824  
    1645A      2.331952  1646A      2.333208  1647A      2.334422  
    1648A      2.335168  1649A      2.336143  1650A      2.340910  
    1651A      2.341521  1652A      2.342427  1653A      2.344074  
    1654A      2.345663  1655A      2.346354  1656A      2.346823  
    1657A      2.347471  1658A      2.349973  1659A      2.353972  
    1660A      2.362496  1661A      2.365096  1662A      2.372371  
    1663A      2.381250  1664A      2.384739  1665A      2.387386  
    1666A      2.391860  1667A      2.394802  1668A      2.397903  
    1669A      2.403256  1670A      2.404671  1671A      2.410663  
    1672A      2.416728  1673A      2.419082  1674A      2.425094  
    1675A      2.427630  1676A      2.432036  1677A      2.435284  
    1678A      2.438875  1679A      2.442028  1680A      2.445464  
    1681A      2.451094  1682A      2.453367  1683A      2.456428  
    1684A      2.460335  1685A      2.464814  1686A      2.466902  
    1687A      2.468995  1688A      2.471069  1689A      2.472208  
    1690A      2.472460  1691A      2.486543  1692A      2.491957  
    1693A      2.493100  1694A      2.501803  1695A      2.502756  
    1696A      2.506496  1697A      2.508791  1698A      2.514916  
    1699A      2.516811  1700A      2.524030  1701A      2.525672  
    1702A      2.539347  1703A      2.539726  1704A      2.540979  
    1705A      2.542021  1706A      2.542263  1707A      2.548034  
    1708A      2.549172  1709A      2.549734  1710A      2.551594  
    1711A      2.554328  1712A      2.557034  1713A      2.557399  
    1714A      2.564606  1715A      2.566195  1716A      2.570645  
    1717A      2.572138  1718A      2.575436  1719A      2.582910  
    1720A      2.585659  1721A      2.586096  1722A      2.586229  
    1723A      2.586510  1724A      2.589509  1725A      2.590621  
    1726A      2.593388  1727A      2.594558  1728A      2.597442  
    1729A      2.601400  1730A      2.604359  1731A      2.612249  
    1732A      2.614658  1733A      2.615398  1734A      2.615518  
    1735A      2.618757  1736A      2.621301  1737A      2.621356  
    1738A      2.627531  1739A      2.635974  1740A      2.639956  
    1741A      2.643498  1742A      2.644759  1743A      2.646419  
    1744A      2.647228  1745A      2.649638  1746A      2.651022  
    1747A      2.653140  1748A      2.658300  1749A      2.659105  
    1750A      2.663219  1751A      2.666465  1752A      2.671615  
    1753A      2.672264  1754A      2.674788  1755A      2.676802  
    1756A      2.679060  1757A      2.679181  1758A      2.684145  
    1759A      2.687325  1760A      2.688525  1761A      2.691060  
    1762A      2.691769  1763A      2.692974  1764A      2.693654  
    1765A      2.695530  1766A      2.697259  1767A      2.698229  
    1768A      2.709144  1769A      2.715848  1770A      2.721823  
    1771A      2.723008  1772A      2.724651  1773A      2.729959  
    1774A      2.731787  1775A      2.732578  1776A      2.734757  
    1777A      2.738385  1778A      2.746570  1779A      2.759054  
    1780A      2.759895  1781A      2.763470  1782A      2.771744  
    1783A      2.780635  1784A      2.781418  1785A      2.785163  
    1786A      2.792967  1787A      2.797440  1788A      2.800446  
    1789A      2.800632  1790A      2.802636  1791A      2.802667  
    1792A      2.804558  1793A      2.810223  1794A      2.814865  
    1795A      2.816628  1796A      2.817153  1797A      2.818259  
    1798A      2.819067  1799A      2.826646  1800A      2.827978  
    1801A      2.834678  1802A      2.835566  1803A      2.843765  
    1804A      2.844947  1805A      2.846376  1806A      2.849676  
    1807A      2.853659  1808A      2.866631  1809A      2.867554  
    1810A      2.873071  1811A      2.874964  1812A      2.878157  
    1813A      2.896250  1814A      2.897100  1815A      2.913746  
    1816A      2.918565  1817A      2.919261  1818A      2.925195  
    1819A      2.926786  1820A      2.935502  1821A      2.935904  
    1822A      2.938441  1823A      2.946904  1824A      2.950618  
    1825A      2.956199  1826A      2.964829  1827A      2.970112  
    1828A      2.977373  1829A      2.977574  1830A      2.984063  
    1831A      2.994757  1832A      2.996943  1833A      3.005142  
    1834A      3.026482  1835A      3.031378  1836A      3.035455  
    1837A      3.038415  1838A      3.043618  1839A      3.045349  
    1840A      3.049688  1841A      3.055405  1842A      3.058017  
    1843A      3.058865  1844A      3.060880  1845A      3.068245  
    1846A      3.073888  1847A      3.091105  1848A      3.101122  
    1849A      3.109745  1850A      3.111060  1851A      3.116502  
    1852A      3.122946  1853A      3.125002  1854A      3.131225  
    1855A      3.132823  1856A      3.141802  1857A      3.143952  
    1858A      3.144643  1859A      3.147747  1860A      3.151434  
    1861A      3.153909  1862A      3.155194  1863A      3.156658  
    1864A      3.162797  1865A      3.163883  1866A      3.168582  
    1867A      3.171897  1868A      3.175436  1869A      3.179950  
    1870A      3.180588  1871A      3.195491  1872A      3.197244  
    1873A      3.212734  1874A      3.221165  1875A      3.259190  
    1876A      3.263754  1877A      3.264089  1878A      3.266593  
    1879A      3.268145  1880A      3.269647  1881A      3.274224  
    1882A      3.276112  1883A      3.277099  1884A      3.279939  
    1885A      3.298475  1886A      3.304499  1887A      3.307008  
    1888A      3.311014  1889A      3.317084  1890A      3.362476  
    1891A      3.364114  1892A      3.366176  1893A      3.395613  
    1894A      3.411695  1895A      3.424036  1896A      3.436406  
    1897A      3.453449  1898A      3.455037  1899A      3.460222  
    1900A      3.462233  1901A      3.470205  1902A      3.474968  
    1903A      3.476398  1904A      3.480072  1905A      3.488666  
    1906A      3.492893  1907A      3.497594  1908A      3.515117  
    1909A      3.519499  1910A      3.526535  1911A      3.552982  
    1912A      3.561146  1913A      3.581988  1914A      3.585021  
    1915A      3.591326  1916A      3.592078  1917A      3.646872  
    1918A      3.652149  1919A      3.658841  1920A      3.668957  
    1921A      3.679173  1922A      3.684986  1923A      3.709293  
    1924A      3.753314  1925A      3.760857  1926A      3.766136  
    1927A      3.769861  1928A      3.779089  1929A      3.782819  
    1930A      3.795532  1931A      3.837016  1932A      3.848219  
    1933A      3.850608  1934A      3.875924  1935A      3.879491  
    1936A      3.887041  1937A      3.918029  1938A      3.928880  
    1939A      3.947673  1940A      3.950158  1941A      3.953038  
    1942A      3.966182  1943A      3.972264  1944A      3.980180  
    1945A      3.988481  1946A      4.025063  1947A      4.026052  
    1948A      4.028312  1949A      4.085192  1950A      4.236153  
    1951A      4.240214  1952A      4.316497  1953A      4.420196  
    1954A      4.434697  1955A      4.449129  1956A      4.462631  
    1957A      4.521050  1958A      4.806697  1959A      4.856477  
    1960A      4.891644  1961A      4.905132  1962A      4.979481  
    1963A      5.089427  1964A      5.093833  1965A      5.103762  
    1966A      5.139754  1967A      5.221484  1968A      5.414685  
    1969A      5.443621  1970A      5.774031  1971A      5.794400  
    1972A      6.083643  1973A     18.207156  1974A     18.488003  
    1975A     18.510881  1976A     18.600281  1977A     18.861272  
    1978A     25.358685  1979A     25.394233  

    Final Occupation by Irrep:
              A 
    DOCC [   300 ]
    NA   [   300 ]
    NB   [   300 ]

  @DF-RHF Final Energy: -3650.34138841297772

   => Energetics <=

    Nuclear Repulsion Energy =          15611.4211649754306563
    One-Electron Energy =              -36072.1886129619451822
    Two-Electron Energy =               16810.4260595735395327
    Total Energy =                      -3650.3413884129768121

Computation Completed


Properties will be evaluated at   0.000000,   0.000000,   0.000000 [a0]

Properties computed using the SCF density matrix


 Multipole Moments:

 ------------------------------------------------------------------------------------
     Multipole            Electronic (a.u.)      Nuclear  (a.u.)        Total (a.u.)
 ------------------------------------------------------------------------------------

 L = 1.  Multiply by 2.5417464519 to convert [e a0] to [Debye]
 Dipole X            :         -0.0007504            0.0002112           -0.0005392
 Dipole Y            :          0.0014564           -0.0013774            0.0000790
 Dipole Z            :       -363.0655582          363.0709313            0.0053731
 Magnitude           :                                                    0.0054007

 ------------------------------------------------------------------------------------

*** tstop() called on n2cn0492 at Sat Jan 27 03:15:05 2024
Module time:
	user time   =   18999.18 seconds =     316.65 minutes
	system time =    1441.19 seconds =      24.02 minutes
	total time  =       3818 seconds =      63.63 minutes
Total time:
	user time   =   53315.39 seconds =     888.59 minutes
	system time =    4690.97 seconds =      78.18 minutes
	total time  =      12811 seconds =     213.52 minutes
  Constructing Basis Sets for SAPT...

   => Loading Basis Set <=

    Name: (JUN-CC-PVDZ AUX)
    Role: RIFIT
    Keyword: DF_BASIS_SAPT
    atoms 1-2, 4-5, 10, 17-34, 41-53, 56-70, 73-89, 92-104, 109-119, 122-130 entry C          line   100 file /opt/software/pc2/EB-SW/software/PSI4/1.9-foss-2022a/share/psi4/basis/jun-cc-pvdz-ri.gbs 
    atoms 3, 6                                                               entry N          line   144 file /opt/software/pc2/EB-SW/software/PSI4/1.9-foss-2022a/share/psi4/basis/jun-cc-pvdz-ri.gbs 
    atoms 7-9, 11-16, 35-40, 54-55, 71-72, 90-91, 105-108, 120-121, 131-136  entry H          line    30 file /opt/software/pc2/EB-SW/software/PSI4/1.9-foss-2022a/share/psi4/basis/jun-cc-pvdz-ri.gbs 

   => Loading Basis Set <=

    Name: (JUN-CC-PVDZ AUX)
    Role: JKFIT
    Keyword: DF_BASIS_ELST
    atoms 1-2, 4-5, 10, 17-34, 41-53, 56-70, 73-89, 92-104, 109-119, 122-130 entry C          line   146 file /opt/software/pc2/EB-SW/software/PSI4/1.9-foss-2022a/share/psi4/basis/jun-cc-pvdz-jkfit.gbs 
    atoms 3, 6                                                               entry N          line   202 file /opt/software/pc2/EB-SW/software/PSI4/1.9-foss-2022a/share/psi4/basis/jun-cc-pvdz-jkfit.gbs 
    atoms 7-9, 11-16, 35-40, 54-55, 71-72, 90-91, 105-108, 120-121, 131-136  entry H          line    70 file /opt/software/pc2/EB-SW/software/PSI4/1.9-foss-2022a/share/psi4/basis/jun-cc-pvdz-jkfit.gbs 


  //>>>>>>>>>>>>>>>>>>>>>>>>>>>>>>>>>>>//
  //               SSAPT0              //
  //<<<<<<<<<<<<<<<<<<<<<<<<<<<<<<<<<<<//


*** tstart() called on n2cn0492
*** at Sat Jan 27 03:15:06 2024

        SAPT0  
    Ed Hohenstein
     6 June 2009

      Orbital Information
  --------------------------
    NSO        =      2019
    NMO        =      1979
    NRI        =      7157
    NRI (Elst) =      8896
    NOCC A     =        26
    NOCC B     =       300
    FOCC A     =         7
    FOCC B     =        96
    NVIR A     =      1953
    NVIR B     =      1679

    Elst10,r            =    -0.016181386892 [Eh]
    Exch10              =     0.016816950513 [Eh]
    Exch10 (S^2)        =     0.016730590683 [Eh]

    Iter     Energy [mEh]          dE [mEh]         Residual      Time [s]
       1      -1.25243240       1.252432402       5.080760572           294
       2      -1.50416246       0.251730053       1.724356040           558
       3      -1.53586278       0.031700328       0.265006601           974
       4      -1.53329601      -0.002566774       0.080421953          1297
       5      -1.53274810      -0.000547913       0.016834802          1619
       6      -1.53291458       0.000166486       0.004580536          1977
       7      -1.53291090      -0.000003687       0.002635410          2183
       8      -1.53289825      -0.000012640       0.000935188          2594
       9      -1.53289928       0.000001028       0.000311499          3123
      10      -1.53290032       0.000001039       0.000093680          3406
      11      -1.53290032       0.000000003       0.000026163          3972
      12      -1.53290024      -0.000000082       0.000007364          4457
      13      -1.53290024      -0.000000005       0.000002004          4950
      14      -1.53290024       0.000000007       0.000000590          5329

    CHF Iterations converged


    Iter     Energy [mEh]          dE [mEh]         Residual      Time [s]
       1     -27.18899033      27.188990326      87.306187284           625
       2     -18.33610766      -8.852882668      11.549830722          1251
       3     -18.48093767       0.144830012       4.497049726          1788
       4     -18.95745062       0.476512954       1.284249948          2234
       5     -19.00436777       0.046917149       0.443385373          2674
       6     -18.98947803      -0.014889739       0.280607749          3255
       7     -18.98141117      -0.008066863       0.114932924          3848
       8     -18.98316557       0.001754394       0.050925620          4504
       9     -18.98473261       0.001567045       0.019163770          5182
      10     -18.98462712      -0.000105494       0.016135276          5729
      11     -18.98429201      -0.000335108       0.010035815          6300
      12     -18.98428226      -0.000009751       0.005813668          6762
      13     -18.98439640       0.000114145       0.002902042          7190
      14     -18.98441446       0.000018059       0.001990452          7480
      15     -18.98439029      -0.000024172       0.001287460          7793
      16     -18.98437403      -0.000016253       0.000570865          8652
      17     -18.98438607       0.000012035       0.000243940          9194
      18     -18.98438798       0.000001911       0.000104860          9597
      19     -18.98438629      -0.000001688       0.000057688         10086
      20     -18.98438558      -0.000000715       0.000026037         10675
      21     -18.98438588       0.000000299       0.000013623         11135
      22     -18.98438605       0.000000171       0.000006799         11726
      23     -18.98438600      -0.000000044       0.000003502         12545
      24     -18.98438596      -0.000000046       0.000001895         14094
      25     -18.98438596       0.000000006       0.000001066         14642
      26     -18.98438598       0.000000015       0.000000616         15494

    CHF Iterations converged

    Ind20,r (A<-B)      =    -0.001532900244 [Eh]
    Ind20,r (B<-A)      =    -0.018984385978 [Eh]
    Ind20,r             =    -0.020517286221 [Eh]
    Exch-Ind20,r (A<-B) =     0.001450499297 [Eh]
    Exch-Ind20,r (B<-A) =     0.002549164657 [Eh]
    Exch-Ind20,r        =     0.003999663954 [Eh]
    Disp20              =    -0.026682118158 [Eh]
    Disp20 (SS)         =    -0.013341059079 [Eh]
    Disp20 (OS)         =    -0.013341059079 [Eh]
    Exch-Disp20         =     0.001531016767 [Eh]
    Exch-Disp20 (SS)    =     0.000920628928 [Eh]
    Exch-Disp20 (OS)    =     0.000610387839 [Eh]

    SAPT Results 
  --------------------------------------------------------------------------------------------------------
    Electrostatics                -16.18138689 [mEh]     -10.15397357 [kcal/mol]     -42.48422543 [kJ/mol]
      Elst10,r                    -16.18138689 [mEh]     -10.15397357 [kcal/mol]     -42.48422543 [kJ/mol]

    Exchange                       16.81695051 [mEh]      10.55279577 [kcal/mol]      44.15289749 [kJ/mol]
      Exch10                       16.81695051 [mEh]      10.55279577 [kcal/mol]      44.15289749 [kJ/mol]
      Exch10(S^2)                  16.73059068 [mEh]      10.49860416 [kcal/mol]      43.92615979 [kJ/mol]

    Induction                     -19.92040283 [mEh]     -12.50024150 [kcal/mol]     -52.30101044 [kJ/mol]
      Ind20,r                     -20.51728622 [mEh]     -12.87479148 [kcal/mol]     -53.86812755 [kJ/mol]
      Exch-Ind20,r                  3.99966395 [mEh]       2.50982702 [kcal/mol]      10.50111626 [kJ/mol]
      delta HF,r (2)               -3.40278057 [mEh]      -2.13527704 [kcal/mol]      -8.93399915 [kJ/mol]

    Dispersion                    -25.15110139 [mEh]     -15.78255440 [kcal/mol]     -66.03420761 [kJ/mol]
      Disp20                      -26.68211816 [mEh]     -16.74328192 [kcal/mol]     -70.05389157 [kJ/mol]
      Exch-Disp20                   1.53101677 [mEh]       0.96072753 [kcal/mol]       4.01968397 [kJ/mol]
      Disp20 (SS)                 -13.34105908 [mEh]      -8.37164096 [kcal/mol]     -35.02694579 [kJ/mol]
      Disp20 (OS)                 -13.34105908 [mEh]      -8.37164096 [kcal/mol]     -35.02694579 [kJ/mol]
      Exch-Disp20 (SS)              0.92062893 [mEh]       0.57770337 [kcal/mol]       2.41711092 [kJ/mol]
      Exch-Disp20 (OS)              0.61038784 [mEh]       0.38302415 [kcal/mol]       1.60257305 [kJ/mol]

  Total HF                        -19.28483921 [mEh]     -12.10141931 [kcal/mol]     -50.63233838 [kJ/mol]
  Total SAPT0                     -44.43594060 [mEh]     -27.88397371 [kcal/mol]    -116.66654598 [kJ/mol]

  Special recipe for scaled SAPT0 (see Manual):
    Electrostatics sSAPT0         -16.18138689 [mEh]     -10.15397357 [kcal/mol]     -42.48422543 [kJ/mol]
    Exchange sSAPT0                16.81695051 [mEh]      10.55279577 [kcal/mol]      44.15289749 [kJ/mol]
    Induction sSAPT0              -19.85814628 [mEh]     -12.46117492 [kcal/mol]     -52.13755588 [kJ/mol]
    Dispersion sSAPT0             -25.12727043 [mEh]     -15.76760025 [kcal/mol]     -65.97163943 [kJ/mol]
  Total sSAPT0                    -44.34985309 [mEh]     -27.82995298 [kcal/mol]    -116.44052325 [kJ/mol]
  --------------------------------------------------------------------------------------------------------

*** tstop() called on n2cn0492 at Sun Jan 28 00:36:55 2024
Module time:
	user time   =   68989.53 seconds =    1149.83 minutes
	system time =    4156.77 seconds =      69.28 minutes
	total time  =      76909 seconds =    1281.82 minutes
Total time:
	user time   =  122306.34 seconds =    2038.44 minutes
	system time =    8847.74 seconds =     147.46 minutes
	total time  =      89721 seconds =    1495.35 minutes

    Psi4 stopped on: Sunday, 28 January 2024 12:36AM
    Psi4 wall time for execution: 1 day, 0:55:25.21

*** Psi4 exiting successfully. Buy a developer a beer!
