
    -----------------------------------------------------------------------
          Psi4: An Open-Source Ab Initio Electronic Structure Package
                               Psi4 1.9 release

                         Git: Rev {} zzzzzzz 


    D. G. A. Smith, L. A. Burns, A. C. Simmonett, R. M. Parrish,
    M. C. Schieber, R. Galvelis, P. Kraus, H. Kruse, R. Di Remigio,
    A. Alenaizan, A. M. James, S. Lehtola, J. P. Misiewicz, M. Scheurer,
    R. A. Shaw, J. B. Schriber, Y. Xie, Z. L. Glick, D. A. Sirianni,
    J. S. O'Brien, J. M. Waldrop, A. Kumar, E. G. Hohenstein,
    B. P. Pritchard, B. R. Brooks, H. F. Schaefer III, A. Yu. Sokolov,
    K. Patkowski, A. E. DePrince III, U. Bozkaya, R. A. King,
    F. A. Evangelista, J. M. Turney, T. D. Crawford, C. D. Sherrill,
    J. Chem. Phys. 152(18) 184108 (2020). https://doi.org/10.1063/5.0006002

                            Additional Code Authors
    E. T. Seidl, C. L. Janssen, E. F. Valeev, M. L. Leininger,
    J. F. Gonthier, R. M. Richard, H. R. McAlexander, M. Saitow, X. Wang,
    P. Verma, M. H. Lechner, A. Jiang, S. Behnle, A. G. Heide,
    M. F. Herbst, and D. L. Poole

             Previous Authors, Complete List of Code Contributors,
                       and Citations for Specific Modules
    https://github.com/psi4/psi4/blob/master/codemeta.json
    https://github.com/psi4/psi4/graphs/contributors
    http://psicode.org/psi4manual/master/introduction.html#citing-psifour

    -----------------------------------------------------------------------


    Psi4 started on: Saturday, 27 January 2024 12:13AM

    Process ID: 317837
    Host:       n2cn0313
    PSIDATADIR: /opt/software/pc2/EB-SW/software/PSI4/1.9-foss-2022a/share/psi4
    Memory:     500.0 MiB
    Threads:    16
    
  ==> Input File <==

--------------------------------------------------------------------------
memory 64 GB # how much memory is available ! Depends on the nodes/cores !

molecule dimer {
# monomer A
+1 1    # Charge and multiplicity
C  0.680067 -0.008042 -8.415929
C -0.680504 -0.006014 -8.415545
N -1.085635 -0.005016 -7.097221
C  0.000108 -0.001740 -6.315820
C -2.477365  0.044390 -6.629242
N  1.085222 -0.005016 -7.097221
H  1.385146 -0.015870 -9.233368
H -1.385302 -0.006204 -9.233214
H -0.000009  0.000007 -5.234731
C  2.478117 -0.021908 -6.632123
H  2.490592  0.005437 -5.541870
H  2.967028 -0.935354 -6.979299
H  3.001428  0.853575 -7.023595
H -2.857359  1.066461 -6.709201
H -3.082679 -0.625694 -7.242306
H -2.518128 -0.282594 -5.589294
--
# monomer B
0 1     # Charge and multiplicity
C   -3.66844126402057      7.80375217008252      0.00190004133558
C   -4.84759871934653      7.13124183134024     -0.00046653359696
C   -4.89495929917518      5.69633040353158     -0.00103944469517
C   -3.65374067877320      4.98073034095895      0.00662099703436
C   -2.40942512149445      7.11398103667468      0.00209438359570
C   -2.42547734410473      5.68112195090346     -0.00491050527438
C   -1.19474401643570      7.78614419430947      0.00356656413763
C   0.03795902893699      7.09942164575698      0.00139585983271
C   0.03033258741920      5.66948955970466     -0.00408752508301
C   -1.20098450790502      4.96927034791531      0.00488220885047
C   1.27795782581485      7.77285944319479      0.00277170839332
C   2.48535808472416      7.08769688523756      0.00049722048857
C   2.48612868491717      5.65477081024076     -0.00644052849921
C   1.25408291964399      4.95607811366431      0.00518741308898
C   3.75171459140595      7.76391215098033      0.00062407186893
C   4.92356605618520      7.07878077698995     -0.00143240883900
C   4.95560727132542      5.64344746336949     -0.00159282164606
C   3.70680153420475      4.94121020833308      0.00349873852374
H   -3.65852113775815      8.89082741913536      0.00358502958574
H   -1.18921332975660      8.87412108735996      0.00753844057883
H   1.28429423888630      8.86083343548850      0.00693053253426
H   3.75354208679975      8.85103527897216      0.00214659618464
H   5.86995870320703      7.61379483465560     -0.00235777588134
H   -5.78823170750226      7.67630221293400     -0.00202638095293
C   -6.09197395869619      4.99326001364347     -0.00291168518608
C   -6.12866148031747      3.58258016879823     -0.00171050815740
C   -3.66457974004527      3.56418217974434     -0.00463560277484
C   -4.89429820469869      2.86108077590057      0.00453338221034
C   -2.43733499489796      2.84761165708481      0.00719617576166
C   -1.20922785759670      3.54788693497833     -0.00648285103018
C   1.24714157216223      3.53468075142962     -0.00729145743546
C   0.01517603956900      2.83311183930540      0.00439272578912
C   2.46764517244071      2.82128997725533      0.00449278391269
C   3.70254947457969      3.52466015442405     -0.00899517692985
C   6.14498038638375      4.92757236613191     -0.00282626685777
C   6.16658835886151      3.51658447594213     -0.00065971342101
C   4.92460995845939      2.80840792535402      0.00587903281610
H   7.08990550964105      5.46688776622306     -0.00658814770723
H   -7.03104175110130      5.54268795285765     -0.00714490013730
C   -7.33969804112295      2.85841153457957     -0.00333767559888
C   -7.36488195805880      1.47032337158330     -0.00157213747140
C   -4.90350460894690      1.44442681216000     -0.00628840166334
C   -6.13225715261081      0.73993935705394      0.00600164231964
C   -3.67687480051673      0.72669714267312      0.00433931473643
C   -2.44565658606518      1.42964113326212     -0.00597039546461
C   -1.22360068130162      0.71532450163492      0.00545886906656
C   0.00763786931376      1.41738314923765      0.00392452278437
C   1.23121980774686      0.70211669058719     -0.01490206287210
C   2.46082110053113      1.40329203612573      0.00460244601878
C   3.68443025419614      0.68719842821222      0.00377365974158
C   4.91870890153864      1.39173456118907     -0.00862816189375
C   7.36980207796101      2.77948220318441     -0.00242013321349
C   7.38016266612146      1.39121750785509     -0.00087345036788
C   6.13979953912259      0.67411862320065      0.00545489144369
H   -8.27919079934664      3.40711804112415     -0.00763522772059
H   8.31511347147953      3.31811809662368     -0.00663070901292
C   -8.59175593758115      0.72483255304480     -0.00123170985383
C   -8.59902460370342     -0.63263980622873      0.00089141472904
C   -6.13981313911873     -0.67413663715361     -0.00609792660607
C   -7.38018411213749     -1.39126618958160      0.00131813493501
C   -4.91868448025621     -1.39175501803000      0.00624257154343
C   -3.68443829568458     -0.68723731573599     -0.00478966852105
C   -2.46081704024768     -1.40334517882457      0.00575341766833
C   -1.23116201232071     -0.70217386488055     -0.00636696112346
C   -0.00756962538737     -1.41741884941102      0.00108956317991
C   1.22364771588843     -0.71527537726392      0.01109518512883
C   2.44567064933149     -1.42964328900682     -0.00065482763106
C   3.67686670284649     -0.72670743155550     -0.00479541202602
C   6.13224884641929     -0.73997883984993     -0.00632338623858
C   4.90351914550401     -1.44445752054090      0.00751768830159
C   8.59901484869081      0.63260386666793     -0.00101133422380
C   8.59174548810050     -0.72485086719319      0.00072504603735
C   7.36486276438985     -1.47033266560598      0.00049486934466
H   -9.52830597181814      1.27684744919284     -0.00270163681798
H   9.54141097460619      1.17457248844457     -0.00206336648518
C   -7.36983790976868     -2.77954514593389      0.00312634335708
C   -4.92459910905015     -2.80843725734101     -0.00460528907921
C   -6.16662249566744     -3.51665219282533      0.00169655107992
C   -3.70251035970491     -3.52468154912026      0.00571878010666
C   -2.46764698511392     -2.82132596280400     -0.00632585824990
C   -0.01513347410770     -2.83314164539971     -0.00604426974092
C   -1.24712184122656     -3.53473217556300      0.00551968366725
C   1.20924506964357     -3.54791467864352      0.00805871345849
C   2.43733602215464     -2.84764173817541     -0.00608104485234
C   4.89430234377080     -2.86112296828604     -0.00526030478103
C   3.66461525504104     -3.56421984553201      0.00761911515957
C   6.12863901474565     -3.58258405771778      0.00096495711699
C   7.33967266469532     -2.85841330737039      0.00248018319869
H   -9.54144911125902     -1.17456346666430      0.00226083090216
H   9.52826186807155     -1.27691907390448      0.00197485379837
H   -8.31516504384864     -3.31814985321231      0.00729857188773
H   8.27915514249207     -3.40714078989363      0.00681973918158
C   -6.14499418870218     -4.92764727278338      0.00302254913999
C   -3.70678334799751     -4.94126171411716     -0.00679841894792
C   -4.95559005800169     -5.64349397349412      0.00116871569699
C   -2.48612132622665     -5.65478557440947      0.00614125209662
C   -1.25405833548005     -4.95612205000132     -0.00503435388927
C   1.20101257386816     -4.96928038819302     -0.00385322963129
C   -0.03033667441341     -5.66952030313900      0.00398997003238
C   3.65375010132847     -4.98074377541453     -0.00309522988330
C   2.42549269587528     -5.68117463552727      0.00628170066869
C   6.09196561781097     -4.99325796338655      0.00325918379042
C   4.89497644461045     -5.69634842095790      0.00202298796027
H   -7.08989238804069     -5.46699984223871      0.00742531082125
H   7.03105520920009     -5.54265853633254      0.00683896355417
C   -4.92354532219813     -7.07882109967734      0.00061394679214
C   -2.48534208823777     -7.08772807792913     -0.00189594564379
C   -3.75168589177895     -7.76394715763627     -0.00170126671874
C   -0.03794895698805     -7.09946487446944     -0.00168022049625
C   -1.27795610040136     -7.77290438466689     -0.00366491325785
C   2.40944432072629     -7.11402201200282     -0.00081701968533
C   1.19474993715296     -7.78618536556242     -0.00296931056689
C   4.84762105249800     -7.13126211057943      0.00168979497423
C   3.66847160587561     -7.80378799294376     -0.00065863938960
H   -5.86994035041618     -7.61383059804164      0.00215798365757
H   5.78824962538815     -7.67633218931421      0.00281691445618
H   -3.75352693944918     -8.85107156923607     -0.00353718114765
H   -1.28430440589466     -8.86087539249706     -0.00809229711623
H   1.18922157469537     -8.87416062058945     -0.00706194725726
H   3.65854661482387     -8.89086063405326     -0.00231318081200

    units angstrom      # Angstroms are the default
    no_reorient         # Geometry fixed, default
    symmetry c1         # C1 symmetry, default
}

set {
    scf_type DF         # Density fitting, faster than exact integrals
    freeze_core True    # Freeze core electrons
    basis jun-cc-pVDZ   # Jun-cc-pVDZ basis set, recommended for sSAPT0 in https://doi.org/10.1063/1.4867135
}

energy('ssapt0')        # Compute sSAPT0 energy, includes also SAPT0
--------------------------------------------------------------------------

  Memory set to  59.605 GiB by Python driver.

Scratch directory: /tmp/
   => Loading Basis Set <=

    Name: JUN-CC-PVDZ
    Role: ORBITAL
    Keyword: BASIS
    atoms 1-2, 4-5, 10, 17-34, 41-53, 56-70, 73-89, 92-104, 109-119, 122-130 entry C          line   164 file /opt/software/pc2/EB-SW/software/PSI4/1.9-foss-2022a/share/psi4/basis/jun-cc-pvdz.gbs 
    atoms 3, 6                                                               entry N          line   198 file /opt/software/pc2/EB-SW/software/PSI4/1.9-foss-2022a/share/psi4/basis/jun-cc-pvdz.gbs 
    atoms 7-9, 11-16, 35-40, 54-55, 71-72, 90-91, 105-108, 120-121, 131-136  entry H          line    36 file /opt/software/pc2/EB-SW/software/PSI4/1.9-foss-2022a/share/psi4/basis/jun-cc-pvdz.gbs 

   => Loading Basis Set <=

    Name: JUN-CC-PVDZ
    Role: ORBITAL
    Keyword: BASIS
    atoms 1-2, 4-5, 10, 17-34, 41-53, 56-70, 73-89, 92-104, 109-119, 122-130 entry C          line   164 file /opt/software/pc2/EB-SW/software/PSI4/1.9-foss-2022a/share/psi4/basis/jun-cc-pvdz.gbs 
    atoms 3, 6                                                               entry N          line   198 file /opt/software/pc2/EB-SW/software/PSI4/1.9-foss-2022a/share/psi4/basis/jun-cc-pvdz.gbs 
    atoms 7-9, 11-16, 35-40, 54-55, 71-72, 90-91, 105-108, 120-121, 131-136  entry H          line    36 file /opt/software/pc2/EB-SW/software/PSI4/1.9-foss-2022a/share/psi4/basis/jun-cc-pvdz.gbs 


  //>>>>>>>>>>>>>>>>>>>>>>>>>>>>>>>>>>>//
  //              Dimer HF             //
  //<<<<<<<<<<<<<<<<<<<<<<<<<<<<<<<<<<<//

   => Libint2 <=

    Primary   basis highest AM E, G, H:  5, 4, 3
    Auxiliary basis highest AM E, G, H:  6, 5, 4
    Onebody   basis highest AM E, G, H:  6, 5, 4
    Solid Harmonics ordering:            gaussian

*** tstart() called on n2cn0313
*** at Sat Jan 27 00:13:22 2024

   => Loading Basis Set <=

    Name: JUN-CC-PVDZ
    Role: ORBITAL
    Keyword: BASIS
    atoms 1-2, 4-5, 10, 17-34, 41-53, 56-70, 73-89, 92-104, 109-119, 122-130 entry C          line   164 file /opt/software/pc2/EB-SW/software/PSI4/1.9-foss-2022a/share/psi4/basis/jun-cc-pvdz.gbs 
    atoms 3, 6                                                               entry N          line   198 file /opt/software/pc2/EB-SW/software/PSI4/1.9-foss-2022a/share/psi4/basis/jun-cc-pvdz.gbs 
    atoms 7-9, 11-16, 35-40, 54-55, 71-72, 90-91, 105-108, 120-121, 131-136  entry H          line    36 file /opt/software/pc2/EB-SW/software/PSI4/1.9-foss-2022a/share/psi4/basis/jun-cc-pvdz.gbs 


         ---------------------------------------------------------
                                   SCF
               by Justin Turney, Rob Parrish, Andy Simmonett
                          and Daniel G. A. Smith
                              RHF Reference
                       16 Threads,  61035 MiB Core
         ---------------------------------------------------------

  ==> Geometry <==

    Molecular point group: c1
    Full point group: C1

    Geometry (in Angstrom), charge = 1, multiplicity = 1:

       Center              X                  Y                   Z               Mass       
    ------------   -----------------  -----------------  -----------------  -----------------
         C            0.680062820275    -0.008027535675    -7.866990393580    12.000000000000
         C           -0.680508179725    -0.005999535675    -7.866606393580    12.000000000000
         N           -1.085639179725    -0.005001535675    -6.548282393580    14.003074004430
         C            0.000103820275    -0.001725535675    -5.766881393580    12.000000000000
         C           -2.477369179725     0.044404464325    -6.080303393580    12.000000000000
         N            1.085217820275    -0.005001535675    -6.548282393580    14.003074004430
         H            1.385141820275    -0.015855535675    -8.684429393580     1.007825032230
         H           -1.385306179725    -0.006189535675    -8.684275393580     1.007825032230
         H           -0.000013179725     0.000021464325    -4.685792393580     1.007825032230
         C            2.478112820275    -0.021893535675    -6.083184393580    12.000000000000
         H            2.490587820275     0.005451464325    -4.992931393580     1.007825032230
         H            2.967023820275    -0.935339535675    -6.430360393580     1.007825032230
         H            3.001423820275     0.853589464325    -6.474656393580     1.007825032230
         H           -2.857363179725     1.066475464325    -6.160262393580     1.007825032230
         H           -3.082683179725    -0.625679535675    -6.693367393580     1.007825032230
         H           -2.518132179725    -0.282579535675    -5.040355393580     1.007825032230
         C           -3.668445443746     7.803766634408     0.550838647756    12.000000000000
         C           -4.847602899072     7.131256295665     0.548472072823    12.000000000000
         C           -4.894963478901     5.696344867857     0.547899161725    12.000000000000
         C           -3.653744858499     4.980744805284     0.555559603454    12.000000000000
         C           -2.409429301220     7.113995501000     0.551032990016    12.000000000000
         C           -2.425481523830     5.681136415228     0.544028101146    12.000000000000
         C           -1.194748196161     7.786158658634     0.552505170558    12.000000000000
         C            0.037954849212     7.099436110082     0.550334466253    12.000000000000
         C            0.030328407694     5.669504024030     0.544851081337    12.000000000000
         C           -1.200988687630     4.969284812240     0.553820815271    12.000000000000
         C            1.277953646089     7.772873907520     0.551710314813    12.000000000000
         C            2.485353904999     7.087711349563     0.549435826909    12.000000000000
         C            2.486124505192     5.654785274566     0.542498077921    12.000000000000
         C            1.254078739919     4.956092577989     0.554126019509    12.000000000000
         C            3.751710411681     7.763926615305     0.549562678289    12.000000000000
         C            4.923561876460     7.078795241315     0.547506197581    12.000000000000
         C            4.955603091600     5.643461927694     0.547345784774    12.000000000000
         C            3.706797354479     4.941224672658     0.552437344944    12.000000000000
         H           -3.658525317484     8.890841883460     0.552523636006     1.007825032230
         H           -1.189217509482     8.874135551685     0.556477046999     1.007825032230
         H            1.284290059161     8.860847899813     0.555869138954     1.007825032230
         H            3.753537907074     8.851049743297     0.551085202605     1.007825032230
         H            5.869954523482     7.613809298981     0.546580830539     1.007825032230
         H           -5.788235887228     7.676316677259     0.546912225467     1.007825032230
         C           -6.091978138422     4.993274477968     0.546026921234    12.000000000000
         C           -6.128665660043     3.582594633123     0.547228098263    12.000000000000
         C           -3.664583919771     3.564196644069     0.544303003645    12.000000000000
         C           -4.894302384424     2.861095240226     0.553471988630    12.000000000000
         C           -2.437339174623     2.847626121410     0.556134782182    12.000000000000
         C           -1.209232037322     3.547901399303     0.542455755390    12.000000000000
         C            1.247137392437     3.534695215755     0.541647148985    12.000000000000
         C            0.015171859844     2.833126303630     0.553331332209    12.000000000000
         C            2.467640992715     2.821304441580     0.553431390333    12.000000000000
         C            3.702545294854     3.524674618749     0.539943429490    12.000000000000
         C            6.144976206658     4.927586830457     0.546112339562    12.000000000000
         C            6.166584179136     3.516598940267     0.548278892999    12.000000000000
         C            4.924605778734     2.808422389679     0.554817639236    12.000000000000
         H            7.089901329916     5.466902230548     0.542350458713     1.007825032230
         H           -7.031045930827     5.542702417183     0.541793706283     1.007825032230
         C           -7.339702220848     2.858425998905     0.545600930821    12.000000000000
         C           -7.364886137784     1.470337835908     0.547366468949    12.000000000000
         C           -4.903508788672     1.444441276485     0.542650204757    12.000000000000
         C           -6.132261332336     0.739953821379     0.554940248740    12.000000000000
         C           -3.676878980242     0.726711606998     0.553277921157    12.000000000000
         C           -2.445660765791     1.429655597587     0.542968210955    12.000000000000
         C           -1.223604861027     0.715338965960     0.554397475487    12.000000000000
         C            0.007633689588     1.417397613563     0.552863129204    12.000000000000
         C            1.231215628021     0.702131154912     0.534036543548    12.000000000000
         C            2.460816920806     1.403306500451     0.553541052439    12.000000000000
         C            3.684426074471     0.687212892537     0.552712266162    12.000000000000
         C            4.918704721813     1.391749025514     0.540310444526    12.000000000000
         C            7.369797898236     2.779496667509     0.546518473207    12.000000000000
         C            7.380158486396     1.391231972180     0.548065156052    12.000000000000
         C            6.139795359397     0.674133087526     0.554393497864    12.000000000000
         H           -8.279194979072     3.407132505449     0.541303378699     1.007825032230
         H            8.315109291754     3.318132560949     0.542307897407     1.007825032230
         C           -8.591760117307     0.724847017370     0.547706896566    12.000000000000
         C           -8.599028783429    -0.632625341904     0.549830021149    12.000000000000
         C           -6.139817318844    -0.674122172829     0.542840679814    12.000000000000
         C           -7.380188291863    -1.391251725257     0.550256741355    12.000000000000
         C           -4.918688659982    -1.391740553705     0.555181177964    12.000000000000
         C           -3.684442475410    -0.687222851411     0.544148937899    12.000000000000
         C           -2.460821219973    -1.403330714500     0.554692024088    12.000000000000
         C           -1.231166192046    -0.702159400556     0.542571645297    12.000000000000
         C           -0.007573805113    -1.417404385086     0.550028169600    12.000000000000
         C            1.223643536163    -0.715260912939     0.560033791549    12.000000000000
         C            2.445666469606    -1.429628824682     0.548283778789    12.000000000000
         C            3.676862523121    -0.726692967231     0.544143194394    12.000000000000
         C            6.132244666694    -0.739964375525     0.542615220181    12.000000000000
         C            4.903514965779    -1.444443056216     0.556456294722    12.000000000000
         C            8.599010668965     0.632618330993     0.547927272196    12.000000000000
         C            8.591741308375    -0.724836402868     0.549663652457    12.000000000000
         C            7.364858584664    -1.470318201281     0.549433475765    12.000000000000
         H           -9.528310151544     1.276861913518     0.546236969602     1.007825032230
         H            9.541406794881     1.174586952770     0.546875239935     1.007825032230
         C           -7.369842089494    -2.779530681609     0.552064949777    12.000000000000
         C           -4.924603288776    -2.808422793016     0.544333317341    12.000000000000
         C           -6.166626675393    -3.516637728500     0.550635157500    12.000000000000
         C           -3.702514539430    -3.524667084795     0.554657386527    12.000000000000
         C           -2.467651164839    -2.821311498479     0.542612748170    12.000000000000
         C           -0.015137653833    -2.833127181075     0.542894336679    12.000000000000
         C           -1.247126020952    -3.534717711238     0.554458290087    12.000000000000
         C            1.209240889918    -3.547900214319     0.556997319879    12.000000000000
         C            2.437331842429    -2.847627273850     0.542857561568    12.000000000000
         C            4.894298164045    -2.861108503961     0.543678301639    12.000000000000
         C            3.664611075316    -3.564205381207     0.556557721580    12.000000000000
         C            6.128634835020    -3.582569593393     0.549903563537    12.000000000000
         C            7.339668484970    -2.858398843045     0.551418789619    12.000000000000
         H           -9.541453290984    -1.174549002339     0.551199437322     1.007825032230
         H            9.528257688346    -1.276904609579     0.550913460218     1.007825032230
         H           -8.315169223574    -3.318135388887     0.556237178308     1.007825032230
         H            8.279150962767    -3.407126325569     0.555758345602     1.007825032230
         C           -6.144998368428    -4.927632808458     0.551961155560    12.000000000000
         C           -3.706787527723    -4.941247249792     0.542140187472    12.000000000000
         C           -4.955594237727    -5.643479509169     0.550107322117    12.000000000000
         C           -2.486125505952    -5.654771110084     0.555079858517    12.000000000000
         C           -1.254062515205    -4.956107585676     0.543904252531    12.000000000000
         C            1.201008394143    -4.969265923868     0.545085376789    12.000000000000
         C           -0.030340854139    -5.669505838814     0.552928576452    12.000000000000
         C            3.653745921603    -4.980729311090     0.545843376537    12.000000000000
         C            2.425488516150    -5.681160171202     0.555220307089    12.000000000000
         C            6.091961438086    -4.993243499062     0.552197790210    12.000000000000
         C            4.894972264885    -5.696333956633     0.550961594380    12.000000000000
         H           -7.089896567766    -5.466985377914     0.556363917241     1.007825032230
         H            7.031051029475    -5.542644072008     0.555777569974     1.007825032230
         C           -4.923549501924    -7.078806635352     0.549552553212    12.000000000000
         C           -2.485346267963    -7.087713613604     0.547042660776    12.000000000000
         C           -3.751690071504    -7.763932693311     0.547237339701    12.000000000000
         C           -0.037953136713    -7.099450410144     0.547258385924    12.000000000000
         C           -1.277960280127    -7.772889920342     0.545273693162    12.000000000000
         C            2.409440141001    -7.114007547678     0.548121586735    12.000000000000
         C            1.194745757428    -7.786170901237     0.545969295853    12.000000000000
         C            4.847616872773    -7.131247646254     0.550628401394    12.000000000000
         C            3.668467426150    -7.803773528619     0.548279967030    12.000000000000
         H           -5.869944530142    -7.613816133717     0.551096590078     1.007825032230
         H            5.788245445663    -7.676317724989     0.551755520876     1.007825032230
         H           -3.753531119175    -8.851057104911     0.545401425272     1.007825032230
         H           -1.284308585620    -8.860860928172     0.540846309304     1.007825032230
         H            1.189217394970    -8.874146156264     0.541876659163     1.007825032230
         H            3.658542435098    -8.890846169728     0.546625425608     1.007825032230

  Running in c1 symmetry.

  Rotational constants: A =      0.00059  B =      0.00058  C =      0.00035 [cm^-1]
  Rotational constants: A =     17.65619  B =     17.51162  C =     10.51914 [MHz]
  Nuclear repulsion = 17702.574345299573906

  Charge       = 1
  Multiplicity = 1
  Electrons    = 652
  Nalpha       = 326
  Nbeta        = 326

  ==> Algorithm <==

  SCF Algorithm Type is DF.
  DIIS enabled.
  MOM disabled.
  Fractional occupation disabled.
  Guess Type is SAD.
  Energy threshold   = 1.00e-08
  Density threshold  = 1.00e-08
  Integral threshold = 1.00e-12

  ==> Primary Basis <==

  Basis Set: JUN-CC-PVDZ
    Blend: JUN-CC-PVDZ
    Number of shells: 923
    Number of basis functions: 2019
    Number of Cartesian functions: 2122
    Spherical Harmonics?: true
    Max angular momentum: 2

   => Loading Basis Set <=

    Name: (JUN-CC-PVDZ AUX)
    Role: JKFIT
    Keyword: DF_BASIS_SCF
    atoms 1-2, 4-5, 10, 17-34, 41-53, 56-70, 73-89, 92-104, 109-119, 122-130 entry C          line   146 file /opt/software/pc2/EB-SW/software/PSI4/1.9-foss-2022a/share/psi4/basis/jun-cc-pvdz-jkfit.gbs 
    atoms 3, 6                                                               entry N          line   202 file /opt/software/pc2/EB-SW/software/PSI4/1.9-foss-2022a/share/psi4/basis/jun-cc-pvdz-jkfit.gbs 
    atoms 7-9, 11-16, 35-40, 54-55, 71-72, 90-91, 105-108, 120-121, 131-136  entry H          line    70 file /opt/software/pc2/EB-SW/software/PSI4/1.9-foss-2022a/share/psi4/basis/jun-cc-pvdz-jkfit.gbs 

  ==> Integral Setup <==

  ==> DiskDFJK: Density-Fitted J/K Matrices <==

    J tasked:                  Yes
    K tasked:                  Yes
    wK tasked:                  No
    OpenMP threads:             16
    Integrals threads:          16
    Memory [MiB]:            45776
    Algorithm:                Disk
    Integral Cache:           SAVE
    Schwarz Cutoff:          1E-12
    Fitting Condition:       1E-10

   => Auxiliary Basis Set <=

  Basis Set: (JUN-CC-PVDZ AUX)
    Blend: JUN-CC-PVDZ-JKFIT
    Number of shells: 3078
    Number of basis functions: 8896
    Number of Cartesian functions: 10198
    Spherical Harmonics?: true
    Max angular momentum: 3

  Minimum eigenvalue in the overlap matrix is 9.0035318709E-11.
  Reciprocal condition number of the overlap matrix is 3.9475221989E-12.
    Using canonical orthogonalization.
  Overall, 38 of 2019 possible MOs eliminated.


  ==> Pre-Iterations <==

  SCF Guess: Superposition of Atomic Densities via on-the-fly atomic UHF (no occupation information).

   -------------------------
    Irrep   Nso     Nmo    
   -------------------------
     A       2019    1981 
   -------------------------
    Total    2019    1981
   -------------------------

  ==> Iterations <==

                           Total Energy        Delta E     RMS |[F,P]|

   @DF-RHF iter SAD: -3967.13412895939291   -3.96713e+03   0.00000e+00 
   @DF-RHF iter   1: -3952.10295225877371    1.50312e+01   7.15830e-04 DIIS/ADIIS
   @DF-RHF iter   2: -3953.49563794096503   -1.39269e+00   2.33652e-04 DIIS/ADIIS
   @DF-RHF iter   3: -3953.61892069910209   -1.23283e-01   1.01474e-04 DIIS/ADIIS
   @DF-RHF iter   4: -3953.64163571739391   -2.27150e-02   4.27339e-05 DIIS
   @DF-RHF iter   5: -3953.64625904451532   -4.62333e-03   1.04918e-05 DIIS
   @DF-RHF iter   6: -3953.64670732192371   -4.48277e-04   4.60702e-06 DIIS
   @DF-RHF iter   7: -3953.64689204618116   -1.84724e-04   2.20672e-06 DIIS
   @DF-RHF iter   8: -3953.64695396572051   -6.19195e-05   1.10259e-06 DIIS
   @DF-RHF iter   9: -3953.64697135542747   -1.73897e-05   3.52967e-07 DIIS
   @DF-RHF iter  10: -3953.64697252660199   -1.17117e-06   1.44594e-07 DIIS
   @DF-RHF iter  11: -3953.64697267543215   -1.48830e-07   5.90212e-08 DIIS
   @DF-RHF iter  12: -3953.64697270802981   -3.25977e-08   2.93999e-08 DIIS
   @DF-RHF iter  13: -3953.64697271484283   -6.81302e-09   9.86958e-09 DIIS
  Energy and wave function converged.


  ==> Post-Iterations <==

    Orbital Energies [Eh]
    ---------------------

    Doubly Occupied:                                                      

       1A    -15.820097     2A    -15.819578     3A    -11.514751  
       4A    -11.446657     5A    -11.445102     6A    -11.434751  
       7A    -11.434645     8A    -11.321124     9A    -11.320706  
      10A    -11.320646    11A    -11.319923    12A    -11.319845  
      13A    -11.319650    14A    -11.319367    15A    -11.319337  
      16A    -11.319200    17A    -11.318951    18A    -11.318884  
      19A    -11.318554    20A    -11.318417    21A    -11.318332  
      22A    -11.318169    23A    -11.318032    24A    -11.317945  
      25A    -11.317836    26A    -11.317420    27A    -11.317371  
      28A    -11.317169    29A    -11.317134    30A    -11.317012  
      31A    -11.316994    32A    -11.315699    33A    -11.315691  
      34A    -11.315615    35A    -11.315605    36A    -11.315388  
      37A    -11.315382    38A    -11.315359    39A    -11.315342  
      40A    -11.315265    41A    -11.315242    42A    -11.315097  
      43A    -11.315059    44A    -11.314017    45A    -11.314010  
      46A    -11.314004    47A    -11.313995    48A    -11.313707  
      49A    -11.313702    50A    -11.313656    51A    -11.313651  
      52A    -11.313364    53A    -11.313355    54A    -11.313354  
      55A    -11.313345    56A    -11.313172    57A    -11.313161  
      58A    -11.312820    59A    -11.312816    60A    -11.312804  
      61A    -11.312798    62A    -11.312599    63A    -11.312589  
      64A    -11.312574    65A    -11.312566    66A    -11.312540  
      67A    -11.312535    68A    -11.312228    69A    -11.312224  
      70A    -11.312217    71A    -11.312210    72A    -11.312206  
      73A    -11.312194    74A    -11.312098    75A    -11.312092  
      76A    -11.311728    77A    -11.311728    78A    -11.311718  
      79A    -11.311717    80A    -11.305348    81A    -11.305324  
      82A    -11.305275    83A    -11.305275    84A    -11.305082  
      85A    -11.305062    86A    -11.305010    87A    -11.305008  
      88A    -11.304980    89A    -11.304926    90A    -11.304899  
      91A    -11.304846    92A    -11.304244    93A    -11.304231  
      94A    -11.303785    95A    -11.303771    96A    -11.303768  
      97A    -11.303767    98A    -11.302777    99A    -11.302763  
     100A    -11.302315   101A    -11.302301   102A    -11.302298  
     103A    -11.302297   104A     -1.563923   105A     -1.419392  
     106A     -1.309771   107A     -1.293505   108A     -1.293248  
     109A     -1.273972   110A     -1.273934   111A     -1.269994  
     112A     -1.253758   113A     -1.248718   114A     -1.242497  
     115A     -1.242271   116A     -1.226256   117A     -1.226231  
     118A     -1.224645   119A     -1.209553   120A     -1.209541  
     121A     -1.206796   122A     -1.196948   123A     -1.196933  
     124A     -1.181763   125A     -1.174709   126A     -1.168541  
     127A     -1.166450   128A     -1.166278   129A     -1.165286  
     130A     -1.163633   131A     -1.141523   132A     -1.141430  
     133A     -1.128980   134A     -1.128959   135A     -1.121127  
     136A     -1.121050   137A     -1.118767   138A     -1.104214  
     139A     -1.099553   140A     -1.099536   141A     -1.093238  
     142A     -1.090749   143A     -1.090696   144A     -1.079190  
     145A     -1.076048   146A     -1.075964   147A     -1.060149  
     148A     -1.059492   149A     -1.056439   150A     -1.053890  
     151A     -1.053828   152A     -1.042733   153A     -1.024107  
     154A     -1.024050   155A     -1.008539   156A     -1.008141  
     157A     -1.008120   158A     -0.982479   159A     -0.959939  
     160A     -0.959829   161A     -0.958987   162A     -0.957120  
     163A     -0.957051   164A     -0.946713   165A     -0.946588  
     166A     -0.944110   167A     -0.943996   168A     -0.942855  
     169A     -0.924188   170A     -0.920021   171A     -0.903920  
     172A     -0.902543   173A     -0.901480   174A     -0.901327  
     175A     -0.899176   176A     -0.896278   177A     -0.887153  
     178A     -0.887118   179A     -0.879703   180A     -0.879685  
     181A     -0.838076   182A     -0.837898   183A     -0.836123  
     184A     -0.835507   185A     -0.835499   186A     -0.835467  
     187A     -0.835128   188A     -0.835025   189A     -0.819925  
     190A     -0.814736   191A     -0.803764   192A     -0.802372  
     193A     -0.798253   194A     -0.785269   195A     -0.779922  
     196A     -0.779737   197A     -0.777888   198A     -0.777375  
     199A     -0.777241   200A     -0.776002   201A     -0.772031  
     202A     -0.771664   203A     -0.768186   204A     -0.767123  
     205A     -0.767043   206A     -0.751714   207A     -0.751675  
     208A     -0.739526   209A     -0.738128   210A     -0.738084  
     211A     -0.734639   212A     -0.734632   213A     -0.731441  
     214A     -0.714703   215A     -0.710869   216A     -0.705553  
     217A     -0.703214   218A     -0.703132   219A     -0.703110  
     220A     -0.703068   221A     -0.702609   222A     -0.701602  
     223A     -0.694134   224A     -0.694029   225A     -0.692397  
     226A     -0.691283   227A     -0.688900   228A     -0.688827  
     229A     -0.681713   230A     -0.674023   231A     -0.666973  
     232A     -0.666892   233A     -0.661220   234A     -0.661167  
     235A     -0.653855   236A     -0.653514   237A     -0.651857  
     238A     -0.651766   239A     -0.651739   240A     -0.651151  
     241A     -0.647586   242A     -0.647335   243A     -0.647269  
     244A     -0.646980   245A     -0.644166   246A     -0.644121  
     247A     -0.641148   248A     -0.629227   249A     -0.629170  
     250A     -0.628892   251A     -0.628804   252A     -0.625565  
     253A     -0.624436   254A     -0.621559   255A     -0.621532  
     256A     -0.618881   257A     -0.618760   258A     -0.611888  
     259A     -0.611605   260A     -0.611438   261A     -0.609807  
     262A     -0.606973   263A     -0.603175   264A     -0.598166  
     265A     -0.597337   266A     -0.589621   267A     -0.589316  
     268A     -0.585789   269A     -0.585701   270A     -0.582089  
     271A     -0.581331   272A     -0.580085   273A     -0.580048  
     274A     -0.569801   275A     -0.569606   276A     -0.567669  
     277A     -0.567651   278A     -0.561361   279A     -0.561355  
     280A     -0.550523   281A     -0.549136   282A     -0.548998  
     283A     -0.547816   284A     -0.547780   285A     -0.543786  
     286A     -0.533126   287A     -0.529400   288A     -0.529385  
     289A     -0.526128   290A     -0.522774   291A     -0.519263  
     292A     -0.519207   293A     -0.511977   294A     -0.510317  
     295A     -0.500781   296A     -0.500630   297A     -0.495002  
     298A     -0.494967   299A     -0.494700   300A     -0.486368  
     301A     -0.485745   302A     -0.460489   303A     -0.460387  
     304A     -0.440211   305A     -0.440106   306A     -0.437807  
     307A     -0.437363   308A     -0.437342   309A     -0.407139  
     310A     -0.407113   311A     -0.403537   312A     -0.393347  
     313A     -0.391269   314A     -0.391169   315A     -0.384400  
     316A     -0.384253   317A     -0.361100   318A     -0.355942  
     319A     -0.355857   320A     -0.353226   321A     -0.338620  
     322A     -0.307416   323A     -0.307214   324A     -0.307156  
     325A     -0.256876   326A     -0.256789  

    Virtual:                                                              

     327A     -0.064129   328A     -0.063884   329A     -0.054274  
     330A     -0.049793   331A     -0.041786   332A     -0.035192  
     333A     -0.019682   334A     -0.018627   335A     -0.018460  
     336A     -0.017211   337A     -0.016416   338A     -0.011363  
     339A     -0.011087   340A     -0.000208   341A      0.001096  
     342A      0.002483   343A      0.003406   344A      0.004971  
     345A      0.006969   346A      0.008248   347A      0.010118  
     348A      0.010282   349A      0.010633   350A      0.013419  
     351A      0.013539   352A      0.014799   353A      0.016570  
     354A      0.016707   355A      0.019962   356A      0.020056  
     357A      0.021200   358A      0.023735   359A      0.025502  
     360A      0.026294   361A      0.026505   362A      0.028750  
     363A      0.031285   364A      0.031320   365A      0.031801  
     366A      0.035282   367A      0.038170   368A      0.039787  
     369A      0.040426   370A      0.041214   371A      0.042467  
     372A      0.043458   373A      0.043640   374A      0.044892  
     375A      0.046985   376A      0.049143   377A      0.053530  
     378A      0.053535   379A      0.053864   380A      0.054611  
     381A      0.058553   382A      0.058633   383A      0.059878  
     384A      0.061132   385A      0.062016   386A      0.063025  
     387A      0.063071   388A      0.063330   389A      0.063406  
     390A      0.063884   391A      0.066448   392A      0.069551  
     393A      0.071098   394A      0.071609   395A      0.071745  
     396A      0.074008   397A      0.074531   398A      0.076952  
     399A      0.077867   400A      0.080581   401A      0.083238  
     402A      0.083823   403A      0.084562   404A      0.086963  
     405A      0.087564   406A      0.087733   407A      0.091824  
     408A      0.092106   409A      0.092352   410A      0.094124  
     411A      0.094376   412A      0.097105   413A      0.097486  
     414A      0.097846   415A      0.100190   416A      0.103173  
     417A      0.103758   418A      0.104387   419A      0.104690  
     420A      0.105345   421A      0.106142   422A      0.110492  
     423A      0.112133   424A      0.112265   425A      0.114251  
     426A      0.114371   427A      0.115074   428A      0.115744  
     429A      0.117603   430A      0.119024   431A      0.121016  
     432A      0.121394   433A      0.121670   434A      0.123728  
     435A      0.126043   436A      0.127119   437A      0.127816  
     438A      0.128006   439A      0.128412   440A      0.132381  
     441A      0.132758   442A      0.133026   443A      0.133122  
     444A      0.133664   445A      0.139019   446A      0.141109  
     447A      0.141985   448A      0.142254   449A      0.142365  
     450A      0.143124   451A      0.148148   452A      0.150248  
     453A      0.151536   454A      0.152370   455A      0.152682  
     456A      0.153042   457A      0.154009   458A      0.154603  
     459A      0.155616   460A      0.156570   461A      0.157249  
     462A      0.157786   463A      0.158029   464A      0.158727  
     465A      0.159029   466A      0.159585   467A      0.160510  
     468A      0.160975   469A      0.161180   470A      0.161802  
     471A      0.162294   472A      0.162696   473A      0.165480  
     474A      0.166070   475A      0.167386   476A      0.167931  
     477A      0.168545   478A      0.169519   479A      0.171256  
     480A      0.172560   481A      0.173343   482A      0.173535  
     483A      0.175459   484A      0.176378   485A      0.176767  
     486A      0.176828   487A      0.179034   488A      0.181141  
     489A      0.181600   490A      0.181742   491A      0.182978  
     492A      0.183063   493A      0.184459   494A      0.186051  
     495A      0.188294   496A      0.190121   497A      0.190327  
     498A      0.190781   499A      0.192739   500A      0.193485  
     501A      0.193725   502A      0.194149   503A      0.194221  
     504A      0.198153   505A      0.198700   506A      0.198847  
     507A      0.201414   508A      0.202101   509A      0.203010  
     510A      0.204608   511A      0.206718   512A      0.207220  
     513A      0.208339   514A      0.208587   515A      0.211044  
     516A      0.211204   517A      0.214304   518A      0.214322  
     519A      0.215460   520A      0.216505   521A      0.216677  
     522A      0.217137   523A      0.218027   524A      0.219092  
     525A      0.219247   526A      0.219769   527A      0.221707  
     528A      0.222637   529A      0.224787   530A      0.227274  
     531A      0.227797   532A      0.228023   533A      0.229427  
     534A      0.229533   535A      0.229654   536A      0.230542  
     537A      0.233360   538A      0.235039   539A      0.236128  
     540A      0.237453   541A      0.237644   542A      0.237960  
     543A      0.238709   544A      0.241302   545A      0.242480  
     546A      0.243066   547A      0.243574   548A      0.244537  
     549A      0.245156   550A      0.247191   551A      0.249669  
     552A      0.249989   553A      0.250553   554A      0.250707  
     555A      0.252456   556A      0.254098   557A      0.255021  
     558A      0.255625   559A      0.256494   560A      0.256984  
     561A      0.257723   562A      0.257898   563A      0.259227  
     564A      0.259973   565A      0.264128   566A      0.264325  
     567A      0.265371   568A      0.266397   569A      0.266851  
     570A      0.267360   571A      0.268143   572A      0.269497  
     573A      0.270210   574A      0.270511   575A      0.270815  
     576A      0.271476   577A      0.271757   578A      0.273101  
     579A      0.273800   580A      0.274832   581A      0.276982  
     582A      0.277627   583A      0.277878   584A      0.279762  
     585A      0.280556   586A      0.281838   587A      0.282092  
     588A      0.282336   589A      0.283149   590A      0.285338  
     591A      0.286609   592A      0.287249   593A      0.288406  
     594A      0.288701   595A      0.291354   596A      0.291763  
     597A      0.293744   598A      0.294312   599A      0.295396  
     600A      0.296427   601A      0.296515   602A      0.297078  
     603A      0.297926   604A      0.298244   605A      0.299095  
     606A      0.299545   607A      0.300390   608A      0.302706  
     609A      0.303553   610A      0.304650   611A      0.304824  
     612A      0.308783   613A      0.309605   614A      0.312080  
     615A      0.312476   616A      0.312811   617A      0.314833  
     618A      0.317117   619A      0.317674   620A      0.318152  
     621A      0.318458   622A      0.319145   623A      0.319505  
     624A      0.319747   625A      0.323226   626A      0.323938  
     627A      0.324878   628A      0.326157   629A      0.328977  
     630A      0.329177   631A      0.329585   632A      0.330193  
     633A      0.331309   634A      0.332158   635A      0.332483  
     636A      0.333512   637A      0.334596   638A      0.335914  
     639A      0.338042   640A      0.339672   641A      0.341552  
     642A      0.342258   643A      0.343437   644A      0.344204  
     645A      0.344277   646A      0.344634   647A      0.345285  
     648A      0.345851   649A      0.345890   650A      0.346095  
     651A      0.347342   652A      0.347639   653A      0.349575  
     654A      0.350809   655A      0.351316   656A      0.351603  
     657A      0.352347   658A      0.353526   659A      0.353572  
     660A      0.354600   661A      0.355016   662A      0.355912  
     663A      0.357852   664A      0.358232   665A      0.358487  
     666A      0.360134   667A      0.360234   668A      0.361521  
     669A      0.361795   670A      0.363140   671A      0.363900  
     672A      0.364257   673A      0.364640   674A      0.365023  
     675A      0.366679   676A      0.367939   677A      0.368267  
     678A      0.371200   679A      0.372432   680A      0.373701  
     681A      0.375246   682A      0.375928   683A      0.376212  
     684A      0.377257   685A      0.378693   686A      0.378892  
     687A      0.378975   688A      0.379717   689A      0.380907  
     690A      0.381708   691A      0.381767   692A      0.382690  
     693A      0.385572   694A      0.386074   695A      0.386387  
     696A      0.387860   697A      0.388517   698A      0.388876  
     699A      0.389487   700A      0.393538   701A      0.397527  
     702A      0.399231   703A      0.399785   704A      0.400620  
     705A      0.401277   706A      0.401804   707A      0.402290  
     708A      0.402691   709A      0.404659   710A      0.404702  
     711A      0.404960   712A      0.405952   713A      0.406502  
     714A      0.407220   715A      0.410801   716A      0.411250  
     717A      0.411360   718A      0.412340   719A      0.413662  
     720A      0.414696   721A      0.415441   722A      0.416257  
     723A      0.417053   724A      0.417748   725A      0.419404  
     726A      0.419715   727A      0.421056   728A      0.423294  
     729A      0.423801   730A      0.423846   731A      0.424919  
     732A      0.425251   733A      0.425767   734A      0.426471  
     735A      0.426889   736A      0.428450   737A      0.428631  
     738A      0.431823   739A      0.433824   740A      0.434844  
     741A      0.436102   742A      0.436958   743A      0.438617  
     744A      0.439215   745A      0.440276   746A      0.440780  
     747A      0.442417   748A      0.443504   749A      0.445530  
     750A      0.446032   751A      0.450602   752A      0.451950  
     753A      0.452544   754A      0.452655   755A      0.452986  
     756A      0.454640   757A      0.455300   758A      0.455799  
     759A      0.456819   760A      0.458281   761A      0.462986  
     762A      0.463640   763A      0.464123   764A      0.464233  
     765A      0.465371   766A      0.465513   767A      0.466800  
     768A      0.468248   769A      0.468798   770A      0.469441  
     771A      0.472166   772A      0.472870   773A      0.473454  
     774A      0.477864   775A      0.479077   776A      0.481565  
     777A      0.481703   778A      0.483176   779A      0.486911  
     780A      0.487099   781A      0.488631   782A      0.488753  
     783A      0.490220   784A      0.492693   785A      0.494343  
     786A      0.495709   787A      0.502980   788A      0.505869  
     789A      0.506821   790A      0.508614   791A      0.510000  
     792A      0.510230   793A      0.511611   794A      0.515000  
     795A      0.516274   796A      0.516313   797A      0.518635  
     798A      0.519077   799A      0.520360   800A      0.521268  
     801A      0.523435   802A      0.523962   803A      0.524139  
     804A      0.525542   805A      0.525808   806A      0.526847  
     807A      0.527366   808A      0.529498   809A      0.531449  
     810A      0.533808   811A      0.535917   812A      0.537750  
     813A      0.538130   814A      0.539072   815A      0.541411  
     816A      0.541721   817A      0.545585   818A      0.545683  
     819A      0.547074   820A      0.549406   821A      0.551328  
     822A      0.552099   823A      0.553419   824A      0.554133  
     825A      0.559498   826A      0.565069   827A      0.566986  
     828A      0.567321   829A      0.568344   830A      0.568589  
     831A      0.573229   832A      0.577844   833A      0.578601  
     834A      0.579583   835A      0.581282   836A      0.586474  
     837A      0.587542   838A      0.590448   839A      0.591629  
     840A      0.594625   841A      0.602477   842A      0.602917  
     843A      0.604677   844A      0.606594   845A      0.607344  
     846A      0.607800   847A      0.608063   848A      0.613133  
     849A      0.614980   850A      0.615254   851A      0.620100  
     852A      0.627919   853A      0.630928   854A      0.633045  
     855A      0.634497   856A      0.635099   857A      0.635201  
     858A      0.637811   859A      0.639352   860A      0.639597  
     861A      0.639944   862A      0.644998   863A      0.646452  
     864A      0.648041   865A      0.648393   866A      0.649040  
     867A      0.649972   868A      0.654486   869A      0.654670  
     870A      0.658799   871A      0.666935   872A      0.668885  
     873A      0.670826   874A      0.672844   875A      0.678587  
     876A      0.679503   877A      0.682830   878A      0.687237  
     879A      0.688069   880A      0.689232   881A      0.689461  
     882A      0.692297   883A      0.693074   884A      0.693954  
     885A      0.698012   886A      0.698297   887A      0.700118  
     888A      0.702218   889A      0.706349   890A      0.713083  
     891A      0.718762   892A      0.720626   893A      0.730271  
     894A      0.732245   895A      0.732690   896A      0.736251  
     897A      0.736763   898A      0.738991   899A      0.740906  
     900A      0.742509   901A      0.743478   902A      0.747218  
     903A      0.748976   904A      0.751440   905A      0.753116  
     906A      0.754388   907A      0.755741   908A      0.758223  
     909A      0.759082   910A      0.760304   911A      0.763651  
     912A      0.764704   913A      0.766143   914A      0.766572  
     915A      0.767524   916A      0.768639   917A      0.772304  
     918A      0.775807   919A      0.776926   920A      0.778245  
     921A      0.781450   922A      0.782859   923A      0.784017  
     924A      0.784582   925A      0.786434   926A      0.787040  
     927A      0.788808   928A      0.791499   929A      0.793577  
     930A      0.794766   931A      0.795627   932A      0.796412  
     933A      0.800486   934A      0.803491   935A      0.804843  
     936A      0.807670   937A      0.808624   938A      0.809621  
     939A      0.810598   940A      0.812413   941A      0.814109  
     942A      0.815302   943A      0.817454   944A      0.817712  
     945A      0.817828   946A      0.819407   947A      0.819573  
     948A      0.823434   949A      0.824454   950A      0.825757  
     951A      0.826983   952A      0.827598   953A      0.827842  
     954A      0.830860   955A      0.834164   956A      0.836458  
     957A      0.837720   958A      0.838178   959A      0.838619  
     960A      0.839996   961A      0.840321   962A      0.842193  
     963A      0.843399   964A      0.846449   965A      0.847945  
     966A      0.849386   967A      0.850026   968A      0.854293  
     969A      0.855774   970A      0.856421   971A      0.860176  
     972A      0.863375   973A      0.865526   974A      0.865763  
     975A      0.866470   976A      0.867379   977A      0.869223  
     978A      0.870468   979A      0.870755   980A      0.871110  
     981A      0.872637   982A      0.875239   983A      0.876483  
     984A      0.876831   985A      0.879039   986A      0.881731  
     987A      0.882195   988A      0.882908   989A      0.886617  
     990A      0.886937   991A      0.888000   992A      0.889237  
     993A      0.892809   994A      0.894946   995A      0.896972  
     996A      0.898352   997A      0.898805   998A      0.899158  
     999A      0.899415  1000A      0.901495  1001A      0.902066  
    1002A      0.902300  1003A      0.905301  1004A      0.905542  
    1005A      0.905712  1006A      0.906297  1007A      0.913958  
    1008A      0.914301  1009A      0.916605  1010A      0.917010  
    1011A      0.918000  1012A      0.920703  1013A      0.921051  
    1014A      0.922074  1015A      0.930313  1016A      0.931004  
    1017A      0.932190  1018A      0.935239  1019A      0.942030  
    1020A      0.942277  1021A      0.942448  1022A      0.942641  
    1023A      0.948807  1024A      0.948979  1025A      0.951150  
    1026A      0.952675  1027A      0.953019  1028A      0.953619  
    1029A      0.954381  1030A      0.958204  1031A      0.961008  
    1032A      0.962663  1033A      0.964157  1034A      0.967749  
    1035A      0.967794  1036A      0.968847  1037A      0.969035  
    1038A      0.970312  1039A      0.971449  1040A      0.975632  
    1041A      0.978215  1042A      0.979129  1043A      0.979408  
    1044A      0.981785  1045A      0.982940  1046A      0.984197  
    1047A      0.984358  1048A      0.992162  1049A      0.992887  
    1050A      0.993846  1051A      0.994514  1052A      0.995199  
    1053A      0.995293  1054A      0.996071  1055A      0.996736  
    1056A      0.997942  1057A      0.998521  1058A      1.000378  
    1059A      1.000733  1060A      1.001041  1061A      1.001203  
    1062A      1.002051  1063A      1.008849  1064A      1.009300  
    1065A      1.010654  1066A      1.012099  1067A      1.014141  
    1068A      1.014636  1069A      1.015287  1070A      1.015834  
    1071A      1.016053  1072A      1.017142  1073A      1.017544  
    1074A      1.017662  1075A      1.018175  1076A      1.019380  
    1077A      1.020367  1078A      1.020987  1079A      1.021575  
    1080A      1.021647  1081A      1.022951  1082A      1.023868  
    1083A      1.024643  1084A      1.025234  1085A      1.025595  
    1086A      1.026576  1087A      1.026840  1088A      1.027551  
    1089A      1.028387  1090A      1.028523  1091A      1.029110  
    1092A      1.029625  1093A      1.030015  1094A      1.031357  
    1095A      1.033891  1096A      1.034303  1097A      1.034692  
    1098A      1.035676  1099A      1.036891  1100A      1.037391  
    1101A      1.038103  1102A      1.039064  1103A      1.040421  
    1104A      1.044126  1105A      1.044783  1106A      1.045390  
    1107A      1.046011  1108A      1.048472  1109A      1.048773  
    1110A      1.049753  1111A      1.050610  1112A      1.051144  
    1113A      1.052921  1114A      1.057218  1115A      1.058500  
    1116A      1.060159  1117A      1.061329  1118A      1.067076  
    1119A      1.067809  1120A      1.068185  1121A      1.069080  
    1122A      1.075467  1123A      1.076022  1124A      1.077460  
    1125A      1.079357  1126A      1.079815  1127A      1.081494  
    1128A      1.081758  1129A      1.081927  1130A      1.085139  
    1131A      1.085215  1132A      1.086726  1133A      1.090631  
    1134A      1.091966  1135A      1.092708  1136A      1.093470  
    1137A      1.094474  1138A      1.095805  1139A      1.097421  
    1140A      1.098683  1141A      1.099208  1142A      1.102748  
    1143A      1.104933  1144A      1.105008  1145A      1.106983  
    1146A      1.110123  1147A      1.110578  1148A      1.115285  
    1149A      1.116916  1150A      1.116996  1151A      1.117886  
    1152A      1.123362  1153A      1.123629  1154A      1.127148  
    1155A      1.131065  1156A      1.131649  1157A      1.133661  
    1158A      1.134286  1159A      1.136066  1160A      1.139055  
    1161A      1.140061  1162A      1.141187  1163A      1.142821  
    1164A      1.149641  1165A      1.150099  1166A      1.150257  
    1167A      1.152774  1168A      1.153111  1169A      1.154054  
    1170A      1.157541  1171A      1.159291  1172A      1.160941  
    1173A      1.163351  1174A      1.164599  1175A      1.164794  
    1176A      1.166944  1177A      1.167933  1178A      1.171305  
    1179A      1.172297  1180A      1.174102  1181A      1.176056  
    1182A      1.181171  1183A      1.181876  1184A      1.184855  
    1185A      1.194984  1186A      1.195070  1187A      1.196738  
    1188A      1.200297  1189A      1.201106  1190A      1.203810  
    1191A      1.209752  1192A      1.210159  1193A      1.210343  
    1194A      1.212179  1195A      1.218267  1196A      1.219284  
    1197A      1.219888  1198A      1.220504  1199A      1.226156  
    1200A      1.233755  1201A      1.234044  1202A      1.238407  
    1203A      1.238887  1204A      1.239184  1205A      1.242494  
    1206A      1.242992  1207A      1.244040  1208A      1.245182  
    1209A      1.251289  1210A      1.251719  1211A      1.254109  
    1212A      1.254154  1213A      1.255962  1214A      1.259520  
    1215A      1.260460  1216A      1.262052  1217A      1.262220  
    1218A      1.268093  1219A      1.268283  1220A      1.268427  
    1221A      1.268915  1222A      1.270479  1223A      1.274612  
    1224A      1.275062  1225A      1.279069  1226A      1.279578  
    1227A      1.281143  1228A      1.283226  1229A      1.283802  
    1230A      1.287859  1231A      1.288085  1232A      1.290479  
    1233A      1.290765  1234A      1.293791  1235A      1.297481  
    1236A      1.299733  1237A      1.303295  1238A      1.303741  
    1239A      1.304808  1240A      1.306198  1241A      1.306771  
    1242A      1.310654  1243A      1.311962  1244A      1.312226  
    1245A      1.315375  1246A      1.318833  1247A      1.319526  
    1248A      1.321784  1249A      1.322178  1250A      1.323894  
    1251A      1.334519  1252A      1.336054  1253A      1.338201  
    1254A      1.341823  1255A      1.343320  1256A      1.343412  
    1257A      1.343651  1258A      1.345945  1259A      1.352465  
    1260A      1.353471  1261A      1.355054  1262A      1.355793  
    1263A      1.355935  1264A      1.358093  1265A      1.358688  
    1266A      1.359739  1267A      1.362529  1268A      1.363125  
    1269A      1.365456  1270A      1.369329  1271A      1.372326  
    1272A      1.373481  1273A      1.374897  1274A      1.375288  
    1275A      1.375308  1276A      1.377631  1277A      1.377708  
    1278A      1.379643  1279A      1.381092  1280A      1.384476  
    1281A      1.384931  1282A      1.385717  1283A      1.387386  
    1284A      1.389059  1285A      1.391125  1286A      1.394182  
    1287A      1.394865  1288A      1.396566  1289A      1.397610  
    1290A      1.397694  1291A      1.400007  1292A      1.406673  
    1293A      1.410709  1294A      1.412995  1295A      1.416831  
    1296A      1.417342  1297A      1.417864  1298A      1.419744  
    1299A      1.420279  1300A      1.426220  1301A      1.431691  
    1302A      1.432108  1303A      1.433085  1304A      1.438577  
    1305A      1.441713  1306A      1.443435  1307A      1.443948  
    1308A      1.447946  1309A      1.451698  1310A      1.453237  
    1311A      1.453397  1312A      1.464719  1313A      1.465659  
    1314A      1.483336  1315A      1.485763  1316A      1.488000  
    1317A      1.488559  1318A      1.491284  1319A      1.494354  
    1320A      1.500280  1321A      1.500358  1322A      1.519682  
    1323A      1.530389  1324A      1.534880  1325A      1.540154  
    1326A      1.542045  1327A      1.545765  1328A      1.549269  
    1329A      1.550105  1330A      1.551320  1331A      1.552778  
    1332A      1.553552  1333A      1.554834  1334A      1.557611  
    1335A      1.557902  1336A      1.558316  1337A      1.561188  
    1338A      1.561334  1339A      1.561893  1340A      1.562573  
    1341A      1.563248  1342A      1.566247  1343A      1.567673  
    1344A      1.568384  1345A      1.571283  1346A      1.573316  
    1347A      1.573969  1348A      1.574424  1349A      1.577281  
    1350A      1.577870  1351A      1.580491  1352A      1.582127  
    1353A      1.582671  1354A      1.583559  1355A      1.584817  
    1356A      1.585168  1357A      1.585524  1358A      1.586567  
    1359A      1.586764  1360A      1.588243  1361A      1.590441  
    1362A      1.591145  1363A      1.592779  1364A      1.598592  
    1365A      1.599670  1366A      1.599808  1367A      1.603749  
    1368A      1.603884  1369A      1.604708  1370A      1.611509  
    1371A      1.611905  1372A      1.614805  1373A      1.614929  
    1374A      1.615449  1375A      1.616243  1376A      1.616294  
    1377A      1.617821  1378A      1.622832  1379A      1.624080  
    1380A      1.624399  1381A      1.625062  1382A      1.625819  
    1383A      1.635153  1384A      1.635901  1385A      1.636448  
    1386A      1.640242  1387A      1.642942  1388A      1.643302  
    1389A      1.644029  1390A      1.645001  1391A      1.646972  
    1392A      1.656745  1393A      1.657011  1394A      1.657307  
    1395A      1.661863  1396A      1.663508  1397A      1.663749  
    1398A      1.666499  1399A      1.668099  1400A      1.669186  
    1401A      1.669341  1402A      1.671851  1403A      1.672791  
    1404A      1.679665  1405A      1.685008  1406A      1.685621  
    1407A      1.686017  1408A      1.693131  1409A      1.695128  
    1410A      1.695208  1411A      1.697580  1412A      1.698276  
    1413A      1.698554  1414A      1.710814  1415A      1.712674  
    1416A      1.715814  1417A      1.717168  1418A      1.727410  
    1419A      1.734703  1420A      1.735312  1421A      1.735854  
    1422A      1.748982  1423A      1.749168  1424A      1.750456  
    1425A      1.756354  1426A      1.764211  1427A      1.765445  
    1428A      1.766277  1429A      1.769337  1430A      1.771382  
    1431A      1.773500  1432A      1.774552  1433A      1.775243  
    1434A      1.775713  1435A      1.777316  1436A      1.778819  
    1437A      1.780284  1438A      1.780681  1439A      1.783965  
    1440A      1.784194  1441A      1.784625  1442A      1.784970  
    1443A      1.790758  1444A      1.792268  1445A      1.802903  
    1446A      1.804559  1447A      1.805153  1448A      1.807527  
    1449A      1.807871  1450A      1.810136  1451A      1.810295  
    1452A      1.812803  1453A      1.813126  1454A      1.817496  
    1455A      1.818218  1456A      1.820744  1457A      1.821196  
    1458A      1.823292  1459A      1.826508  1460A      1.828348  
    1461A      1.829374  1462A      1.830261  1463A      1.830649  
    1464A      1.831210  1465A      1.831985  1466A      1.832555  
    1467A      1.832997  1468A      1.833673  1469A      1.836269  
    1470A      1.836452  1471A      1.836887  1472A      1.850548  
    1473A      1.850812  1474A      1.853682  1475A      1.853753  
    1476A      1.858661  1477A      1.861519  1478A      1.862265  
    1479A      1.863083  1480A      1.864395  1481A      1.868084  
    1482A      1.869103  1483A      1.869351  1484A      1.871712  
    1485A      1.872090  1486A      1.872823  1487A      1.876325  
    1488A      1.879077  1489A      1.884123  1490A      1.885027  
    1491A      1.885693  1492A      1.886817  1493A      1.887493  
    1494A      1.887629  1495A      1.887905  1496A      1.889428  
    1497A      1.891120  1498A      1.891969  1499A      1.893955  
    1500A      1.899446  1501A      1.900472  1502A      1.902382  
    1503A      1.905576  1504A      1.906523  1505A      1.908109  
    1506A      1.908444  1507A      1.908798  1508A      1.913030  
    1509A      1.914805  1510A      1.915710  1511A      1.916310  
    1512A      1.917224  1513A      1.918870  1514A      1.919675  
    1515A      1.920574  1516A      1.927675  1517A      1.929284  
    1518A      1.932036  1519A      1.937506  1520A      1.939599  
    1521A      1.939767  1522A      1.940988  1523A      1.941688  
    1524A      1.942391  1525A      1.954411  1526A      1.954745  
    1527A      1.957683  1528A      1.958821  1529A      1.959877  
    1530A      1.963397  1531A      1.963586  1532A      1.964296  
    1533A      1.964902  1534A      1.966593  1535A      1.966930  
    1536A      1.967148  1537A      1.968313  1538A      1.968670  
    1539A      1.971921  1540A      1.975452  1541A      1.977840  
    1542A      1.980369  1543A      1.980789  1544A      1.982813  
    1545A      1.985385  1546A      1.986936  1547A      1.989420  
    1548A      1.990226  1549A      1.994368  1550A      1.997033  
    1551A      1.999580  1552A      2.000505  1553A      2.002992  
    1554A      2.003414  1555A      2.005938  1556A      2.006582  
    1557A      2.007474  1558A      2.007681  1559A      2.013653  
    1560A      2.016040  1561A      2.016372  1562A      2.018064  
    1563A      2.021866  1564A      2.023819  1565A      2.025868  
    1566A      2.026882  1567A      2.027970  1568A      2.028231  
    1569A      2.029732  1570A      2.030022  1571A      2.030481  
    1572A      2.031489  1573A      2.033942  1574A      2.035890  
    1575A      2.036599  1576A      2.037184  1577A      2.038553  
    1578A      2.039073  1579A      2.039827  1580A      2.041126  
    1581A      2.041989  1582A      2.043960  1583A      2.044619  
    1584A      2.045232  1585A      2.045647  1586A      2.048854  
    1587A      2.049097  1588A      2.051077  1589A      2.053815  
    1590A      2.056738  1591A      2.058173  1592A      2.059431  
    1593A      2.059650  1594A      2.060110  1595A      2.061226  
    1596A      2.061509  1597A      2.064621  1598A      2.065593  
    1599A      2.067105  1600A      2.073277  1601A      2.074148  
    1602A      2.074496  1603A      2.074772  1604A      2.075021  
    1605A      2.076023  1606A      2.076592  1607A      2.078057  
    1608A      2.080915  1609A      2.082957  1610A      2.083681  
    1611A      2.084384  1612A      2.086438  1613A      2.089259  
    1614A      2.089558  1615A      2.091706  1616A      2.092761  
    1617A      2.093106  1618A      2.101809  1619A      2.102032  
    1620A      2.104084  1621A      2.104144  1622A      2.105423  
    1623A      2.106590  1624A      2.106882  1625A      2.107576  
    1626A      2.111302  1627A      2.111755  1628A      2.114814  
    1629A      2.118807  1630A      2.119022  1631A      2.127381  
    1632A      2.128737  1633A      2.128837  1634A      2.130090  
    1635A      2.135679  1636A      2.135804  1637A      2.137137  
    1638A      2.137401  1639A      2.139331  1640A      2.140661  
    1641A      2.143594  1642A      2.144160  1643A      2.145834  
    1644A      2.146343  1645A      2.148338  1646A      2.148825  
    1647A      2.150445  1648A      2.151699  1649A      2.152764  
    1650A      2.153778  1651A      2.156842  1652A      2.161198  
    1653A      2.161468  1654A      2.163894  1655A      2.166878  
    1656A      2.170582  1657A      2.170874  1658A      2.171490  
    1659A      2.171583  1660A      2.173080  1661A      2.175336  
    1662A      2.176416  1663A      2.180196  1664A      2.181921  
    1665A      2.182647  1666A      2.183734  1667A      2.185399  
    1668A      2.185573  1669A      2.189650  1670A      2.193209  
    1671A      2.194785  1672A      2.196645  1673A      2.197342  
    1674A      2.209939  1675A      2.211530  1676A      2.212187  
    1677A      2.213373  1678A      2.213753  1679A      2.215151  
    1680A      2.219454  1681A      2.221804  1682A      2.230802  
    1683A      2.231961  1684A      2.238565  1685A      2.239082  
    1686A      2.239784  1687A      2.243156  1688A      2.245063  
    1689A      2.251856  1690A      2.252263  1691A      2.256675  
    1692A      2.260720  1693A      2.264999  1694A      2.270731  
    1695A      2.272769  1696A      2.272827  1697A      2.274542  
    1698A      2.276539  1699A      2.278491  1700A      2.278872  
    1701A      2.279569  1702A      2.280820  1703A      2.282320  
    1704A      2.286041  1705A      2.288920  1706A      2.289496  
    1707A      2.289909  1708A      2.291915  1709A      2.292470  
    1710A      2.293162  1711A      2.295392  1712A      2.295827  
    1713A      2.309782  1714A      2.313065  1715A      2.317619  
    1716A      2.318226  1717A      2.331758  1718A      2.335395  
    1719A      2.336744  1720A      2.338129  1721A      2.339369  
    1722A      2.342769  1723A      2.343362  1724A      2.351179  
    1725A      2.365993  1726A      2.367032  1727A      2.370525  
    1728A      2.375141  1729A      2.378549  1730A      2.388834  
    1731A      2.391053  1732A      2.398942  1733A      2.399920  
    1734A      2.412027  1735A      2.412171  1736A      2.415555  
    1737A      2.415698  1738A      2.419881  1739A      2.420219  
    1740A      2.439491  1741A      2.440128  1742A      2.441504  
    1743A      2.450222  1744A      2.455063  1745A      2.455951  
    1746A      2.458683  1747A      2.459804  1748A      2.464916  
    1749A      2.476904  1750A      2.486038  1751A      2.486451  
    1752A      2.488101  1753A      2.489909  1754A      2.490754  
    1755A      2.491865  1756A      2.495315  1757A      2.496666  
    1758A      2.498061  1759A      2.499241  1760A      2.502515  
    1761A      2.502787  1762A      2.510749  1763A      2.511520  
    1764A      2.518885  1765A      2.520888  1766A      2.529386  
    1767A      2.533110  1768A      2.533428  1769A      2.533801  
    1770A      2.534380  1771A      2.538160  1772A      2.538511  
    1773A      2.541018  1774A      2.543504  1775A      2.549527  
    1776A      2.549577  1777A      2.560678  1778A      2.561058  
    1779A      2.561336  1780A      2.561810  1781A      2.565345  
    1782A      2.565547  1783A      2.580127  1784A      2.586937  
    1785A      2.587930  1786A      2.589067  1787A      2.591198  
    1788A      2.592694  1789A      2.595359  1790A      2.596300  
    1791A      2.596583  1792A      2.601812  1793A      2.604337  
    1794A      2.604681  1795A      2.611947  1796A      2.612983  
    1797A      2.616481  1798A      2.617919  1799A      2.619267  
    1800A      2.619599  1801A      2.620022  1802A      2.625708  
    1803A      2.626598  1804A      2.632201  1805A      2.632763  
    1806A      2.634422  1807A      2.638472  1808A      2.638635  
    1809A      2.638972  1810A      2.639994  1811A      2.643330  
    1812A      2.644744  1813A      2.649643  1814A      2.653014  
    1815A      2.669271  1816A      2.674455  1817A      2.678352  
    1818A      2.679131  1819A      2.679554  1820A      2.680384  
    1821A      2.680817  1822A      2.694675  1823A      2.695071  
    1824A      2.700196  1825A      2.703639  1826A      2.705840  
    1827A      2.706809  1828A      2.718430  1829A      2.719574  
    1830A      2.721491  1831A      2.726197  1832A      2.727870  
    1833A      2.745186  1834A      2.746125  1835A      2.747484  
    1836A      2.748503  1837A      2.748730  1838A      2.748870  
    1839A      2.756020  1840A      2.756639  1841A      2.760399  
    1842A      2.761089  1843A      2.761639  1844A      2.763108  
    1845A      2.764060  1846A      2.773949  1847A      2.774105  
    1848A      2.787065  1849A      2.788371  1850A      2.788995  
    1851A      2.789246  1852A      2.792951  1853A      2.809277  
    1854A      2.811483  1855A      2.811772  1856A      2.812290  
    1857A      2.818032  1858A      2.819323  1859A      2.822040  
    1860A      2.840918  1861A      2.841836  1862A      2.859370  
    1863A      2.866708  1864A      2.867014  1865A      2.876566  
    1866A      2.878770  1867A      2.883514  1868A      2.883631  
    1869A      2.911373  1870A      2.913491  1871A      2.913991  
    1872A      2.924710  1873A      2.928550  1874A      2.940199  
    1875A      2.940907  1876A      2.976316  1877A      2.977166  
    1878A      2.983882  1879A      2.986303  1880A      2.988780  
    1881A      2.994192  1882A      2.995152  1883A      2.996857  
    1884A      3.004379  1885A      3.004704  1886A      3.013787  
    1887A      3.020314  1888A      3.057506  1889A      3.059301  
    1890A      3.061851  1891A      3.061940  1892A      3.070438  
    1893A      3.073997  1894A      3.074582  1895A      3.076795  
    1896A      3.080105  1897A      3.082052  1898A      3.090551  
    1899A      3.091773  1900A      3.095401  1901A      3.096318  
    1902A      3.097978  1903A      3.098786  1904A      3.102596  
    1905A      3.111468  1906A      3.113724  1907A      3.122163  
    1908A      3.123982  1909A      3.124126  1910A      3.141892  
    1911A      3.142663  1912A      3.169319  1913A      3.200786  
    1914A      3.207719  1915A      3.208376  1916A      3.208828  
    1917A      3.210060  1918A      3.212264  1919A      3.216176  
    1920A      3.219304  1921A      3.222907  1922A      3.223295  
    1923A      3.240784  1924A      3.242873  1925A      3.244461  
    1926A      3.250521  1927A      3.307593  1928A      3.308662  
    1929A      3.316074  1930A      3.362020  1931A      3.375661  
    1932A      3.377525  1933A      3.380230  1934A      3.391021  
    1935A      3.395121  1936A      3.406482  1937A      3.410254  
    1938A      3.411243  1939A      3.417037  1940A      3.420091  
    1941A      3.427329  1942A      3.431397  1943A      3.439314  
    1944A      3.450807  1945A      3.455226  1946A      3.484886  
    1947A      3.520641  1948A      3.522322  1949A      3.529886  
    1950A      3.537586  1951A      3.539980  1952A      3.585771  
    1953A      3.587209  1954A      3.611529  1955A      3.613795  
    1956A      3.651467  1957A      3.693341  1958A      3.696867  
    1959A      3.697542  1960A      3.708687  1961A      3.725286  
    1962A      3.726557  1963A      3.789735  1964A      3.790595  
    1965A      3.818997  1966A      3.821915  1967A      3.851643  
    1968A      3.859507  1969A      3.883195  1970A      3.885202  
    1971A      3.895309  1972A      3.896524  1973A      3.904762  
    1974A      3.909527  1975A      3.916803  1976A      3.970477  
    1977A      3.972985  1978A      4.015952  1979A      4.172766  
    1980A      4.245276  1981A      4.336794  

    Final Occupation by Irrep:
              A 
    DOCC [   326 ]
    NA   [   326 ]
    NB   [   326 ]

  @DF-RHF Final Energy: -3953.64697271484283

   => Energetics <=

    Nuclear Repulsion Energy =          17702.5743452995739062
    One-Electron Energy =              -40616.7382809053815436
    Two-Electron Energy =               18960.5169628909643507
    Total Energy =                      -3953.6469727148432867

Computation Completed


Properties will be evaluated at   0.000000,   0.000000,   0.000000 [a0]

Properties computed using the SCF density matrix


 Multipole Moments:

 ------------------------------------------------------------------------------------
     Multipole            Electronic (a.u.)      Nuclear  (a.u.)        Total (a.u.)
 ------------------------------------------------------------------------------------

 L = 1.  Multiply by 2.5417464519 to convert [e a0] to [Debye]
 Dipole X            :         -0.0021952            0.0004804           -0.0017148
 Dipole Y            :         -0.0494504            0.0561130            0.0066626
 Dipole Z            :         30.8049195          -41.8408439          -11.0359244
 Magnitude           :                                                   11.0359266

 ------------------------------------------------------------------------------------

*** tstop() called on n2cn0313 at Sat Jan 27 02:11:36 2024
Module time:
	user time   =   26484.55 seconds =     441.41 minutes
	system time =    1752.12 seconds =      29.20 minutes
	total time  =       7094 seconds =     118.23 minutes
Total time:
	user time   =   26484.55 seconds =     441.41 minutes
	system time =    1752.12 seconds =      29.20 minutes
	total time  =       7094 seconds =     118.23 minutes

  //>>>>>>>>>>>>>>>>>>>>>>>>>>>>>>>>>>>//
  //            Monomer A HF           //
  //<<<<<<<<<<<<<<<<<<<<<<<<<<<<<<<<<<<//

   => Libint2 <=

    Primary   basis highest AM E, G, H:  5, 4, 3
    Auxiliary basis highest AM E, G, H:  6, 5, 4
    Onebody   basis highest AM E, G, H:  6, 5, 4
    Solid Harmonics ordering:            gaussian

*** tstart() called on n2cn0313
*** at Sat Jan 27 02:11:36 2024

   => Loading Basis Set <=

    Name: JUN-CC-PVDZ
    Role: ORBITAL
    Keyword: BASIS
    atoms 1-2, 4-5, 10, 17-34, 41-53, 56-70, 73-89, 92-104, 109-119, 122-130 entry C          line   164 file /opt/software/pc2/EB-SW/software/PSI4/1.9-foss-2022a/share/psi4/basis/jun-cc-pvdz.gbs 
    atoms 3, 6                                                               entry N          line   198 file /opt/software/pc2/EB-SW/software/PSI4/1.9-foss-2022a/share/psi4/basis/jun-cc-pvdz.gbs 
    atoms 7-9, 11-16, 35-40, 54-55, 71-72, 90-91, 105-108, 120-121, 131-136  entry H          line    36 file /opt/software/pc2/EB-SW/software/PSI4/1.9-foss-2022a/share/psi4/basis/jun-cc-pvdz.gbs 


         ---------------------------------------------------------
                                   SCF
               by Justin Turney, Rob Parrish, Andy Simmonett
                          and Daniel G. A. Smith
                              RHF Reference
                       16 Threads,  61035 MiB Core
         ---------------------------------------------------------

  ==> Geometry <==

    Molecular point group: c1
    Full point group: C1

    Geometry (in Angstrom), charge = 1, multiplicity = 1:

       Center              X                  Y                   Z               Mass       
    ------------   -----------------  -----------------  -----------------  -----------------
         C            0.680062820275    -0.008027535675    -7.866990393580    12.000000000000
         C           -0.680508179725    -0.005999535675    -7.866606393580    12.000000000000
         N           -1.085639179725    -0.005001535675    -6.548282393580    14.003074004430
         C            0.000103820275    -0.001725535675    -5.766881393580    12.000000000000
[...]
    1579A      2.162480  1580A      2.163393  1581A      2.171271  
    1582A      2.171637  1583A      2.179372  1584A      2.180596  
    1585A      2.181183  1586A      2.182409  1587A      2.185162  
    1588A      2.188429  1589A      2.189070  1590A      2.191014  
    1591A      2.191516  1592A      2.192965  1593A      2.193462  
    1594A      2.195172  1595A      2.197123  1596A      2.198049  
    1597A      2.200223  1598A      2.200575  1599A      2.200801  
    1600A      2.201327  1601A      2.203890  1602A      2.204331  
    1603A      2.205544  1604A      2.206806  1605A      2.209624  
    1606A      2.213778  1607A      2.214178  1608A      2.219390  
    1609A      2.220167  1610A      2.222419  1611A      2.222772  
    1612A      2.224431  1613A      2.224776  1614A      2.224889  
    1615A      2.228817  1616A      2.232066  1617A      2.232326  
    1618A      2.233511  1619A      2.238791  1620A      2.238991  
    1621A      2.239722  1622A      2.241358  1623A      2.247336  
    1624A      2.247505  1625A      2.248293  1626A      2.249042  
    1627A      2.249158  1628A      2.260472  1629A      2.261614  
    1630A      2.263424  1631A      2.264976  1632A      2.266584  
    1633A      2.269541  1634A      2.273143  1635A      2.275378  
    1636A      2.282846  1637A      2.283408  1638A      2.284268  
    1639A      2.290379  1640A      2.291007  1641A      2.296301  
    1642A      2.296837  1643A      2.303796  1644A      2.304138  
    1645A      2.305626  1646A      2.309112  1647A      2.315355  
    1648A      2.324625  1649A      2.324934  1650A      2.325218  
    1651A      2.327099  1652A      2.327386  1653A      2.329439  
    1654A      2.330597  1655A      2.331123  1656A      2.333002  
    1657A      2.334346  1658A      2.335304  1659A      2.339842  
    1660A      2.341378  1661A      2.342167  1662A      2.342313  
    1663A      2.344900  1664A      2.345807  1665A      2.346339  
    1666A      2.349070  1667A      2.349412  1668A      2.351050  
    1669A      2.353813  1670A      2.368216  1671A      2.372671  
    1672A      2.373197  1673A      2.383661  1674A      2.388033  
    1675A      2.390453  1676A      2.391820  1677A      2.393096  
    1678A      2.394785  1679A      2.397014  1680A      2.418322  
    1681A      2.419578  1682A      2.423651  1683A      2.427517  
    1684A      2.431982  1685A      2.441371  1686A      2.443617  
    1687A      2.451052  1688A      2.451741  1689A      2.453078  
    1690A      2.455172  1691A      2.462757  1692A      2.464370  
    1693A      2.464442  1694A      2.467757  1695A      2.468034  
    1696A      2.471919  1697A      2.472173  1698A      2.474224  
    1699A      2.480749  1700A      2.490992  1701A      2.491483  
    1702A      2.494954  1703A      2.501836  1704A      2.506569  
    1705A      2.507352  1706A      2.511511  1707A      2.516159  
    1708A      2.519250  1709A      2.539094  1710A      2.539233  
    1711A      2.540286  1712A      2.542038  1713A      2.542846  
    1714A      2.545237  1715A      2.547767  1716A      2.548645  
    1717A      2.549189  1718A      2.551456  1719A      2.556538  
    1720A      2.556695  1721A      2.564236  1722A      2.571154  
    1723A      2.571772  1724A      2.579965  1725A      2.582816  
    1726A      2.583745  1727A      2.584273  1728A      2.585250  
    1729A      2.586295  1730A      2.588549  1731A      2.588860  
    1732A      2.593207  1733A      2.593530  1734A      2.601339  
    1735A      2.601459  1736A      2.612813  1737A      2.613014  
    1738A      2.613193  1739A      2.613831  1740A      2.617466  
    1741A      2.617645  1742A      2.632884  1743A      2.638859  
    1744A      2.640551  1745A      2.641591  1746A      2.643632  
    1747A      2.645458  1748A      2.647407  1749A      2.648609  
    1750A      2.649142  1751A      2.651970  1752A      2.652849  
    1753A      2.655127  1754A      2.656026  1755A      2.656430  
    1756A      2.664020  1757A      2.666035  1758A      2.666294  
    1759A      2.667632  1760A      2.670396  1761A      2.670585  
    1762A      2.673598  1763A      2.677057  1764A      2.677652  
    1765A      2.679167  1766A      2.684551  1767A      2.686019  
    1768A      2.687175  1769A      2.691216  1770A      2.691359  
    1771A      2.691634  1772A      2.692430  1773A      2.696064  
    1774A      2.697315  1775A      2.704210  1776A      2.720738  
    1777A      2.730712  1778A      2.730756  1779A      2.731171  
    1780A      2.731579  1781A      2.731996  1782A      2.742385  
    1783A      2.751456  1784A      2.752816  1785A      2.760363  
    1786A      2.761000  1787A      2.770096  1788A      2.773236  
    1789A      2.775854  1790A      2.779512  1791A      2.780887  
    1792A      2.799166  1793A      2.799858  1794A      2.801684  
    1795A      2.802186  1796A      2.802233  1797A      2.810166  
    1798A      2.811734  1799A      2.814347  1800A      2.815438  
    1801A      2.815937  1802A      2.816187  1803A      2.816708  
    1804A      2.828138  1805A      2.828359  1806A      2.839797  
    1807A      2.840227  1808A      2.841644  1809A      2.842054  
    1810A      2.843927  1811A      2.845998  1812A      2.862722  
    1813A      2.865234  1814A      2.865456  1815A      2.870301  
    1816A      2.871713  1817A      2.874807  1818A      2.882770  
    1819A      2.894993  1820A      2.895915  1821A      2.896799  
    1822A      2.913326  1823A      2.916079  1824A      2.917730  
    1825A      2.918452  1826A      2.926900  1827A      2.927422  
    1828A      2.929725  1829A      2.934986  1830A      2.935193  
    1831A      2.954593  1832A      2.963401  1833A      2.964863  
    1834A      2.965277  1835A      2.976009  1836A      2.977921  
    1837A      2.992060  1838A      2.992939  1839A      3.006009  
    1840A      3.018600  1841A      3.029234  1842A      3.030136  
    1843A      3.035418  1844A      3.038765  1845A      3.045508  
    1846A      3.047011  1847A      3.047585  1848A      3.048071  
    1849A      3.057569  1850A      3.057715  1851A      3.063561  
    1852A      3.072894  1853A      3.108572  1854A      3.112908  
    1855A      3.113181  1856A      3.122655  1857A      3.127104  
    1858A      3.127852  1859A      3.132467  1860A      3.134506  
    1861A      3.142057  1862A      3.142982  1863A      3.144720  
    1864A      3.148580  1865A      3.149165  1866A      3.149514  
    1867A      3.150153  1868A      3.153613  1869A      3.162252  
    1870A      3.167819  1871A      3.173188  1872A      3.175061  
    1873A      3.175284  1874A      3.193076  1875A      3.193886  
    1876A      3.220106  1877A      3.252823  1878A      3.259513  
    1879A      3.260966  1880A      3.261575  1881A      3.262117  
    1882A      3.264475  1883A      3.268246  1884A      3.271218  
    1885A      3.274879  1886A      3.275493  1887A      3.287892  
    1888A      3.293229  1889A      3.295806  1890A      3.297531  
    1891A      3.302679  1892A      3.312753  1893A      3.324639  
    1894A      3.361286  1895A      3.362280  1896A      3.369970  
    1897A      3.411463  1898A      3.416648  1899A      3.429969  
    1900A      3.432182  1901A      3.436892  1902A      3.446105  
    1903A      3.450319  1904A      3.461473  1905A      3.464539  
    1906A      3.465334  1907A      3.470985  1908A      3.474054  
    1909A      3.481321  1910A      3.486391  1911A      3.493672  
    1912A      3.509121  1913A      3.525720  1914A      3.539532  
    1915A      3.572847  1916A      3.574933  1917A      3.576052  
    1918A      3.583577  1919A      3.590154  1920A      3.639636  
    1921A      3.641199  1922A      3.646077  1923A      3.664761  
    1924A      3.666897  1925A      3.705103  1926A      3.747869  
    1927A      3.749249  1928A      3.750548  1929A      3.758471  
    1930A      3.763396  1931A      3.778715  1932A      3.780114  
    1933A      3.817095  1934A      3.842003  1935A      3.843387  
    1936A      3.869107  1937A      3.871461  1938A      3.874609  
    1939A      3.904601  1940A      3.913010  1941A      3.937944  
    1942A      3.940034  1943A      3.948215  1944A      3.949194  
    1945A      3.958444  1946A      3.963003  1947A      3.965960  
    1948A      3.971333  1949A      4.024646  1950A      4.027439  
    1951A      4.071096  1952A      4.207571  1953A      4.211220  
    1954A      4.229291  1955A      4.301998  1956A      4.353003  
    1957A      4.362913  1958A      4.393388  1959A      4.489531  
    1960A      4.740793  1961A      4.779524  1962A      4.832477  
    1963A      4.847833  1964A      4.937557  1965A      5.053152  
    1966A      5.058671  1967A      5.067816  1968A      5.112287  
    1969A      5.138661  1970A      5.393705  1971A      5.423685  
    1972A      5.734122  1973A      5.759259  1974A      6.068424  
    1975A     18.199373  1976A     18.456510  1977A     18.473579  
    1978A     18.561129  1979A     18.832528  1980A     25.340043  
    1981A     25.376050  

    Final Occupation by Irrep:
              A 
    DOCC [   300 ]
    NA   [   300 ]
    NB   [   300 ]

  @DF-RHF Final Energy: -3650.33791301030442

   => Energetics <=

    Nuclear Repulsion Energy =          15611.4211649754306563
    One-Electron Energy =              -36072.0856132102271658
    Two-Electron Energy =               16810.3265352244925452
    Total Energy =                      -3650.3379130103057832

Computation Completed


Properties will be evaluated at   0.000000,   0.000000,   0.000000 [a0]

Properties computed using the SCF density matrix


 Multipole Moments:

 ------------------------------------------------------------------------------------
     Multipole            Electronic (a.u.)      Nuclear  (a.u.)        Total (a.u.)
 ------------------------------------------------------------------------------------

 L = 1.  Multiply by 2.5417464519 to convert [e a0] to [Debye]
 Dipole X            :         -0.0009263            0.0002112           -0.0007151
 Dipole Y            :          0.0011398           -0.0013774           -0.0002376
 Dipole Z            :       -622.4039917          622.4095674            0.0055757
 Magnitude           :                                                    0.0056264

 ------------------------------------------------------------------------------------

*** tstop() called on n2cn0313 at Sat Jan 27 04:06:08 2024
Module time:
	user time   =   19381.91 seconds =     323.03 minutes
	system time =    1430.54 seconds =      23.84 minutes
	total time  =       4629 seconds =      77.15 minutes
Total time:
	user time   =   51338.06 seconds =     855.63 minutes
	system time =    3653.67 seconds =      60.89 minutes
	total time  =      13966 seconds =     232.77 minutes
  Constructing Basis Sets for SAPT...

   => Loading Basis Set <=

    Name: (JUN-CC-PVDZ AUX)
    Role: RIFIT
    Keyword: DF_BASIS_SAPT
    atoms 1-2, 4-5, 10, 17-34, 41-53, 56-70, 73-89, 92-104, 109-119, 122-130 entry C          line   100 file /opt/software/pc2/EB-SW/software/PSI4/1.9-foss-2022a/share/psi4/basis/jun-cc-pvdz-ri.gbs 
    atoms 3, 6                                                               entry N          line   144 file /opt/software/pc2/EB-SW/software/PSI4/1.9-foss-2022a/share/psi4/basis/jun-cc-pvdz-ri.gbs 
    atoms 7-9, 11-16, 35-40, 54-55, 71-72, 90-91, 105-108, 120-121, 131-136  entry H          line    30 file /opt/software/pc2/EB-SW/software/PSI4/1.9-foss-2022a/share/psi4/basis/jun-cc-pvdz-ri.gbs 

   => Loading Basis Set <=

    Name: (JUN-CC-PVDZ AUX)
    Role: JKFIT
    Keyword: DF_BASIS_ELST
    atoms 1-2, 4-5, 10, 17-34, 41-53, 56-70, 73-89, 92-104, 109-119, 122-130 entry C          line   146 file /opt/software/pc2/EB-SW/software/PSI4/1.9-foss-2022a/share/psi4/basis/jun-cc-pvdz-jkfit.gbs 
    atoms 3, 6                                                               entry N          line   202 file /opt/software/pc2/EB-SW/software/PSI4/1.9-foss-2022a/share/psi4/basis/jun-cc-pvdz-jkfit.gbs 
    atoms 7-9, 11-16, 35-40, 54-55, 71-72, 90-91, 105-108, 120-121, 131-136  entry H          line    70 file /opt/software/pc2/EB-SW/software/PSI4/1.9-foss-2022a/share/psi4/basis/jun-cc-pvdz-jkfit.gbs 


  //>>>>>>>>>>>>>>>>>>>>>>>>>>>>>>>>>>>//
  //               SSAPT0              //
  //<<<<<<<<<<<<<<<<<<<<<<<<<<<<<<<<<<<//


*** tstart() called on n2cn0313
*** at Sat Jan 27 04:06:09 2024

        SAPT0  
    Ed Hohenstein
     6 June 2009

      Orbital Information
  --------------------------
    NSO        =      2019
    NMO        =      1981
    NRI        =      7157
    NRI (Elst) =      8896
    NOCC A     =        26
    NOCC B     =       300
    FOCC A     =         7
    FOCC B     =        96
    NVIR A     =      1955
    NVIR B     =      1681

    Elst10,r            =    -0.008397093870 [Eh]
    Exch10              =     0.000000079189 [Eh]
    Exch10 (S^2)        =     0.000000079189 [Eh]

    Iter     Energy [mEh]          dE [mEh]         Residual      Time [s]
       1      -0.01501816       0.015018162       1.159619459           850
       2      -0.01419084      -0.000827317       0.296977571          1482
       3      -0.01557795       0.001387107       0.079570484          1957
       4      -0.01565737       0.000079422       0.035789629          2561
       5      -0.01559415      -0.000063227       0.010724744          3366
       6      -0.01559548       0.000001337       0.003706952          3834
       7      -0.01560064       0.000005153       0.001027378          4464
       8      -0.01560095       0.000000310       0.000341077          5071
       9      -0.01560070      -0.000000243       0.000105084          5735
      10      -0.01560064      -0.000000063       0.000031722          6287
      11      -0.01560065       0.000000007       0.000008343          7074
      12      -0.01560066       0.000000007       0.000002368          7780
      13      -0.01560066      -0.000000000       0.000000895          8328

    CHF Iterations converged


    Iter     Energy [mEh]          dE [mEh]         Residual      Time [s]
       1      -5.10601031       5.106010311      39.246982799           388
       2      -3.28151275      -1.824497558       4.605631037           714
       3      -3.26597038      -0.015542368       1.549414624          1024
       4      -3.32497615       0.059005766       0.484406370          1397
       5      -3.33276134       0.007785191       0.168603561          1712
       6      -3.33202693      -0.000734412       0.112511636          2102
       7      -3.33028257      -0.001744365       0.049363580          2494
       8      -3.33043359       0.000151020       0.026981955          3029
       9      -3.33083979       0.000406204       0.015883708          3702
      10      -3.33074298      -0.000096807       0.013044869          4320
      11      -3.33066700      -0.000075977       0.005890782          5070
      12      -3.33066737       0.000000363       0.003149497          5660
      13      -3.33068710       0.000019729       0.001605169          6393
      14      -3.33069298       0.000005884       0.001025713          6953
      15      -3.33068822      -0.000004763       0.000647799          7481
      16      -3.33068444      -0.000003777       0.000219591          8023
      17      -3.33068632       0.000001874       0.000071992          8654
      18      -3.33068661       0.000000297       0.000023756          9326
      19      -3.33068650      -0.000000109       0.000012836          9935
      20      -3.33068643      -0.000000076       0.000005070         10434
      21      -3.33068644       0.000000014       0.000002326         11208
      22      -3.33068645       0.000000012       0.000001154         12358
      23      -3.33068645      -0.000000001       0.000000499         13235

    CHF Iterations converged

    Ind20,r (A<-B)      =    -0.000015600656 [Eh]
    Ind20,r (B<-A)      =    -0.003330686453 [Eh]
    Ind20,r             =    -0.003346287109 [Eh]
    Exch-Ind20,r (A<-B) =     0.000000048327 [Eh]
    Exch-Ind20,r (B<-A) =     0.000000654845 [Eh]
    Exch-Ind20,r        =     0.000000703173 [Eh]
    Disp20              =    -0.001632041788 [Eh]
    Disp20 (SS)         =    -0.000816020894 [Eh]
    Disp20 (OS)         =    -0.000816020894 [Eh]
    Exch-Disp20         =     0.000000221978 [Eh]
    Exch-Disp20 (SS)    =     0.000000169173 [Eh]
    Exch-Disp20 (OS)    =     0.000000052805 [Eh]

    SAPT Results 
  --------------------------------------------------------------------------------------------------------
    Electrostatics                 -8.39709387 [mEh]      -5.26925596 [kcal/mol]     -22.04656692 [kJ/mol]
      Elst10,r                     -8.39709387 [mEh]      -5.26925596 [kcal/mol]     -22.04656692 [kJ/mol]

    Exchange                        0.00007919 [mEh]       0.00004969 [kcal/mol]       0.00020791 [kJ/mol]
      Exch10                        0.00007919 [mEh]       0.00004969 [kcal/mol]       0.00020791 [kJ/mol]
      Exch10(S^2)                   0.00007919 [mEh]       0.00004969 [kcal/mol]       0.00020791 [kJ/mol]

    Induction                      -3.40983669 [mEh]      -2.13970483 [kcal/mol]      -8.95252501 [kJ/mol]
      Ind20,r                      -3.34628711 [mEh]      -2.09982686 [kcal/mol]      -8.78567560 [kJ/mol]
      Exch-Ind20,r                  0.00070317 [mEh]       0.00044125 [kcal/mol]       0.00184618 [kJ/mol]
      delta HF,r (2)               -0.06425276 [mEh]      -0.04031921 [kcal/mol]      -0.16869559 [kJ/mol]

    Dispersion                     -1.63181981 [mEh]      -1.02398239 [kcal/mol]      -4.28434232 [kJ/mol]
      Disp20                       -1.63204179 [mEh]      -1.02412168 [kcal/mol]      -4.28492513 [kJ/mol]
      Exch-Disp20                   0.00022198 [mEh]       0.00013929 [kcal/mol]       0.00058280 [kJ/mol]
      Disp20 (SS)                  -0.81602089 [mEh]      -0.51206084 [kcal/mol]      -2.14246256 [kJ/mol]
      Disp20 (OS)                  -0.81602089 [mEh]      -0.51206084 [kcal/mol]      -2.14246256 [kJ/mol]
      Exch-Disp20 (SS)              0.00016917 [mEh]       0.00010616 [kcal/mol]       0.00044416 [kJ/mol]
      Exch-Disp20 (OS)              0.00005280 [mEh]       0.00003314 [kcal/mol]       0.00013864 [kJ/mol]

  Total HF                        -11.80685137 [mEh]      -7.40891109 [kcal/mol]     -30.99888401 [kJ/mol]
  Total SAPT0                     -13.43867119 [mEh]      -8.43289348 [kcal/mol]     -35.28322634 [kJ/mol]

  Special recipe for scaled SAPT0 (see Manual):
    Electrostatics sSAPT0          -8.39709387 [mEh]      -5.26925596 [kcal/mol]     -22.04656692 [kJ/mol]
    Exchange sSAPT0                 0.00007919 [mEh]       0.00004969 [kcal/mol]       0.00020791 [kJ/mol]
    Induction sSAPT0               -3.40983669 [mEh]      -2.13970483 [kcal/mol]      -8.95252501 [kJ/mol]
    Dispersion sSAPT0              -1.63181981 [mEh]      -1.02398239 [kcal/mol]      -4.28434232 [kJ/mol]
  Total sSAPT0                    -13.43867119 [mEh]      -8.43289348 [kcal/mol]     -35.28322634 [kJ/mol]
  --------------------------------------------------------------------------------------------------------

*** tstop() called on n2cn0313 at Sun Jan 28 00:25:08 2024
Module time:
	user time   =   73207.43 seconds =    1220.12 minutes
	system time =    3679.09 seconds =      61.32 minutes
	total time  =      73139 seconds =    1218.98 minutes
Total time:
	user time   =  124547.01 seconds =    2075.78 minutes
	system time =    7332.76 seconds =     122.21 minutes
	total time  =      87106 seconds =    1451.77 minutes

    Psi4 stopped on: Sunday, 28 January 2024 12:25AM
    Psi4 wall time for execution: 1 day, 0:11:49.43

*** Psi4 exiting successfully. Buy a developer a beer!
