
    -----------------------------------------------------------------------
          Psi4: An Open-Source Ab Initio Electronic Structure Package
                               Psi4 1.9 release

                         Git: Rev {} zzzzzzz 


    D. G. A. Smith, L. A. Burns, A. C. Simmonett, R. M. Parrish,
    M. C. Schieber, R. Galvelis, P. Kraus, H. Kruse, R. Di Remigio,
    A. Alenaizan, A. M. James, S. Lehtola, J. P. Misiewicz, M. Scheurer,
    R. A. Shaw, J. B. Schriber, Y. Xie, Z. L. Glick, D. A. Sirianni,
    J. S. O'Brien, J. M. Waldrop, A. Kumar, E. G. Hohenstein,
    B. P. Pritchard, B. R. Brooks, H. F. Schaefer III, A. Yu. Sokolov,
    K. Patkowski, A. E. DePrince III, U. Bozkaya, R. A. King,
    F. A. Evangelista, J. M. Turney, T. D. Crawford, C. D. Sherrill,
    J. Chem. Phys. 152(18) 184108 (2020). https://doi.org/10.1063/5.0006002

                            Additional Code Authors
    E. T. Seidl, C. L. Janssen, E. F. Valeev, M. L. Leininger,
    J. F. Gonthier, R. M. Richard, H. R. McAlexander, M. Saitow, X. Wang,
    P. Verma, M. H. Lechner, A. Jiang, S. Behnle, A. G. Heide,
    M. F. Herbst, and D. L. Poole

             Previous Authors, Complete List of Code Contributors,
                       and Citations for Specific Modules
    https://github.com/psi4/psi4/blob/master/codemeta.json
    https://github.com/psi4/psi4/graphs/contributors
    http://psicode.org/psi4manual/master/introduction.html#citing-psifour

    -----------------------------------------------------------------------


    Psi4 started on: Monday, 22 January 2024 11:42AM

    Process ID: 877532
    Host:       d-16-13-4
    PSIDATADIR: /home/gridsan/tfroembgen/.conda/envs/psi4test/share/psi4
    Memory:     500.0 MiB
    Threads:    12
    
  ==> Input File <==

--------------------------------------------------------------------------
memory 32 GB # how much memory is available ! Depends on the nodes/cores !

molecule dimer {
# monomer A
-1 1    # Charge and multiplicity
B -0.000046  0.000337 3.399994
F -1.153597  0.000048 4.215641
F  1.153661 -0.000581 4.215641
F -0.000019 -1.153637 2.584360
F -0.000019  1.153978 2.584360
--
# monomer B
0 1     # Charge and multiplicity
C   1.22531237526482      0.70753866091955      0.00613762728373
C   1.22532433589282     -0.70753852257020     -0.00619318228664
C   -0.00000567409046      1.41496628609039     -0.00672680580738
C   2.45644923379077      1.41832825917820      0.00902448468363
C   0.00001130712078     -1.41497612663474      0.00347275151708
C   -1.22530046906674      0.70754574598412      0.00838914760619
C   2.45643823516184     -1.41832293188077     -0.00843833914343
C   -0.00000085313587      2.83680140328112     -0.00913035594137
C   3.68182717731192      0.70931832800114     -0.00808954934571
C   2.45512052870677      2.83422403348893     -0.00819210630633
C   3.68182158506039     -0.70933346742900      0.00798293467272
C   -1.22531311884624     -0.70752714354401     -0.00512042085974
C   1.22670006104402      3.54346985599427      0.00816696660346
C   0.00000526469929     -2.83678176723568      0.00832091913869
C   -2.45643555300670      1.41831729028492      0.00842454345199
C   2.45512389762097     -2.83422965658853      0.00783102630520
C   -1.22671388474763      3.54346943575023      0.00827029982280
C   4.91451777504333      1.42717324448953     -0.00160886631602
C   3.69315067131765      3.54279566454522     -0.00155906667985
C   -2.45643712022637     -1.41831290883911     -0.00846337726810
C   1.22670532178455     -3.54347386990643     -0.00780316414624
C   -2.45512491866593      2.83421703463423     -0.00818572995999
C   4.91452486062398     -1.42718653794377      0.00136387641845
C   1.22142509354026      4.97013443726031      0.00150231067809
C   4.89300870916237      2.82518837202648     -0.00039219795739
C   -1.22669652864725     -3.54347062507680     -0.00753595973677
C   -3.68181849668397      0.70932533873199     -0.00807686886569
C   3.69314758099218     -3.54280096939050      0.00148176697923
C   -1.22143177215231      4.97012866986289      0.00168580605083
C   6.13477145276790      0.68054831910577     -0.00083909176631
C   3.65678936045204      4.97295361556775     -0.00065042889723
C   -2.45512642789169     -2.83421472106065      0.00758666850712
C   -3.68181869921921     -0.70932533146830      0.00810055625144
C   4.89301309775526     -2.82519973363176      0.00021895393805
C   -0.00000059327114      5.65044773803267      0.00045449734393
C   6.13477559217374     -0.68055448207492      0.00042622874941
C   2.47813196269732      5.65357712333155      0.00063835075260
C   1.22142288457925     -4.97012668293268     -0.00129718634452
C   -3.69316190412301      3.54279732619245     -0.00139355922051
C   -1.22142804110313     -4.97011793159564     -0.00140994817719
C   -4.91452132810043      1.42717581899491     -0.00153192130862
C   3.65678749952045     -4.97295485423912      0.00080007163680
C   -2.47813805026426      5.65357479452875      0.00092287576113
C   -3.69314125872231     -3.54278984697859      0.00136564082345
C   -4.91451200321153     -1.42718062802730      0.00139857359209
C   -0.00000552908399     -5.65043791501335      0.00005899322272
C   -4.89302000425900      2.82518897091939     -0.00040227981744
C   2.47812647313991     -5.65357317188818     -0.00029052915548
C   -3.65679823041642      4.97295655404175     -0.00047374852278
C   -4.89299899901461     -2.82519139505969      0.00006491824035
C   -2.47812801824129     -5.65356579800621     -0.00056571680280
C   -6.13477002348955      0.68054913825639     -0.00086464346868
C   -3.65678835334731     -4.97294365097028      0.00058578382008
C   -6.13476456307132     -0.68055354348201      0.00040575295444
H   5.83528897565761      3.36927626695423      0.00396712770529
H   7.07385965258860      1.22821762089947     -0.00037744837300
H   4.60066374401555      5.51238117445323     -0.00014522814529
H   5.83528386714679     -3.36930568472863     -0.00423551337640
H   -0.00001167146422      6.73853104613662     -0.00389474766392
H   7.07386165167227     -1.22822657074368     -0.00008250934481
H   2.47331421164041      6.74068466339473      0.00017162982210
H   4.60066897122302     -5.51237575717576      0.00039007446835
H   -2.47331820069565      6.74068209160650      0.00047297644710
H   -0.00000978838621     -6.73852780445195      0.00458867820736
H   -5.83530143450167      3.36927132229595      0.00410314985360
H   2.47330840367253     -6.74068500242887      0.00027980126949
H   -4.60067436136587      5.51237839860371      0.00002010017831
H   -5.83527902699321     -3.36928859177951     -0.00451481925734
H   -2.47329986759855     -6.74067870613986     -0.00016951527498
H   -7.07385728692578      1.22822084484047     -0.00046143985387
H   -4.60067330624313     -5.51236229778631      0.00021776644566
H   -7.07385645456741     -1.22822025997701     -0.00017736581114

    units angstrom      # Angstroms are the default
    no_reorient         # Geometry fixed, default
    symmetry c1         # C1 symmetry, default
}

set {
    scf_type DF         # Density fitting, faster than exact integrals
    freeze_core True    # Freeze core electrons
    basis jun-cc-pVDZ   # Jun-cc-pVDZ basis set, recommended for sSAPT0 in https://doi.org/10.1063/1.4867135
}

energy('ssapt0')        # Compute sSAPT0 energy, includes also SAPT0
--------------------------------------------------------------------------

  Memory set to  29.802 GiB by Python driver.

Scratch directory: /state/partition1/slurm_tmp/24792916.4294967291.0/
   => Loading Basis Set <=

    Name: JUN-CC-PVDZ
    Role: ORBITAL
    Keyword: BASIS
    atoms 1     entry B          line   130 file /home/gridsan/tfroembgen/.conda/envs/psi4test/share/psi4/basis/jun-cc-pvdz.gbs 
    atoms 2-5   entry F          line   266 file /home/gridsan/tfroembgen/.conda/envs/psi4test/share/psi4/basis/jun-cc-pvdz.gbs 
    atoms 6-59  entry C          line   164 file /home/gridsan/tfroembgen/.conda/envs/psi4test/share/psi4/basis/jun-cc-pvdz.gbs 
    atoms 60-77 entry H          line    36 file /home/gridsan/tfroembgen/.conda/envs/psi4test/share/psi4/basis/jun-cc-pvdz.gbs 

   => Loading Basis Set <=

    Name: JUN-CC-PVDZ
    Role: ORBITAL
    Keyword: BASIS
    atoms 1     entry B          line   130 file /home/gridsan/tfroembgen/.conda/envs/psi4test/share/psi4/basis/jun-cc-pvdz.gbs 
    atoms 2-5   entry F          line   266 file /home/gridsan/tfroembgen/.conda/envs/psi4test/share/psi4/basis/jun-cc-pvdz.gbs 
    atoms 6-59  entry C          line   164 file /home/gridsan/tfroembgen/.conda/envs/psi4test/share/psi4/basis/jun-cc-pvdz.gbs 
    atoms 60-77 entry H          line    36 file /home/gridsan/tfroembgen/.conda/envs/psi4test/share/psi4/basis/jun-cc-pvdz.gbs 


  //>>>>>>>>>>>>>>>>>>>>>>>>>>>>>>>>>>>//
  //              Dimer HF             //
  //<<<<<<<<<<<<<<<<<<<<<<<<<<<<<<<<<<<//

   => Libint2 <=

    Primary   basis highest AM E, G, H:  7, 7, 4
    Auxiliary basis highest AM E, G, H:  7, 7, 5
    Onebody   basis highest AM E, G, H:  7, 7, 5
    Solid Harmonics ordering:            gaussian

*** tstart() called on d-16-13-4
*** at Mon Jan 22 11:42:31 2024

   => Loading Basis Set <=

    Name: JUN-CC-PVDZ
    Role: ORBITAL
    Keyword: BASIS
    atoms 1     entry B          line   130 file /home/gridsan/tfroembgen/.conda/envs/psi4test/share/psi4/basis/jun-cc-pvdz.gbs 
    atoms 2-5   entry F          line   266 file /home/gridsan/tfroembgen/.conda/envs/psi4test/share/psi4/basis/jun-cc-pvdz.gbs 
    atoms 6-59  entry C          line   164 file /home/gridsan/tfroembgen/.conda/envs/psi4test/share/psi4/basis/jun-cc-pvdz.gbs 
    atoms 60-77 entry H          line    36 file /home/gridsan/tfroembgen/.conda/envs/psi4test/share/psi4/basis/jun-cc-pvdz.gbs 


         ---------------------------------------------------------
                                   SCF
               by Justin Turney, Rob Parrish, Andy Simmonett
                          and Daniel G. A. Smith
                              RHF Reference
                       12 Threads,  30517 MiB Core
         ---------------------------------------------------------

  ==> Geometry <==

    Molecular point group: c1
    Full point group: C1

    Geometry (in Angstrom), charge = -1, multiplicity = 1:

       Center              X                  Y                   Z               Mass       
    ------------   -----------------  -----------------  -----------------  -----------------
         B           -0.000046449334     0.000336519434     3.007229395393    11.009305360000
         F           -1.153597449334     0.000047519434     3.822876395393    18.998403162730
         F            1.153660550666    -0.000581480566     3.822876395393    18.998403162730
         F           -0.000019449334    -1.153637480566     2.191595395393    18.998403162730
         F           -0.000019449334     1.153977519434     2.191595395393    18.998403162730
         C            1.225311925931     0.707538180353    -0.386626977323    12.000000000000
         C            1.225323886559    -0.707539003137    -0.398957786894    12.000000000000
         C           -0.000006123424     1.414965805524    -0.399491410414    12.000000000000
         C            2.456448784457     1.418327778612    -0.383740119923    12.000000000000
         C            0.000010857787    -1.414976607201    -0.389291853090    12.000000000000
         C           -1.225300918401     0.707545265418    -0.384375457001    12.000000000000
         C            2.456437785828    -1.418323412447    -0.401202943750    12.000000000000
         C           -0.000001302470     2.836800922715    -0.401894960548    12.000000000000
         C            3.681826727978     0.709317847435    -0.400854153953    12.000000000000
         C            2.455120079373     2.834223552923    -0.400956710913    12.000000000000
         C            3.681821135726    -0.709333947995    -0.384781669934    12.000000000000
         C           -1.225313568180    -0.707527624110    -0.397885025467    12.000000000000
         C            1.226699611710     3.543469375428    -0.384597638003    12.000000000000
         C            0.000004815365    -2.836782247802    -0.384443685468    12.000000000000
         C           -2.456436002341     1.418316809719    -0.384340061155    12.000000000000
         C            2.455123448287    -2.834230137155    -0.384933578302    12.000000000000
         C           -1.226714334082     3.543468955184    -0.384494304784    12.000000000000
         C            4.914517325709     1.427172763923    -0.394373470923    12.000000000000
         C            3.693150221984     3.542795183979    -0.394323671287    12.000000000000
         C           -2.456437569560    -1.418313389406    -0.401227981875    12.000000000000
         C            1.226704872451    -3.543474350473    -0.400567768753    12.000000000000
         C           -2.455125368000     2.834216554068    -0.400950334567    12.000000000000
         C            4.914524411290    -1.427187018510    -0.391400728189    12.000000000000
         C            1.221424644206     4.970133956694    -0.391262293929    12.000000000000
         C            4.893008259828     2.825187891460    -0.393156802564    12.000000000000
         C           -1.226696977981    -3.543471105643    -0.400300564344    12.000000000000
         C           -3.681818946018     0.709324858166    -0.400841473473    12.000000000000
         C            3.693147131658    -3.542801449957    -0.391282837628    12.000000000000
         C           -1.221432221486     4.970128189296    -0.391078798556    12.000000000000
         C            6.134771003434     0.680547838539    -0.393603696373    12.000000000000
         C            3.656788911118     4.972953135001    -0.393415033504    12.000000000000
         C           -2.455126877226    -2.834215201627    -0.385177936100    12.000000000000
         C           -3.681819148553    -0.709325812035    -0.384664048356    12.000000000000
         C            4.893012648421    -2.825200214198    -0.392545650669    12.000000000000
         C           -0.000001042605     5.650447257466    -0.392310107263    12.000000000000
         C            6.134775142840    -0.680554962641    -0.392338375858    12.000000000000
         C            2.478131513363     5.653576642765    -0.392126253854    12.000000000000
         C            1.221422435245    -4.970127163499    -0.394061790951    12.000000000000
         C           -3.693162353457     3.542796845626    -0.394158163827    12.000000000000
         C           -1.221428490437    -4.970118412162    -0.394174552784    12.000000000000
         C           -4.914521777434     1.427175338429    -0.394296525916    12.000000000000
         C            3.656787050187    -4.972955334806    -0.391964532970    12.000000000000
         C           -2.478138499598     5.653574313962    -0.391841728846    12.000000000000
         C           -3.693141708056    -3.542790327545    -0.391398963784    12.000000000000
         C           -4.914512452545    -1.427181108594    -0.391366031015    12.000000000000
         C           -0.000005978418    -5.650438395580    -0.392705611384    12.000000000000
         C           -4.893020453593     2.825188490353    -0.393166884424    12.000000000000
         C            2.478126023806    -5.653573652455    -0.393055133762    12.000000000000
         C           -3.656798679750     4.972956073475    -0.393238353130    12.000000000000
         C           -4.892999448349    -2.825191875626    -0.392699686367    12.000000000000
         C           -2.478128467575    -5.653566278573    -0.393330321410    12.000000000000
         C           -6.134770472823     0.680548657690    -0.393629248076    12.000000000000
         C           -3.656788802681    -4.972944131537    -0.392178820787    12.000000000000
         C           -6.134765012405    -0.680554024048    -0.392358851653    12.000000000000
         H            5.835288526324     3.369275786388    -0.388797476902     1.007825032230
         H            7.073859203255     1.228217140333    -0.393142052980     1.007825032230
         H            4.600663294682     5.512380693887    -0.392909832752     1.007825032230
         H            5.835283417813    -3.369306165295    -0.397000117983     1.007825032230
         H           -0.000012120798     6.738530565570    -0.396659352271     1.007825032230
         H            7.073861202338    -1.228227051310    -0.392847113952     1.007825032230
         H            2.473313762307     6.740684182828    -0.392592974785     1.007825032230
         H            4.600668521889    -5.512376237742    -0.392374530139     1.007825032230
         H           -2.473318650030     6.740681611040    -0.392291628160     1.007825032230
         H           -0.000010237720    -6.738528285018    -0.388175926400     1.007825032230
         H           -5.835301883836     3.369270841730    -0.388661454753     1.007825032230
         H            2.473307954339    -6.740685482995    -0.392484803337     1.007825032230
         H           -4.600674810700     5.512377918037    -0.392744504429     1.007825032230
         H           -5.835279476327    -3.369289072346    -0.397279423864     1.007825032230
         H           -2.473300316932    -6.740679186706    -0.392934119882     1.007825032230
         H           -7.073857736260     1.228220364274    -0.393226044461     1.007825032230
         H           -4.600673755577    -5.512362778353    -0.392546838161     1.007825032230
         H           -7.073856903901    -1.228220740543    -0.392941970418     1.007825032230

  Running in c1 symmetry.

  Rotational constants: A =      0.00196  B =      0.00196  C =      0.00110 [cm^-1]
  Rotational constants: A =     58.82258  B =     58.81432  C =     33.02250 [MHz]
  Nuclear repulsion = 7972.959725775777770

  Charge       = -1
  Multiplicity = 1
  Electrons    = 384
  Nalpha       = 192
  Nbeta        = 192

  ==> Algorithm <==

  SCF Algorithm Type is DF.
  DIIS enabled.
  MOM disabled.
  Fractional occupation disabled.
  Guess Type is SAD.
  Energy threshold   = 1.00e-08
  Density threshold  = 1.00e-08
  Integral threshold = 1.00e-12

  ==> Primary Basis <==

  Basis Set: JUN-CC-PVDZ
    Blend: JUN-CC-PVDZ
    Number of shells: 526
    Number of basis functions: 1152
    Number of Cartesian functions: 1211
    Spherical Harmonics?: true
    Max angular momentum: 2

   => Loading Basis Set <=

    Name: (JUN-CC-PVDZ AUX)
    Role: JKFIT
    Keyword: DF_BASIS_SCF
    atoms 1     entry B          line    90 file /home/gridsan/tfroembgen/.conda/envs/psi4test/share/psi4/basis/jun-cc-pvdz-jkfit.gbs 
    atoms 2-5   entry F          line   314 file /home/gridsan/tfroembgen/.conda/envs/psi4test/share/psi4/basis/jun-cc-pvdz-jkfit.gbs 
    atoms 6-59  entry C          line   146 file /home/gridsan/tfroembgen/.conda/envs/psi4test/share/psi4/basis/jun-cc-pvdz-jkfit.gbs 
    atoms 60-77 entry H          line    70 file /home/gridsan/tfroembgen/.conda/envs/psi4test/share/psi4/basis/jun-cc-pvdz-jkfit.gbs 

  ==> Integral Setup <==

  ==> DiskDFJK: Density-Fitted J/K Matrices <==

    J tasked:                  Yes
    K tasked:                  Yes
    wK tasked:                  No
    OpenMP threads:             12
    Integrals threads:          12
    Memory [MiB]:            22888
    Algorithm:                Core
    Integral Cache:           SAVE
    Schwarz Cutoff:          1E-12
    Fitting Condition:       1E-10

   => Auxiliary Basis Set <=

  Basis Set: (JUN-CC-PVDZ AUX)
    Blend: JUN-CC-PVDZ-JKFIT
    Number of shells: 1755
    Number of basis functions: 5075
    Number of Cartesian functions: 5819
    Spherical Harmonics?: true
    Max angular momentum: 3

  Minimum eigenvalue in the overlap matrix is 4.4748609967E-10.
  Reciprocal condition number of the overlap matrix is 1.8813778635E-11.
    Using canonical orthogonalization.
  Overall, 14 of 1152 possible MOs eliminated.


  ==> Pre-Iterations <==

  SCF Guess: Superposition of Atomic Densities via on-the-fly atomic UHF (no occupation information).

   -------------------------
    Irrep   Nso     Nmo    
   -------------------------
     A       1152    1138 
   -------------------------
    Total    1152    1138
   -------------------------

  ==> Iterations <==

                           Total Energy        Delta E     RMS |[F,P]|

   @DF-RHF iter SAD: -2483.52124510712520   -2.48352e+03   0.00000e+00 
   @DF-RHF iter   1: -2477.58313098263443    5.93811e+00   1.10899e-03 ADIIS/DIIS
   @DF-RHF iter   2: -2478.48245005009721   -8.99319e-01   4.98693e-04 ADIIS/DIIS
   @DF-RHF iter   3: -2478.63185216831516   -1.49402e-01   1.54213e-04 ADIIS/DIIS
   @DF-RHF iter   4: -2478.64841612827058   -1.65640e-02   7.46188e-05 DIIS
   @DF-RHF iter   5: -2478.65297896488937   -4.56284e-03   1.80100e-05 DIIS
   @DF-RHF iter   6: -2478.65331526571663   -3.36301e-04   5.42271e-06 DIIS
   @DF-RHF iter   7: -2478.65339923044439   -8.39647e-05   2.71688e-06 DIIS
   @DF-RHF iter   8: -2478.65342301649389   -2.37860e-05   1.22485e-06 DIIS
   @DF-RHF iter   9: -2478.65343012221183   -7.10572e-06   2.91111e-07 DIIS
   @DF-RHF iter  10: -2478.65343040179459   -2.79583e-07   1.05625e-07 DIIS
   @DF-RHF iter  11: -2478.65343042322183   -2.14272e-08   4.16549e-08 DIIS
   @DF-RHF iter  12: -2478.65343042735776   -4.13593e-09   1.95264e-08 DIIS
   @DF-RHF iter  13: -2478.65343042819177   -8.34007e-10   6.89615e-09 DIIS
  Energy and wave function converged.


  ==> Post-Iterations <==

    Orbital Energies [Eh]
    ---------------------

    Doubly Occupied:                                                      

       1A    -26.093271     2A    -26.093197     3A    -26.083219  
       4A    -26.083181     5A    -11.177385     6A    -11.177384  
       7A    -11.177318     8A    -11.177317     9A    -11.177218  
      10A    -11.177216    11A    -11.177169    12A    -11.177168  
      13A    -11.177000    14A    -11.176948    15A    -11.176921  
      16A    -11.176868    17A    -11.175596    18A    -11.175596  
      19A    -11.175405    20A    -11.175399    21A    -11.175399  
      22A    -11.175393    23A    -11.174216    24A    -11.174216  
      25A    -11.174029    26A    -11.174026    27A    -11.174022  
      28A    -11.174020    29A    -11.172669    30A    -11.172669  
      31A    -11.172112    32A    -11.172083    33A    -11.171975  
      34A    -11.171913    35A    -11.171684    36A    -11.171626  
      37A    -11.171159    38A    -11.171064    39A    -11.170969  
      40A    -11.170874    41A    -11.170546    42A    -11.170544  
      43A    -11.170518    44A    -11.170517    45A    -11.170428  
      46A    -11.170375    47A    -11.170341    48A    -11.170299  
      49A    -11.170093    50A    -11.170074    51A    -11.169190  
      52A    -11.169125    53A    -11.165081    54A    -11.164734  
      55A    -11.164347    56A    -11.163546    57A    -11.163233  
      58A    -11.162848    59A     -7.560493    60A     -1.434365  
      61A     -1.380682    62A     -1.373533    63A     -1.367233  
      64A     -1.154670    65A     -1.134754    66A     -1.134115  
      67A     -1.106302    68A     -1.106284    69A     -1.092956  
      70A     -1.076333    71A     -1.066214    72A     -1.049551  
      73A     -1.048889    74A     -1.032181    75A     -1.032066  
      76A     -0.997828    77A     -0.997796    78A     -0.993143  
      79A     -0.985364    80A     -0.985350    81A     -0.957119  
      82A     -0.938143    83A     -0.937012    84A     -0.934919  
      85A     -0.934482    86A     -0.932421    87A     -0.903045  
      88A     -0.902885    89A     -0.880118    90A     -0.880048  
      91A     -0.813311    92A     -0.813269    93A     -0.801650  
      94A     -0.799266    95A     -0.799024    96A     -0.797379  
      97A     -0.797355    98A     -0.780526    99A     -0.758827  
     100A     -0.736517   101A     -0.731506   102A     -0.728350  
     103A     -0.728167   104A     -0.714285   105A     -0.714214  
     106A     -0.662047   107A     -0.660966   108A     -0.651512  
     109A     -0.651474   110A     -0.648935   111A     -0.648920  
     112A     -0.633280   113A     -0.626590   114A     -0.617706  
     115A     -0.617542   116A     -0.611321   117A     -0.611165  
     118A     -0.580895   119A     -0.570433   120A     -0.570419  
     121A     -0.569359   122A     -0.566589   123A     -0.558619  
     124A     -0.558496   125A     -0.557691   126A     -0.551158  
     127A     -0.549144   128A     -0.546089   129A     -0.544447  
     130A     -0.544344   131A     -0.529393   132A     -0.518790  
     133A     -0.518604   134A     -0.518505   135A     -0.517836  
     136A     -0.510862   137A     -0.507052   138A     -0.505706  
     139A     -0.505550   140A     -0.491189   141A     -0.489471  
     142A     -0.487501   143A     -0.487460   144A     -0.482918  
     145A     -0.482806   146A     -0.476168   147A     -0.474438  
     148A     -0.474321   149A     -0.473690   150A     -0.470107  
     151A     -0.458341   152A     -0.458288   153A     -0.455162  
     154A     -0.454966   155A     -0.447833   156A     -0.443875  
     157A     -0.440931   158A     -0.440809   159A     -0.432199  
     160A     -0.431292   161A     -0.420621   162A     -0.416443  
     163A     -0.415478   164A     -0.415137   165A     -0.412322  
     166A     -0.406784   167A     -0.405653   168A     -0.403648  
     169A     -0.401729   170A     -0.399252   171A     -0.399235  
     172A     -0.382051   173A     -0.376835   174A     -0.365168  
     175A     -0.364952   176A     -0.359021   177A     -0.358829  
     178A     -0.319523   179A     -0.319325   180A     -0.313908  
     181A     -0.295976   182A     -0.295883   183A     -0.266912  
     184A     -0.248629   185A     -0.246324   186A     -0.241518  
     187A     -0.230572   188A     -0.219409   189A     -0.198700  
     190A     -0.197977   191A     -0.142199   192A     -0.140601  

    Virtual:                                                              

     193A      0.095636   194A      0.096127   195A      0.108419  
     196A      0.108488   197A      0.109764   198A      0.110844  
     199A      0.110906   200A      0.117610   201A      0.121769  
     202A      0.132738   203A      0.132818   204A      0.147420  
     205A      0.147426   206A      0.148640   207A      0.149101  
     208A      0.151083   209A      0.156406   210A      0.156510  
     211A      0.156557   212A      0.157540   213A      0.157751  
     214A      0.161562   215A      0.161751   216A      0.165037  
     217A      0.167306   218A      0.167500   219A      0.167661  
     220A      0.170619   221A      0.178212   222A      0.178252  
     223A      0.179539   224A      0.183024   225A      0.189479  
     226A      0.190267   227A      0.191478   228A      0.191540  
     229A      0.192188   230A      0.192492   231A      0.197234  
     232A      0.199528   233A      0.199883   234A      0.200000  
     235A      0.203800   236A      0.203857   237A      0.207300  
     238A      0.214678   239A      0.214758   240A      0.217138  
     241A      0.218915   242A      0.220421   243A      0.220683  
     244A      0.224112   245A      0.224161   246A      0.228989  
     247A      0.236013   248A      0.240765   249A      0.240915  
     250A      0.245007   251A      0.251935   252A      0.252559  
     253A      0.252630   254A      0.255105   255A      0.255131  
     256A      0.257868   257A      0.262805   258A      0.263328  
     259A      0.265562   260A      0.266015   261A      0.266427  
     262A      0.268724   263A      0.268740   264A      0.272679  
     265A      0.272987   266A      0.273443   267A      0.273964  
     268A      0.275970   269A      0.276128   270A      0.278041  
     271A      0.278919   272A      0.279065   273A      0.279710  
     274A      0.281455   275A      0.282768   276A      0.291224  
     277A      0.292434   278A      0.292700   279A      0.293177  
     280A      0.294159   281A      0.296054   282A      0.297824  
     283A      0.298558   284A      0.303234   285A      0.305344  
     286A      0.306384   287A      0.307300   288A      0.310162  
     289A      0.310547   290A      0.313197   291A      0.313818  
     292A      0.321073   293A      0.321212   294A      0.324419  
     295A      0.324456   296A      0.327135   297A      0.327234  
     298A      0.330731   299A      0.334253   300A      0.334334  
     301A      0.338340   302A      0.342708   303A      0.343268  
     304A      0.344537   305A      0.345158   306A      0.346110  
     307A      0.351978   308A      0.356335   309A      0.357024  
     310A      0.359886   311A      0.362355   312A      0.363037  
     313A      0.364427   314A      0.364684   315A      0.365796  
     316A      0.366839   317A      0.366995   318A      0.370267  
     319A      0.372693   320A      0.373360   321A      0.374897  
     322A      0.379410   323A      0.379924   324A      0.379952  
     325A      0.382366   326A      0.382492   327A      0.384473  
     328A      0.385934   329A      0.386606   330A      0.386625  
     331A      0.390205   332A      0.392300   333A      0.392776  
     334A      0.393981   335A      0.394556   336A      0.400615  
     337A      0.401585   338A      0.401888   339A      0.403285  
     340A      0.406318   341A      0.409272   342A      0.411099  
     343A      0.412841   344A      0.413457   345A      0.414345  
     346A      0.415162   347A      0.421999   348A      0.423723  
     349A      0.424208   350A      0.424615   351A      0.425734  
     352A      0.426124   353A      0.434880   354A      0.439018  
     355A      0.439683   356A      0.444974   357A      0.445206  
     358A      0.446459   359A      0.448571   360A      0.449218  
     361A      0.454898   362A      0.458704   363A      0.459900  
     364A      0.460880   365A      0.462207   366A      0.463234  
     367A      0.464369   368A      0.464443   369A      0.464746  
     370A      0.467353   371A      0.467995   372A      0.471137  
     373A      0.471530   374A      0.473347   375A      0.473977  
     376A      0.474374   377A      0.475781   378A      0.478409  
     379A      0.478617   380A      0.480503   381A      0.481932  
     382A      0.481980   383A      0.485298   384A      0.489050  
     385A      0.492453   386A      0.494020   387A      0.494138  
     388A      0.496446   389A      0.497306   390A      0.499529  
     391A      0.499723   392A      0.500946   393A      0.502317  
     394A      0.505826   395A      0.506010   396A      0.507242  
     397A      0.509926   398A      0.513081   399A      0.513506  
     400A      0.513964   401A      0.514326   402A      0.518358  
     403A      0.518706   404A      0.522493   405A      0.524320  
     406A      0.524653   407A      0.525486   408A      0.528118  
     409A      0.528563   410A      0.529411   411A      0.529550  
     412A      0.532515   413A      0.534485   414A      0.540163  
     415A      0.540432   416A      0.542335   417A      0.543129  
     418A      0.546693   419A      0.548204   420A      0.549424  
     421A      0.551117   422A      0.552507   423A      0.553909  
     424A      0.555339   425A      0.555817   426A      0.558393  
     427A      0.559652   428A      0.563207   429A      0.567397  
     430A      0.567863   431A      0.571666   432A      0.572426  
     433A      0.572713   434A      0.573620   435A      0.575305  
     436A      0.576395   437A      0.582069   438A      0.583706  
     439A      0.584017   440A      0.585005   441A      0.590617  
     442A      0.592097   443A      0.594616   444A      0.599231  
     445A      0.601428   446A      0.604674   447A      0.605009  
     448A      0.607691   449A      0.613552   450A      0.614194  
     451A      0.620491   452A      0.620886   453A      0.621451  
     454A      0.622918   455A      0.623413   456A      0.624849  
     457A      0.627414   458A      0.628779   459A      0.630143  
     460A      0.632474   461A      0.633194   462A      0.634288  
     463A      0.637552   464A      0.639283   465A      0.640014  
     466A      0.645801   467A      0.648782   468A      0.649619  
     469A      0.653572   470A      0.657713   471A      0.661758  
     472A      0.664699   473A      0.667857   474A      0.670634  
     475A      0.676377   476A      0.680571   477A      0.682344  
     478A      0.684247   479A      0.691452   480A      0.698540  
     481A      0.700443   482A      0.706032   483A      0.707525  
     484A      0.709559   485A      0.710176   486A      0.713679  
     487A      0.725264   488A      0.727598   489A      0.732044  
     490A      0.733403   491A      0.737186   492A      0.741622  
     493A      0.746065   494A      0.748290   495A      0.750973  
     496A      0.754914   497A      0.758926   498A      0.759272  
     499A      0.766879   500A      0.790550   501A      0.798758  
     502A      0.801163   503A      0.807060   504A      0.813751  
     505A      0.820342   506A      0.821379   507A      0.825673  
     508A      0.826415   509A      0.829360   510A      0.830814  
     511A      0.832590   512A      0.837274   513A      0.839273  
     514A      0.851087   515A      0.855331   516A      0.870774  
     517A      0.872843   518A      0.873968   519A      0.881411  
     520A      0.892888   521A      0.895258   522A      0.898892  
     523A      0.900417   524A      0.900929   525A      0.901744  
     526A      0.901900   527A      0.904051   528A      0.907610  
     529A      0.908408   530A      0.908754   531A      0.913068  
     532A      0.923117   533A      0.929326   534A      0.933616  
     535A      0.937982   536A      0.938572   537A      0.943965  
     538A      0.945971   539A      0.949152   540A      0.954602  
     541A      0.955265   542A      0.958173   543A      0.966594  
     544A      0.967757   545A      0.972531   546A      0.973114  
     547A      0.978103   548A      0.978234   549A      0.980243  
     550A      0.982289   551A      0.984132   552A      0.984560  
     553A      0.989670   554A      0.990010   555A      0.993701  
     556A      0.994264   557A      0.995949   558A      0.999307  
     559A      0.999439   560A      1.001588   561A      1.003032  
     562A      1.009091   563A      1.013946   564A      1.016482  
     565A      1.017173   566A      1.019013   567A      1.019283  
     568A      1.022684   569A      1.023921   570A      1.024121  
     571A      1.026152   572A      1.029334   573A      1.034273  
     574A      1.037095   575A      1.047042   576A      1.049208  
     577A      1.049580   578A      1.052866   579A      1.055919  
     580A      1.056099   581A      1.061620   582A      1.066456  
     583A      1.070810   584A      1.072224   585A      1.073189  
     586A      1.075064   587A      1.080069   588A      1.080761  
     589A      1.092668   590A      1.093068   591A      1.093375  
     592A      1.097151   593A      1.097481   594A      1.100518  
     595A      1.107354   596A      1.108733   597A      1.109611  
     598A      1.114193   599A      1.116913   600A      1.120041  
     601A      1.121704   602A      1.122026   603A      1.125470  
     604A      1.125787   605A      1.126024   606A      1.130932  
     607A      1.132645   608A      1.135047   609A      1.135642  
     610A      1.135882   611A      1.135982   612A      1.139798  
     613A      1.141330   614A      1.143453   615A      1.151193  
     616A      1.151749   617A      1.152217   618A      1.158629  
     619A      1.161679   620A      1.165182   621A      1.168172  
     622A      1.170973   623A      1.171525   624A      1.172311  
     625A      1.174208   626A      1.175824   627A      1.178281  
     628A      1.178925   629A      1.181912   630A      1.183469  
     631A      1.188652   632A      1.189206   633A      1.192395  
     634A      1.196968   635A      1.198200   636A      1.199671  
     637A      1.201846   638A      1.209346   639A      1.209840  
     640A      1.214295   641A      1.216877   642A      1.218026  
     643A      1.219476   644A      1.222558   645A      1.227053  
     646A      1.230124   647A      1.232601   648A      1.235058  
     649A      1.237073   650A      1.237678   651A      1.239238  
     652A      1.244182   653A      1.245936   654A      1.246737  
     655A      1.259164   656A      1.263976   657A      1.266621  
     658A      1.269828   659A      1.271737   660A      1.272232  
     661A      1.275278   662A      1.278165   663A      1.281880  
     664A      1.283010   665A      1.285724   666A      1.293165  
     667A      1.297170   668A      1.298824   669A      1.302826  
     670A      1.303504   671A      1.304421   672A      1.305446  
     673A      1.305751   674A      1.317361   675A      1.317422  
     676A      1.317907   677A      1.329316   678A      1.336742  
     679A      1.339557   680A      1.341863   681A      1.342170  
     682A      1.345123   683A      1.346195   684A      1.346952  
     685A      1.349371   686A      1.352233   687A      1.356771  
     688A      1.363271   689A      1.375309   690A      1.376731  
     691A      1.378507   692A      1.379772   693A      1.380114  
     694A      1.388054   695A      1.390988   696A      1.392437  
     697A      1.397965   698A      1.400466   699A      1.403980  
     700A      1.405295   701A      1.406881   702A      1.407913  
     703A      1.413168   704A      1.413359   705A      1.419301  
     706A      1.422296   707A      1.431016   708A      1.432955  
     709A      1.436329   710A      1.437495   711A      1.439954  
     712A      1.440810   713A      1.441167   714A      1.441542  
     715A      1.441763   716A      1.447399   717A      1.454459  
     718A      1.458249   719A      1.461942   720A      1.468492  
     721A      1.470729   722A      1.481580   723A      1.484668  
     724A      1.488119   725A      1.493486   726A      1.494264  
     727A      1.495309   728A      1.496997   729A      1.503695  
     730A      1.505282   731A      1.511309   732A      1.514832  
     733A      1.516372   734A      1.516903   735A      1.517422  
     736A      1.520327   737A      1.522985   738A      1.529542  
     739A      1.529982   740A      1.532104   741A      1.532470  
     742A      1.534164   743A      1.535996   744A      1.555143  
     745A      1.556294   746A      1.563529   747A      1.564423  
     748A      1.574161   749A      1.597008   750A      1.599045  
     751A      1.600799   752A      1.600885   753A      1.612524  
     754A      1.636453   755A      1.638236   756A      1.651090  
     757A      1.664068   758A      1.681393   759A      1.686588  
     760A      1.689380   761A      1.694201   762A      1.697576  
     763A      1.698318   764A      1.701206   765A      1.702139  
     766A      1.708133   767A      1.716125   768A      1.717066  
     769A      1.720081   770A      1.724140   771A      1.726562  
     772A      1.727518   773A      1.728452   774A      1.732647  
     775A      1.735149   776A      1.738441   777A      1.743977  
     778A      1.745495   779A      1.747404   780A      1.749511  
     781A      1.754741   782A      1.757998   783A      1.758477  
     784A      1.761317   785A      1.764319   786A      1.766413  
     787A      1.766907   788A      1.771146   789A      1.775975  
     790A      1.776577   791A      1.779851   792A      1.780789  
     793A      1.781024   794A      1.789860   795A      1.790651  
     796A      1.790810   797A      1.797870   798A      1.799756  
     799A      1.824601   800A      1.836141   801A      1.838467  
     802A      1.840351   803A      1.840727   804A      1.842140  
     805A      1.846175   806A      1.860474   807A      1.862830  
     808A      1.873612   809A      1.874215   810A      1.897464  
     811A      1.898557   812A      1.899341   813A      1.910704  
     814A      1.910837   815A      1.920878   816A      1.921737  
     817A      1.922189   818A      1.926926   819A      1.933913  
     820A      1.934871   821A      1.939573   822A      1.941121  
     823A      1.944794   824A      1.947047   825A      1.947588  
     826A      1.957074   827A      1.962831   828A      1.964235  
     829A      1.964525   830A      1.979932   831A      1.981639  
     832A      1.982814   833A      1.984604   834A      1.985449  
     835A      1.993097   836A      1.993453   837A      1.999586  
     838A      1.999919   839A      2.001061   840A      2.001270  
     841A      2.004653   842A      2.004681   843A      2.006134  
     844A      2.009281   845A      2.018585   846A      2.023037  
     847A      2.023608   848A      2.024234   849A      2.030573  
     850A      2.032333   851A      2.035897   852A      2.036063  
     853A      2.038870   854A      2.040924   855A      2.041058  
     856A      2.052145   857A      2.061423   858A      2.067419  
     859A      2.070984   860A      2.078275   861A      2.078614  
     862A      2.079789   863A      2.081622   864A      2.083546  
     865A      2.087667   866A      2.095408   867A      2.096433  
     868A      2.098304   869A      2.104631   870A      2.108809  
     871A      2.112247   872A      2.113272   873A      2.114658  
     874A      2.115673   875A      2.121600   876A      2.122794  
     877A      2.128488   878A      2.131125   879A      2.134779  
     880A      2.135008   881A      2.141740   882A      2.144559  
     883A      2.147551   884A      2.154643   885A      2.157662  
     886A      2.159062   887A      2.161733   888A      2.164705  
     889A      2.165572   890A      2.169120   891A      2.171662  
     892A      2.174044   893A      2.177147   894A      2.177183  
     895A      2.182115   896A      2.183408   897A      2.183419  
     898A      2.184986   899A      2.188287   900A      2.188820  
     901A      2.190868   902A      2.194346   903A      2.195551  
     904A      2.197789   905A      2.199352   906A      2.202202  
     907A      2.202725   908A      2.205176   909A      2.207120  
     910A      2.207837   911A      2.209356   912A      2.214796  
     913A      2.215932   914A      2.216398   915A      2.218204  
     916A      2.219999   917A      2.222900   918A      2.224815  
     919A      2.231371   920A      2.236306   921A      2.241135  
     922A      2.245295   923A      2.248296   924A      2.252358  
     925A      2.255076   926A      2.260175   927A      2.262424  
     928A      2.263339   929A      2.268217   930A      2.271812  
     931A      2.273879   932A      2.275609   933A      2.278149  
     934A      2.285647   935A      2.290111   936A      2.296648  
     937A      2.300721   938A      2.302163   939A      2.305759  
     940A      2.310625   941A      2.310709   942A      2.318769  
     943A      2.321281   944A      2.321711   945A      2.323306  
     946A      2.324503   947A      2.325736   948A      2.327587  
     949A      2.327959   950A      2.337895   951A      2.339825  
     952A      2.350659   953A      2.351960   954A      2.352400  
     955A      2.352532   956A      2.358577   957A      2.368430  
     958A      2.382234   959A      2.388523   960A      2.391882  
     961A      2.400206   962A      2.403325   963A      2.416809  
     964A      2.420524   965A      2.426385   966A      2.427715  
     967A      2.431829   968A      2.436074   969A      2.437862  
     970A      2.437938   971A      2.441446   972A      2.452476  
     973A      2.454691   974A      2.475450   975A      2.476385  
     976A      2.484890   977A      2.496202   978A      2.507063  
     979A      2.507538   980A      2.508137   981A      2.516742  
     982A      2.517209   983A      2.526308   984A      2.538039  
     985A      2.554700   986A      2.556733   987A      2.569369  
     988A      2.572421   989A      2.576024   990A      2.590830  
     991A      2.605505   992A      2.614655   993A      2.621271  
     994A      2.628425   995A      2.629648   996A      2.632427  
     997A      2.632691   998A      2.633856   999A      2.642114  
    1000A      2.642580  1001A      2.643622  1002A      2.654671  
    1003A      2.655716  1004A      2.656013  1005A      2.656047  
    1006A      2.667314  1007A      2.672787  1008A      2.673172  
    1009A      2.677352  1010A      2.680330  1011A      2.690271  
    1012A      2.704867  1013A      2.712499  1014A      2.715229  
    1015A      2.718122  1016A      2.719073  1017A      2.722491  
    1018A      2.723303  1019A      2.733117  1020A      2.738245  
    1021A      2.741358  1022A      2.765577  1023A      2.769641  
    1024A      2.772104  1025A      2.775125  1026A      2.795854  
    1027A      2.796288  1028A      2.797645  1029A      2.798305  
    1030A      2.803283  1031A      2.805244  1032A      2.808906  
    1033A      2.813491  1034A      2.836226  1035A      2.836663  
    1036A      2.847011  1037A      2.862812  1038A      2.882629  
    1039A      2.883553  1040A      2.912420  1041A      2.912627  
    1042A      2.915134  1043A      2.937309  1044A      2.939500  
    1045A      2.944807  1046A      2.945077  1047A      2.947024  
    1048A      2.953565  1049A      2.967555  1050A      2.998284  
    1051A      2.999230  1052A      3.006819  1053A      3.013388  
    1054A      3.017210  1055A      3.031026  1056A      3.041370  
    1057A      3.043022  1058A      3.050026  1059A      3.094180  
    1060A      3.096583  1061A      3.096814  1062A      3.124517  
    1063A      3.150753  1064A      3.151103  1065A      3.156838  
    1066A      3.158118  1067A      3.197555  1068A      3.199102  
    1069A      3.204560  1070A      3.212370  1071A      3.213884  
    1072A      3.222291  1073A      3.223282  1074A      3.228402  
    1075A      3.228674  1076A      3.229475  1077A      3.230508  
    1078A      3.242886  1079A      3.245481  1080A      3.247405  
    1081A      3.248008  1082A      3.264232  1083A      3.271036  
    1084A      3.286271  1085A      3.289788  1086A      3.312158  
    1087A      3.331458  1088A      3.360079  1089A      3.363335  
    1090A      3.367735  1091A      3.374018  1092A      3.376167  
    1093A      3.435197  1094A      3.505225  1095A      3.510244  
    1096A      3.574401  1097A      3.580407  1098A      3.624299  
    1099A      3.641974  1100A      3.672845  1101A      3.701987  
    1102A      3.706109  1103A      3.713091  1104A      3.720345  
    1105A      3.750745  1106A      3.765180  1107A      3.867115  
    1108A      3.875457  1109A      3.896631  1110A      3.952452  
    1111A      3.952722  1112A      3.996125  1113A      3.997428  
    1114A      4.065622  1115A      4.097438  1116A      4.122957  
    1117A      4.143779  1118A      4.160503  1119A      4.161546  
    1120A      4.188715  1121A      4.191499  1122A      4.195013  
    1123A      4.196359  1124A      4.214508  1125A      4.217244  
    1126A      4.251166  1127A      4.274045  1128A      4.276974  
    1129A      4.286987  1130A      4.441401  1131A      4.443974  
    1132A      4.453855  1133A      4.642979  1134A      4.650698  
    1135A      4.658864  1136A      4.736738  1137A      4.772368  
    1138A      4.772926  

    Final Occupation by Irrep:
              A 
    DOCC [   192 ]
    NA   [   192 ]
    NB   [   192 ]

  @DF-RHF Final Energy: -2478.65343042819177

   => Energetics <=

    Nuclear Repulsion Energy =           7972.9597257757777697
    One-Electron Energy =              -19304.9013182979942940
    Two-Electron Energy =                8853.2881620940243010
    Total Energy =                      -2478.6534304281922232

Computation Completed


Properties will be evaluated at   0.000000,   0.000000,   0.000000 [a0]

Properties computed using the SCF density matrix


 Multipole Moments:

 ------------------------------------------------------------------------------------
     Multipole            Electronic (a.u.)      Nuclear  (a.u.)        Total (a.u.)
 ------------------------------------------------------------------------------------

 L = 1.  Multiply by 2.5417464519 to convert [e a0] to [Debye]
 Dipole X            :         -0.0002018           -0.0000160           -0.0002178
 Dipole Y            :          0.0005642           -0.0001716            0.0003925
 Dipole Z            :         16.6583021          -20.8429595           -4.1846573
 Magnitude           :                                                    4.1846573

 ------------------------------------------------------------------------------------

*** tstop() called on d-16-13-4 at Mon Jan 22 11:49:20 2024
Module time:
	user time   =    3368.74 seconds =      56.15 minutes
	system time =      75.93 seconds =       1.27 minutes
	total time  =        409 seconds =       6.82 minutes
Total time:
	user time   =    3368.74 seconds =      56.15 minutes
	system time =      75.93 seconds =       1.27 minutes
	total time  =        409 seconds =       6.82 minutes

  //>>>>>>>>>>>>>>>>>>>>>>>>>>>>>>>>>>>//
  //            Monomer A HF           //
  //<<<<<<<<<<<<<<<<<<<<<<<<<<<<<<<<<<<//

   => Libint2 <=

    Primary   basis highest AM E, G, H:  7, 7, 4
    Auxiliary basis highest AM E, G, H:  7, 7, 5
    Onebody   basis highest AM E, G, H:  7, 7, 5
    Solid Harmonics ordering:            gaussian

*** tstart() called on d-16-13-4
*** at Mon Jan 22 11:49:20 2024

   => Loading Basis Set <=

    Name: JUN-CC-PVDZ
    Role: ORBITAL
    Keyword: BASIS
    atoms 1     entry B          line   130 file /home/gridsan/tfroembgen/.conda/envs/psi4test/share/psi4/basis/jun-cc-pvdz.gbs 
    atoms 2-5   entry F          line   266 file /home/gridsan/tfroembgen/.conda/envs/psi4test/share/psi4/basis/jun-cc-pvdz.gbs 
    atoms 6-59  entry C          line   164 file /home/gridsan/tfroembgen/.conda/envs/psi4test/share/psi4/basis/jun-cc-pvdz.gbs 
    atoms 60-77 entry H          line    36 file /home/gridsan/tfroembgen/.conda/envs/psi4test/share/psi4/basis/jun-cc-pvdz.gbs 


         ---------------------------------------------------------
                                   SCF
               by Justin Turney, Rob Parrish, Andy Simmonett
                          and Daniel G. A. Smith
                              RHF Reference
                       12 Threads,  30517 MiB Core
         ---------------------------------------------------------

  ==> Geometry <==

    Molecular point group: c1
    Full point group: C1

    Geometry (in Angstrom), charge = -1, multiplicity = 1:

       Center              X                  Y                   Z               Mass       
    ------------   -----------------  -----------------  -----------------  -----------------
         B           -0.000046449334     0.000336519434     3.007229395393    11.009305360000
         F           -1.153597449334     0.000047519434     3.822876395393    18.998403162730
         F            1.153660550666    -0.000581480566     3.822876395393    18.998403162730
         F           -0.000019449334    -1.153637480566     2.191595395393    18.998403162730
         F           -0.000019449334     1.153977519434     2.191595395393    18.998403162730
      Gh(C)           1.225311925931     0.707538180353    -0.386626977323    12.000000000000
      Gh(C)           1.225323886559    -0.707539003137    -0.398957786894    12.000000000000
      Gh(C)          -0.000006123424     1.414965805524    -0.399491410414    12.000000000000
      Gh(C)           2.456448784457     1.418327778612    -0.383740119923    12.000000000000
      Gh(C)           0.000010857787    -1.414976607201    -0.389291853090    12.000000000000
      Gh(C)          -1.225300918401     0.707545265418    -0.384375457001    12.000000000000
      Gh(C)           2.456437785828    -1.418323412447    -0.401202943750    12.000000000000
      Gh(C)          -0.000001302470     2.836800922715    -0.401894960548    12.000000000000
      Gh(C)           3.681826727978     0.709317847435    -0.400854153953    12.000000000000
      Gh(C)           2.455120079373     2.834223552923    -0.400956710913    12.000000000000
      Gh(C)           3.681821135726    -0.709333947995    -0.384781669934    12.000000000000
      Gh(C)          -1.225313568180    -0.707527624110    -0.397885025467    12.000000000000
      Gh(C)           1.226699611710     3.543469375428    -0.384597638003    12.000000000000
      Gh(C)           0.000004815365    -2.836782247802    -0.384443685468    12.000000000000
      Gh(C)          -2.456436002341     1.418316809719    -0.384340061155    12.000000000000
      Gh(C)           2.455123448287    -2.834230137155    -0.384933578302    12.000000000000
      Gh(C)          -1.226714334082     3.543468955184    -0.384494304784    12.000000000000
      Gh(C)           4.914517325709     1.427172763923    -0.394373470923    12.000000000000
      Gh(C)           3.693150221984     3.542795183979    -0.394323671287    12.000000000000
      Gh(C)          -2.456437569560    -1.418313389406    -0.401227981875    12.000000000000
      Gh(C)           1.226704872451    -3.543474350473    -0.400567768753    12.000000000000
      Gh(C)          -2.455125368000     2.834216554068    -0.400950334567    12.000000000000
      Gh(C)           4.914524411290    -1.427187018510    -0.391400728189    12.000000000000
      Gh(C)           1.221424644206     4.970133956694    -0.391262293929    12.000000000000
      Gh(C)           4.893008259828     2.825187891460    -0.393156802564    12.000000000000
      Gh(C)          -1.226696977981    -3.543471105643    -0.400300564344    12.000000000000
      Gh(C)          -3.681818946018     0.709324858166    -0.400841473473    12.000000000000
      Gh(C)           3.693147131658    -3.542801449957    -0.391282837628    12.000000000000
      Gh(C)          -1.221432221486     4.970128189296    -0.391078798556    12.000000000000
      Gh(C)           6.134771003434     0.680547838539    -0.393603696373    12.000000000000
      Gh(C)           3.656788911118     4.972953135001    -0.393415033504    12.000000000000
      Gh(C)          -2.455126877226    -2.834215201627    -0.385177936100    12.000000000000
      Gh(C)          -3.681819148553    -0.709325812035    -0.384664048356    12.000000000000
      Gh(C)           4.893012648421    -2.825200214198    -0.392545650669    12.000000000000
      Gh(C)          -0.000001042605     5.650447257466    -0.392310107263    12.000000000000
      Gh(C)           6.134775142840    -0.680554962641    -0.392338375858    12.000000000000
      Gh(C)           2.478131513363     5.653576642765    -0.392126253854    12.000000000000
      Gh(C)           1.221422435245    -4.970127163499    -0.394061790951    12.000000000000
      Gh(C)          -3.693162353457     3.542796845626    -0.394158163827    12.000000000000
      Gh(C)          -1.221428490437    -4.970118412162    -0.394174552784    12.000000000000
      Gh(C)          -4.914521777434     1.427175338429    -0.394296525916    12.000000000000
      Gh(C)           3.656787050187    -4.972955334806    -0.391964532970    12.000000000000
      Gh(C)          -2.478138499598     5.653574313962    -0.391841728846    12.000000000000
      Gh(C)          -3.693141708056    -3.542790327545    -0.391398963784    12.000000000000
      Gh(C)          -4.914512452545    -1.427181108594    -0.391366031015    12.000000000000
      Gh(C)          -0.000005978418    -5.650438395580    -0.392705611384    12.000000000000
      Gh(C)          -4.893020453593     2.825188490353    -0.393166884424    12.000000000000
      Gh(C)           2.478126023806    -5.653573652455    -0.393055133762    12.000000000000
      Gh(C)          -3.656798679750     4.972956073475    -0.393238353130    12.000000000000
      Gh(C)          -4.892999448349    -2.825191875626    -0.392699686367    12.000000000000
      Gh(C)          -2.478128467575    -5.653566278573    -0.393330321410    12.000000000000
      Gh(C)          -6.134770472823     0.680548657690    -0.393629248076    12.000000000000
      Gh(C)          -3.656788802681    -4.972944131537    -0.392178820787    12.000000000000
      Gh(C)          -6.134765012405    -0.680554024048    -0.392358851653    12.000000000000
      Gh(H)           5.835288526324     3.369275786388    -0.388797476902     1.007825032230
      Gh(H)           7.073859203255     1.228217140333    -0.393142052980     1.007825032230
      Gh(H)           4.600663294682     5.512380693887    -0.392909832752     1.007825032230
      Gh(H)           5.835283417813    -3.369306165295    -0.397000117983     1.007825032230
      Gh(H)          -0.000012120798     6.738530565570    -0.396659352271     1.007825032230
      Gh(H)           7.073861202338    -1.228227051310    -0.392847113952     1.007825032230
      Gh(H)           2.473313762307     6.740684182828    -0.392592974785     1.007825032230
      Gh(H)           4.600668521889    -5.512376237742    -0.392374530139     1.007825032230
      Gh(H)          -2.473318650030     6.740681611040    -0.392291628160     1.007825032230
      Gh(H)          -0.000010237720    -6.738528285018    -0.388175926400     1.007825032230
      Gh(H)          -5.835301883836     3.369270841730    -0.388661454753     1.007825032230
      Gh(H)           2.473307954339    -6.740685482995    -0.392484803337     1.007825032230
      Gh(H)          -4.600674810700     5.512377918037    -0.392744504429     1.007825032230
      Gh(H)          -5.835279476327    -3.369289072346    -0.397279423864     1.007825032230
      Gh(H)          -2.473300316932    -6.740679186706    -0.392934119882     1.007825032230
      Gh(H)          -7.073857736260     1.228220364274    -0.393226044461     1.007825032230
      Gh(H)          -4.600673755577    -5.512362778353    -0.392546838161     1.007825032230
      Gh(H)          -7.073856903901    -1.228220740543    -0.392941970418     1.007825032230

  Running in c1 symmetry.

  Rotational constants: A =      0.00196  B =      0.00196  C =      0.00110 [cm^-1]
  Rotational constants: A =     58.82258  B =     58.81432  C =     33.02250 [MHz]
  Nuclear repulsion =  178.879482610381331

  Charge       = -1
  Multiplicity = 1
  Electrons    = 42
  Nalpha       = 21
  Nbeta        = 21

  ==> Algorithm <==

  SCF Algorithm Type is DF.
  DIIS enabled.
  MOM disabled.
  Fractional occupation disabled.
  Guess Type is SAD.
  Energy threshold   = 1.00e-08
  Density threshold  = 1.00e-08
  Integral threshold = 1.00e-12

  ==> Primary Basis <==

  Basis Set: JUN-CC-PVDZ
    Blend: JUN-CC-PVDZ
    Number of shells: 526
    Number of basis functions: 1152
    Number of Cartesian functions: 1211
    Spherical Harmonics?: true
    Max angular momentum: 2

   => Loading Basis Set <=

    Name: (JUN-CC-PVDZ AUX)
    Role: JKFIT
    Keyword: DF_BASIS_SCF
    atoms 1     entry B          line    90 file /home/gridsan/tfroembgen/.conda/envs/psi4test/share/psi4/basis/jun-cc-pvdz-jkfit.gbs 
    atoms 2-5   entry F          line   314 file /home/gridsan/tfroembgen/.conda/envs/psi4test/share/psi4/basis/jun-cc-pvdz-jkfit.gbs 
    atoms 6-59  entry C          line   146 file /home/gridsan/tfroembgen/.conda/envs/psi4test/share/psi4/basis/jun-cc-pvdz-jkfit.gbs 
    atoms 60-77 entry H          line    70 file /home/gridsan/tfroembgen/.conda/envs/psi4test/share/psi4/basis/jun-cc-pvdz-jkfit.gbs 

  ==> Integral Setup <==

  ==> DiskDFJK: Density-Fitted J/K Matrices <==

    J tasked:                  Yes
    K tasked:                  Yes
    wK tasked:                  No
    OpenMP threads:             12
    Integrals threads:          12
    Memory [MiB]:            22888
    Algorithm:                Core
    Integral Cache:           LOAD
    Schwarz Cutoff:          1E-12
    Fitting Condition:       1E-10

   => Auxiliary Basis Set <=

  Basis Set: (JUN-CC-PVDZ AUX)
    Blend: JUN-CC-PVDZ-JKFIT
    Number of shells: 1755
    Number of basis functions: 5075
    Number of Cartesian functions: 5819
    Spherical Harmonics?: true
    Max angular momentum: 3

  Minimum eigenvalue in the overlap matrix is 4.4748609967E-10.
  Reciprocal condition number of the overlap matrix is 1.8813778635E-11.
    Using canonical orthogonalization.
  Overall, 14 of 1152 possible MOs eliminated.


  ==> Pre-Iterations <==

  SCF Guess: Superposition of Atomic Densities via on-the-fly atomic UHF (no occupation information).

   -------------------------
    Irrep   Nso     Nmo    
   -------------------------
     A       1152    1138 
   -------------------------
    Total    1152    1138
   -------------------------

  ==> Iterations <==

                           Total Energy        Delta E     RMS |[F,P]|

   @DF-RHF iter SAD:  -421.23045387055839   -4.21230e+02   0.00000e+00 
   @DF-RHF iter   1:  -422.65212557177040   -1.42167e+00   5.30761e-04 ADIIS/DIIS
   @DF-RHF iter   2:  -422.73510001207643   -8.29744e-02   3.23940e-04 ADIIS/DIIS
   @DF-RHF iter   3:  -422.77355909775360   -3.84591e-02   1.75234e-05 DIIS
   @DF-RHF iter   4:  -422.77392220918716   -3.63111e-04   2.79687e-06 DIIS
   @DF-RHF iter   5:  -422.77393098037129   -8.77118e-06   7.30616e-07 DIIS
   @DF-RHF iter   6:  -422.77393158626944   -6.05898e-07   1.51940e-07 DIIS
   @DF-RHF iter   7:  -422.77393160928028   -2.30108e-08   2.70860e-08 DIIS
   @DF-RHF iter   8:  -422.77393160969370   -4.13422e-10   9.51905e-09 DIIS
  Energy and wave function converged.


  ==> Post-Iterations <==

    Orbital Energies [Eh]
    ---------------------

    Doubly Occupied:                                                      

       1A    -26.067095     2A    -26.066953     3A    -26.066932  
       4A    -26.066913     5A     -7.538262     6A     -1.410378  
       7A     -1.350984     8A     -1.350730     9A     -1.350458  
      10A     -0.601673    11A     -0.527920    12A     -0.527874  
      13A     -0.527791    14A     -0.446748    15A     -0.446706  
      16A     -0.408136    17A     -0.408037    18A     -0.408016  
      19A     -0.384656    20A     -0.384453    21A     -0.384361  

    Virtual:                                                              

      22A      0.092241    23A      0.092834    24A      0.093104  
      25A      0.099349    26A      0.099377    27A      0.110555  
      28A      0.111193    29A      0.125267    30A      0.126596  
      31A      0.126642    32A      0.135695    33A      0.136156  
      34A      0.144488    35A      0.144509    36A      0.147406  
      37A      0.149172    38A      0.149979    39A      0.151073  
      40A      0.151089    41A      0.161951    42A      0.161963  
      43A      0.163185    44A      0.165754    45A      0.165854  
      46A      0.170772    47A      0.174212    48A      0.178796  
      49A      0.178953    50A      0.181730    51A      0.182986  
      52A      0.183128    53A      0.189864    54A      0.189960  
      55A      0.190297    56A      0.190626    57A      0.196081  
      58A      0.196317    59A      0.201487    60A      0.202879  
      61A      0.203106    62A      0.205444    63A      0.205474  
      64A      0.206874    65A      0.207305    66A      0.208026  
      67A      0.214471    68A      0.214663    69A      0.216178  
      70A      0.216447    71A      0.220783    72A      0.224187  
      73A      0.224223    74A      0.225773    75A      0.225904  
      76A      0.234565    77A      0.234836    78A      0.235312  
      79A      0.237639    80A      0.237997    81A      0.238402  
      82A      0.238433    83A      0.242899    84A      0.245867  
      85A      0.246446    86A      0.246566    87A      0.248245  
      88A      0.250484    89A      0.257020    90A      0.258565  
      91A      0.259029    92A      0.261315    93A      0.265355  
      94A      0.270033    95A      0.270502    96A      0.270525  
      97A      0.274519    98A      0.275871    99A      0.276030  
     100A      0.279612   101A      0.279919   102A      0.282324  
     103A      0.283535   104A      0.284578   105A      0.285231  
     106A      0.285450   107A      0.289372   108A      0.289397  
     109A      0.295357   110A      0.295589   111A      0.301486  
     112A      0.301938   113A      0.304663   114A      0.305003  
     115A      0.309236   116A      0.310408   117A      0.311602  
     118A      0.312114   119A      0.313140   120A      0.315152  
     121A      0.317453   122A      0.321633   123A      0.325988  
     124A      0.327208   125A      0.327773   126A      0.328560  
     127A      0.328590   128A      0.330605   129A      0.330908  
     130A      0.338715   131A      0.340092   132A      0.343074  
     133A      0.343178   134A      0.343979   135A      0.348525  
     136A      0.349391   137A      0.349942   138A      0.354193  
     139A      0.354298   140A      0.354613   141A      0.355699  
     142A      0.357956   143A      0.358099   144A      0.361348  
     145A      0.361548   146A      0.364184   147A      0.369332  
     148A      0.370478   149A      0.383090   150A      0.387125  
     151A      0.387695   152A      0.388124   153A      0.388689  
     154A      0.389534   155A      0.394064   156A      0.394218  
     157A      0.396922   158A      0.403303   159A      0.403439  
     160A      0.403779   161A      0.407635   162A      0.409541  
     163A      0.409605   164A      0.412000   165A      0.412229  
     166A      0.413780   167A      0.418270   168A      0.423252  
     169A      0.428029   170A      0.429197   171A      0.432289  
     172A      0.433943   173A      0.436891   174A      0.438554  
     175A      0.440000   176A      0.441455   177A      0.442865  
     178A      0.444075   179A      0.444278   180A      0.446361  
     181A      0.446609   182A      0.447053   183A      0.447805  
     184A      0.449189   185A      0.449640   186A      0.451736  
     187A      0.454265   188A      0.455663   189A      0.462111  
     190A      0.464446   191A      0.464532   192A      0.465610  
     193A      0.468125   194A      0.470228   195A      0.473921  
     196A      0.478008   197A      0.481444   198A      0.483522  
     199A      0.484225   200A      0.489513   201A      0.490918  
     202A      0.491980   203A      0.498996   204A      0.499467  
     205A      0.501175   206A      0.501882   207A      0.505490  
     208A      0.508190   209A      0.510059   210A      0.512683  
     211A      0.513784   212A      0.513922   213A      0.518107  
     214A      0.518867   215A      0.519724   216A      0.520051  
     217A      0.520919   218A      0.523227   219A      0.524097  
     220A      0.524666   221A      0.525935   222A      0.526665  
     223A      0.528382   224A      0.529349   225A      0.533079  
     226A      0.533895   227A      0.535941   228A      0.536452  
     229A      0.544944   230A      0.549334   231A      0.552518  
     232A      0.555079   233A      0.555118   234A      0.556549  
     235A      0.561758   236A      0.562981   237A      0.563134  
     238A      0.564746   239A      0.565712   240A      0.566380  
     241A      0.566669   242A      0.568629   243A      0.569609  
     244A      0.572089   245A      0.579784   246A      0.580275  
     247A      0.581450   248A      0.589741   249A      0.591486  
     250A      0.592087   251A      0.596486   252A      0.598236  
     253A      0.600665   254A      0.602540   255A      0.602637  
     256A      0.603442   257A      0.604966   258A      0.605468  
     259A      0.607711   260A      0.608020   261A      0.610197  
     262A      0.610924   263A      0.613298   264A      0.613581  
     265A      0.622698   266A      0.630207   267A      0.631145  
     268A      0.631864   269A      0.636474   270A      0.641273  
     271A      0.642317   272A      0.644245   273A      0.646775  
     274A      0.647562   275A      0.648484   276A      0.648658  
     277A      0.649812   278A      0.657360   279A      0.658525  
     280A      0.659494   281A      0.662343   282A      0.663223  
     283A      0.664915   284A      0.666239   285A      0.674894  
     286A      0.678972   287A      0.679311   288A      0.679980  
     289A      0.680042   290A      0.683877   291A      0.685844  
     292A      0.690095   293A      0.690498   294A      0.692346  
     295A      0.693967   296A      0.696516   297A      0.697182  
     298A      0.698766   299A      0.701001   300A      0.703338  
     301A      0.708163   302A      0.713053   303A      0.714336  
     304A      0.719649   305A      0.724773   306A      0.725199  
     307A      0.726450   308A      0.728655   309A      0.735115  
     310A      0.735774   311A      0.738469   312A      0.740652  
     313A      0.742869   314A      0.743417   315A      0.744313  
     316A      0.750485   317A      0.754902   318A      0.758759  
     319A      0.759608   320A      0.763438   321A      0.763935  
     322A      0.766122   323A      0.771901   324A      0.773516  
     325A      0.778136   326A      0.779228   327A      0.782171  
     328A      0.782924   329A      0.787230   330A      0.787677  
     331A      0.792914   332A      0.795529   333A      0.795599  
     334A      0.806405   335A      0.808844   336A      0.810462  
     337A      0.814845   338A      0.821170   339A      0.822181  
     340A      0.823491   341A      0.824947   342A      0.826249  
     343A      0.830757   344A      0.834926   345A      0.835264  
     346A      0.839359   347A      0.842926   348A      0.844162  
     349A      0.846105   350A      0.846911   351A      0.852862  
     352A      0.853892   353A      0.856476   354A      0.859779  
     355A      0.859908   356A      0.867342   357A      0.871979  
     358A      0.872496   359A      0.879020   360A      0.879496  
     361A      0.880157   362A      0.880451   363A      0.882504  
     364A      0.883636   365A      0.886593   366A      0.887295  
     367A      0.887913   368A      0.891575   369A      0.891800  
     370A      0.892393   371A      0.897910   372A      0.903564  
     373A      0.908804   374A      0.913619   375A      0.914632  
     376A      0.919982   377A      0.920937   378A      0.925502  
     379A      0.931925   380A      0.933095   381A      0.933861  
     382A      0.936747   383A      0.944857   384A      0.961810  
     385A      0.968180   386A      0.969982   387A      0.970213  
     388A      0.979564   389A      0.980359   390A      0.984874  
     391A      0.985052   392A      0.986156   393A      0.987267  
     394A      0.988215   395A      0.990490   396A      0.995580  
     397A      1.001047   398A      1.028632   399A      1.037639  
     400A      1.041667   401A      1.044243   402A      1.046205  
     403A      1.054332   404A      1.057046   405A      1.059305  
     406A      1.063721   407A      1.065235   408A      1.071976  
     409A      1.072355   410A      1.078342   411A      1.089498  
     412A      1.090407   413A      1.107222   414A      1.111747  
     415A      1.133222   416A      1.135328   417A      1.146257  
     418A      1.146774   419A      1.149442   420A      1.159408  
     421A      1.162757   422A      1.166202   423A      1.168476  
     424A      1.183878   425A      1.184444   426A      1.185448  
     427A      1.196595   428A      1.248744   429A      1.254812  
     430A      1.255683   431A      1.256178   432A      1.257856  
     433A      1.265062   434A      1.265145   435A      1.273540  
     436A      1.289825   437A      1.290407   438A      1.312550  
     439A      1.312593   440A      1.318570   441A      1.330872  
     442A      1.333195   443A      1.375228   444A      1.393165  
     445A      1.394768   446A      1.396423   447A      1.398644  
     448A      1.399728   449A      1.405887   450A      1.408696  
     451A      1.411919   452A      1.412901   453A      1.425338  
     454A      1.431973   455A      1.452837   456A      1.467328  
     457A      1.467518   458A      1.523487   459A      1.550056  
     460A      1.552929   461A      1.564391   462A      1.564517  
     463A      1.571630   464A      1.572115   465A      1.578744  
     466A      1.583795   467A      1.590296   468A      1.596412  
     469A      1.650030   470A      1.656444   471A      1.658290  
     472A      1.662924   473A      1.667227   474A      1.673422  
     475A      1.679435   476A      1.682034   477A      1.683301  
     478A      1.715411   479A      1.733601   480A      1.735743  
     481A      1.758748   482A      1.759570   483A      1.762850  
     484A      1.766755   485A      1.778996   486A      1.787221  
     487A      1.788155   488A      1.791431   489A      1.800409  
     490A      1.808362   491A      1.822916   492A      1.834432  
     493A      1.835931   494A      1.837480   495A      1.838538  
     496A      1.841327   497A      1.845442   498A      1.849618  
     499A      1.857600   500A      1.863497   501A      1.868986  
     502A      1.873274   503A      1.879003   504A      1.882357  
     505A      1.883099   506A      1.887356   507A      1.888310  
     508A      1.910975   509A      1.913365   510A      1.915675  
     511A      1.916898   512A      1.919421   513A      1.920350  
     514A      1.923119   515A      1.924266   516A      1.928010  
     517A      1.929445   518A      1.931580   519A      1.931735  
     520A      1.937194   521A      1.937899   522A      1.942965  
     523A      1.949376   524A      1.950579   525A      1.961893  
     526A      1.967664   527A      1.974554   528A      1.975166  
     529A      1.976103   530A      1.979945   531A      1.981511  
     532A      1.982349   533A      1.986623   534A      1.999961  
     535A      2.001297   536A      2.004581   537A      2.006201  
     538A      2.007412   539A      2.010332   540A      2.015927  
     541A      2.017108   542A      2.018662   543A      2.019654  
     544A      2.026125   545A      2.026740   546A      2.030405  
     547A      2.032160   548A      2.035011   549A      2.043042  
     550A      2.046956   551A      2.048250   552A      2.051892  
     553A      2.062864   554A      2.064134   555A      2.065041  
     556A      2.066043   557A      2.070700   558A      2.073380  
     559A      2.078892   560A      2.082310   561A      2.084878  
     562A      2.087653   563A      2.089724   564A      2.090312  
     565A      2.091434   566A      2.093992   567A      2.098335  
     568A      2.110420   569A      2.112238   570A      2.117379  
     571A      2.119232   572A      2.125852   573A      2.125957  
     574A      2.128374   575A      2.144041   576A      2.155963  
     577A      2.162472   578A      2.166786   579A      2.167238  
     580A      2.173334   581A      2.175917   582A      2.176959  
     583A      2.181902   584A      2.181917   585A      2.185453  
     586A      2.185878   587A      2.188859   588A      2.189536  
     589A      2.199670   590A      2.203808   591A      2.206469  
     592A      2.212528   593A      2.215626   594A      2.216991  
     595A      2.222186   596A      2.223835   597A      2.226968  
     598A      2.227713   599A      2.227941   600A      2.229624  
     601A      2.232903   602A      2.233897   603A      2.236143  
     604A      2.236232   605A      2.237710   606A      2.237967  
     607A      2.244159   608A      2.245634   609A      2.246270  
     610A      2.247059   611A      2.250692   612A      2.250927  
     613A      2.250988   614A      2.251609   615A      2.253493  
     616A      2.253870   617A      2.255924   618A      2.257807  
     619A      2.263968   620A      2.264690   621A      2.265178  
     622A      2.269247   623A      2.273626   624A      2.276099  
     625A      2.277856   626A      2.277902   627A      2.280911  
     628A      2.283880   629A      2.285653   630A      2.288051  
     631A      2.290429   632A      2.291134   633A      2.291832  
     634A      2.292328   635A      2.300104   636A      2.300756  
     637A      2.317913   638A      2.324115   639A      2.334487  
     640A      2.336379   641A      2.338766   642A      2.342215  
     643A      2.342628   644A      2.345208   645A      2.345371  
     646A      2.352798   647A      2.354457   648A      2.354763  
     649A      2.362976   650A      2.367559   651A      2.368090  
     652A      2.368509   653A      2.368984   654A      2.370988  
     655A      2.371585   656A      2.373664   657A      2.378051  
     658A      2.380833   659A      2.386365   660A      2.389184  
     661A      2.391968   662A      2.399060   663A      2.399478  
     664A      2.402337   665A      2.405874   666A      2.411663  
     667A      2.419735   668A      2.427806   669A      2.428320  
     670A      2.432645   671A      2.436195   672A      2.448159  
     673A      2.450562   674A      2.450680   675A      2.457840  
     676A      2.458468   677A      2.460604   678A      2.465864  
     679A      2.466659   680A      2.469426   681A      2.469550  
     682A      2.469772   683A      2.471420   684A      2.472331  
     685A      2.477240   686A      2.480426   687A      2.490021  
     688A      2.491329   689A      2.493404   690A      2.493615  
     691A      2.494816   692A      2.500882   693A      2.503088  
     694A      2.505374   695A      2.513375   696A      2.513914  
     697A      2.516100   698A      2.518950   699A      2.537478  
     700A      2.537816   701A      2.548708   702A      2.556906  
     703A      2.558216   704A      2.559031   705A      2.562317  
     706A      2.565784   707A      2.566687   708A      2.570312  
     709A      2.570817   710A      2.575432   711A      2.575722  
     712A      2.584163   713A      2.585530   714A      2.592589  
     715A      2.593025   716A      2.595886   717A      2.596092  
     718A      2.597866   719A      2.599680   720A      2.604907  
     721A      2.610162   722A      2.615730   723A      2.620709  
     724A      2.629741   725A      2.633330   726A      2.633591  
     727A      2.645395   728A      2.646939   729A      2.647764  
     730A      2.650721   731A      2.653677   732A      2.654630  
     733A      2.656578   734A      2.659800   735A      2.660095  
     736A      2.660623   737A      2.668505   738A      2.672315  
     739A      2.676745   740A      2.697748   741A      2.699981  
     742A      2.714741   743A      2.717031   744A      2.718856  
     745A      2.720271   746A      2.723803   747A      2.724080  
     748A      2.725082   749A      2.730821   750A      2.731115  
     751A      2.742342   752A      2.743725   753A      2.746464  
     754A      2.748795   755A      2.750237   756A      2.751211  
     757A      2.755629   758A      2.760113   759A      2.765115  
     760A      2.769776   761A      2.776695   762A      2.780960  
     763A      2.781931   764A      2.791181   765A      2.793254  
     766A      2.796872   767A      2.800293   768A      2.801592  
     769A      2.806948   770A      2.808612   771A      2.812478  
     772A      2.815217   773A      2.816349   774A      2.824087  
     775A      2.827740   776A      2.831937   777A      2.840888  
     778A      2.847451   779A      2.849770   780A      2.851284  
     781A      2.853535   782A      2.861087   783A      2.863911  
     784A      2.870225   785A      2.882663   786A      2.899015  
     787A      2.901158   788A      2.902356   789A      2.917658  
[...]
     724A      1.450294   725A      1.451230   726A      1.451487  
     727A      1.457969   728A      1.459085   729A      1.459319  
     730A      1.464070   731A      1.466313   732A      1.469132  
     733A      1.473861   734A      1.481085   735A      1.493253  
     736A      1.493631   737A      1.516650   738A      1.516951  
     739A      1.523134   740A      1.523237   741A      1.534137  
     742A      1.540321   743A      1.552509   744A      1.589629  
     745A      1.603776   746A      1.606302   747A      1.609071  
     748A      1.614305   749A      1.614888   750A      1.616903  
     751A      1.622190   752A      1.628145   753A      1.630643  
     754A      1.631825   755A      1.632481   756A      1.641177  
     757A      1.641398   758A      1.643690   759A      1.646148  
     760A      1.647879   761A      1.655127   762A      1.656986  
     763A      1.661466   764A      1.661866   765A      1.667866  
     766A      1.671335   767A      1.673605   768A      1.675748  
     769A      1.678163   770A      1.678868   771A      1.680384  
     772A      1.682057   773A      1.687500   774A      1.687749  
     775A      1.690374   776A      1.694108   777A      1.699304  
     778A      1.699652   779A      1.701090   780A      1.704163  
     781A      1.705462   782A      1.715082   783A      1.716600  
     784A      1.725962   785A      1.728254   786A      1.736088  
     787A      1.744467   788A      1.753306   789A      1.757267  
     790A      1.761213   791A      1.762474   792A      1.762604  
     793A      1.773726   794A      1.778258   795A      1.780920  
     796A      1.793283   797A      1.807805   798A      1.810537  
     799A      1.811835   800A      1.820146   801A      1.825198  
     802A      1.825911   803A      1.827904   804A      1.829326  
     805A      1.841164   806A      1.843384   807A      1.845598  
     808A      1.851279   809A      1.855338   810A      1.859782  
     811A      1.865973   812A      1.866158   813A      1.867491  
     814A      1.870660   815A      1.874082   816A      1.878277  
     817A      1.880045   818A      1.883030   819A      1.883369  
     820A      1.888007   821A      1.898627   822A      1.898911  
     823A      1.906040   824A      1.908343   825A      1.909323  
     826A      1.911936   827A      1.914915   828A      1.918213  
     829A      1.918634   830A      1.918922   831A      1.922680  
     832A      1.923011   833A      1.923717   834A      1.925638  
     835A      1.941772   836A      1.943712   837A      1.944800  
     838A      1.946387   839A      1.948264   840A      1.948534  
     841A      1.955722   842A      1.958176   843A      1.959473  
     844A      1.964090   845A      1.971828   846A      1.980324  
     847A      1.986610   848A      1.996114   849A      1.997464  
     850A      1.999965   851A      2.000602   852A      2.003216  
     853A      2.011087   854A      2.015090   855A      2.015560  
     856A      2.017628   857A      2.030142   858A      2.031423  
     859A      2.032334   860A      2.033058   861A      2.034285  
     862A      2.040023   863A      2.043628   864A      2.049201  
     865A      2.054755   866A      2.055906   867A      2.060096  
     868A      2.065407   869A      2.066297   870A      2.070611  
     871A      2.073072   872A      2.077580   873A      2.079311  
     874A      2.080078   875A      2.080638   876A      2.084799  
     877A      2.091661   878A      2.093017   879A      2.095762  
     880A      2.097633   881A      2.100493   882A      2.102298  
     883A      2.104358   884A      2.104769   885A      2.106185  
     886A      2.107879   887A      2.109914   888A      2.111353  
     889A      2.115441   890A      2.119497   891A      2.119540  
     892A      2.121975   893A      2.122632   894A      2.123784  
     895A      2.126408   896A      2.127404   897A      2.130735  
     898A      2.133842   899A      2.134772   900A      2.136784  
     901A      2.138918   902A      2.144153   903A      2.146004  
     904A      2.146910   905A      2.162021   906A      2.164445  
     907A      2.167246   908A      2.169220   909A      2.175938  
     910A      2.177977   911A      2.179549   912A      2.179881  
     913A      2.193211   914A      2.193932   915A      2.195942  
     916A      2.196683   917A      2.200986   918A      2.203927  
     919A      2.204526   920A      2.219898   921A      2.221344  
     922A      2.226781   923A      2.233993   924A      2.237311  
     925A      2.237800   926A      2.243366   927A      2.243989  
     928A      2.245806   929A      2.246381   930A      2.248113  
     931A      2.248410   932A      2.260872   933A      2.261547  
     934A      2.269379   935A      2.270581   936A      2.272833  
     937A      2.273528   938A      2.281363   939A      2.295646  
     940A      2.301251   941A      2.307505   942A      2.316582  
     943A      2.318986   944A      2.330265   945A      2.332573  
     946A      2.333677   947A      2.338881   948A      2.343298  
     949A      2.351793   950A      2.352431   951A      2.353925  
     952A      2.355739   953A      2.364912   954A      2.370559  
     955A      2.373648   956A      2.381652   957A      2.398577  
     958A      2.416724   959A      2.424550   960A      2.424759  
     961A      2.424806   962A      2.436606   963A      2.442190  
     964A      2.444074   965A      2.471844   966A      2.475886  
     967A      2.481760   968A      2.487687   969A      2.490526  
     970A      2.505972   971A      2.523386   972A      2.530561  
     973A      2.541746   974A      2.547397   975A      2.548159  
     976A      2.550932   977A      2.554882   978A      2.555109  
     979A      2.555513   980A      2.560405   981A      2.560537  
     982A      2.573350   983A      2.573371   984A      2.576836  
     985A      2.577574   986A      2.586423   987A      2.590193  
     988A      2.591525   989A      2.593417   990A      2.596116  
     991A      2.610068   992A      2.624776   993A      2.627694  
     994A      2.633167   995A      2.634516   996A      2.635733  
     997A      2.642967   998A      2.644322   999A      2.654111  
    1000A      2.655951  1001A      2.662130  1002A      2.684950  
    1003A      2.686482  1004A      2.688194  1005A      2.697699  
    1006A      2.707952  1007A      2.713361  1008A      2.713392  
    1009A      2.714290  1010A      2.719222  1011A      2.720314  
    1012A      2.724824  1013A      2.732344  1014A      2.754756  
    1015A      2.755445  1016A      2.758537  1017A      2.779662  
    1018A      2.796127  1019A      2.796564  1020A      2.819144  
    1021A      2.827566  1022A      2.828870  1023A      2.840581  
    1024A      2.851170  1025A      2.855818  1026A      2.856539  
    1027A      2.858609  1028A      2.860907  1029A      2.862063  
    1030A      2.875677  1031A      2.917263  1032A      2.918409  
    1033A      2.919472  1034A      2.927363  1035A      2.929541  
    1036A      2.937278  1037A      2.939008  1038A      2.954250  
    1039A      2.963709  1040A      2.971934  1041A      3.011064  
    1042A      3.015320  1043A      3.018416  1044A      3.047314  
    1045A      3.064624  1046A      3.065179  1047A      3.074007  
    1048A      3.076054  1049A      3.116999  1050A      3.119509  
    1051A      3.133426  1052A      3.134745  1053A      3.140254  
    1054A      3.140596  1055A      3.147755  1056A      3.147972  
    1057A      3.149488  1058A      3.150753  1059A      3.153813  
    1060A      3.161823  1061A      3.165489  1062A      3.167867  
    1063A      3.170054  1064A      3.192090  1065A      3.211397  
    1066A      3.222924  1067A      3.247788  1068A      3.277955  
    1069A      3.281100  1070A      3.285606  1071A      3.289832  
    1072A      3.295981  1073A      3.419589  1074A      3.422885  
    1075A      3.487260  1076A      3.491189  1077A      3.527048  
    1078A      3.556101  1079A      3.585902  1080A      3.611273  
    1081A      3.617319  1082A      3.629992  1083A      3.635997  
    1084A      3.665937  1085A      3.688890  1086A      3.781437  
    1087A      3.790983  1088A      3.808724  1089A      3.871734  
    1090A      3.872018  1091A      3.914405  1092A      3.915454  
    1093A      3.979060  1094A      4.011426  1095A      4.063768  
    1096A      4.071712  1097A      4.116006  1098A      4.278483  
    1099A      4.429041  1100A      4.537221  1101A      4.553507  
    1102A      5.757887  1103A      5.758957  1104A      5.769516  
    1105A      5.774494  1106A      5.775510  1107A      5.776480  
    1108A      5.792449  1109A      5.805887  1110A      5.819123  
    1111A      5.824401  1112A      5.843174  1113A      6.034138  
    1114A      6.035822  1115A      6.042979  1116A      6.214426  
    1117A      6.337184  1118A      6.337986  1119A      6.394175  
    1120A      6.395687  1121A      6.396297  1122A      7.250155  
    1123A      7.303600  1124A      7.325293  1125A      7.341919  
    1126A      7.479765  1127A      7.485383  1128A      7.495686  
    1129A      7.541679  1130A      7.558576  1131A      7.612296  
    1132A      7.771279  1133A      7.839239  1134A     12.753435  
    1135A     42.928586  1136A     42.954339  1137A     42.979693  
    1138A     42.981576  

    Final Occupation by Irrep:
              A 
    DOCC [   171 ]
    NA   [   171 ]
    NB   [   171 ]

  @DF-RHF Final Energy: -2055.89388963676902

   => Energetics <=

    Nuclear Repulsion Energy =           6452.5568002797781446
    One-Electron Energy =              -15636.4853692683864210
    Two-Electron Energy =                7128.0346793518401682
    Total Energy =                      -2055.8938896367690177

Computation Completed


Properties will be evaluated at   0.000000,   0.000000,   0.000000 [a0]

Properties computed using the SCF density matrix


 Multipole Moments:

 ------------------------------------------------------------------------------------
     Multipole            Electronic (a.u.)      Nuclear  (a.u.)        Total (a.u.)
 ------------------------------------------------------------------------------------

 L = 1.  Multiply by 2.5417464519 to convert [e a0] to [Debye]
 Dipole X            :          0.0000617            0.0000112            0.0000729
 Dipole Y            :          0.0003010           -0.0000531            0.0002479
 Dipole Z            :        253.8398189         -253.8398398           -0.0000209
 Magnitude           :                                                    0.0002592

 ------------------------------------------------------------------------------------

*** tstop() called on d-16-13-4 at Mon Jan 22 11:57:49 2024
Module time:
	user time   =    2330.78 seconds =      38.85 minutes
	system time =      40.78 seconds =       0.68 minutes
	total time  =        240 seconds =       4.00 minutes
Total time:
	user time   =    6924.57 seconds =     115.41 minutes
	system time =     137.55 seconds =       2.29 minutes
	total time  =        918 seconds =      15.30 minutes
  Constructing Basis Sets for SAPT...

   => Loading Basis Set <=

    Name: (JUN-CC-PVDZ AUX)
    Role: RIFIT
    Keyword: DF_BASIS_SAPT
    atoms 1     entry B          line    56 file /home/gridsan/tfroembgen/.conda/envs/psi4test/share/psi4/basis/jun-cc-pvdz-ri.gbs 
    atoms 2-5   entry F          line   232 file /home/gridsan/tfroembgen/.conda/envs/psi4test/share/psi4/basis/jun-cc-pvdz-ri.gbs 
    atoms 6-59  entry C          line   100 file /home/gridsan/tfroembgen/.conda/envs/psi4test/share/psi4/basis/jun-cc-pvdz-ri.gbs 
    atoms 60-77 entry H          line    30 file /home/gridsan/tfroembgen/.conda/envs/psi4test/share/psi4/basis/jun-cc-pvdz-ri.gbs 

   => Loading Basis Set <=

    Name: (JUN-CC-PVDZ AUX)
    Role: JKFIT
    Keyword: DF_BASIS_ELST
    atoms 1     entry B          line    90 file /home/gridsan/tfroembgen/.conda/envs/psi4test/share/psi4/basis/jun-cc-pvdz-jkfit.gbs 
    atoms 2-5   entry F          line   314 file /home/gridsan/tfroembgen/.conda/envs/psi4test/share/psi4/basis/jun-cc-pvdz-jkfit.gbs 
    atoms 6-59  entry C          line   146 file /home/gridsan/tfroembgen/.conda/envs/psi4test/share/psi4/basis/jun-cc-pvdz-jkfit.gbs 
    atoms 60-77 entry H          line    70 file /home/gridsan/tfroembgen/.conda/envs/psi4test/share/psi4/basis/jun-cc-pvdz-jkfit.gbs 


  //>>>>>>>>>>>>>>>>>>>>>>>>>>>>>>>>>>>//
  //               SSAPT0              //
  //<<<<<<<<<<<<<<<<<<<<<<<<<<<<<<<<<<<//


*** tstart() called on d-16-13-4
*** at Mon Jan 22 11:57:50 2024

        SAPT0  
    Ed Hohenstein
     6 June 2009

      Orbital Information
  --------------------------
    NSO        =      1152
    NMO        =      1138
    NRI        =      4087
    NRI (Elst) =      5075
    NOCC A     =        21
    NOCC B     =       171
    FOCC A     =         5
    FOCC B     =        54
    NVIR A     =      1117
    NVIR B     =       967

    Elst10,r            =    -0.001506456017 [Eh]
    Exch10              =     0.036464979382 [Eh]
    Exch10 (S^2)        =     0.036252857192 [Eh]

    Iter     Energy [mEh]          dE [mEh]         Residual      Time [s]
       1      -3.99473817       3.994738169      11.458697693           510
       2      -4.98891043       0.994172264       4.871091616           774
       3      -5.11501066       0.126100223       0.777698567          1022
       4      -5.09877895      -0.016231708       0.235902736          1055
       5      -5.09778732      -0.000991631       0.059293434          1068
       6      -5.09831510       0.000527784       0.017196034          1080
       7      -5.09846543       0.000150329       0.003445744          1093
       8      -5.09842326      -0.000042169       0.000546047          1106
       9      -5.09842746       0.000004201       0.000089567          1119
      10      -5.09842716      -0.000000299       0.000017798          1132
      11      -5.09842713      -0.000000028       0.000003211          1145
      12      -5.09842715       0.000000014       0.000000981          1158

    CHF Iterations converged


    Iter     Energy [mEh]          dE [mEh]         Residual      Time [s]
       1     -34.49928137      34.499281369      89.016663668           141
       2     -25.71130712      -8.787974246      12.050812974           254
       3     -26.02906826       0.317761137       4.477279483           310
       4     -26.59891734       0.569849083       1.071346643           330
       5     -26.61508380       0.016166456       0.386594900           350
       6     -26.58758656      -0.027497237       0.146466471           368
       7     -26.58684360      -0.000742959       0.068774966           386
       8     -26.59023278       0.003389180       0.029653185           409
       9     -26.59067696       0.000444175       0.014296953           425
      10     -26.59010719      -0.000569766       0.009192037           440
      11     -26.59003016      -0.000077030       0.005845202           462
      12     -26.59018232       0.000152161       0.002972207           481
      13     -26.59021081       0.000028484       0.001351977           504
      14     -26.59017779      -0.000033018       0.000757236           519
      15     -26.59017229      -0.000005495       0.000360360           535
      16     -26.59017984       0.000007548       0.000163578           554
      17     -26.59018128       0.000001441       0.000060681           577
      18     -26.59018028      -0.000001001       0.000025516           601
      19     -26.59017994      -0.000000345       0.000014041           619
      20     -26.59018003       0.000000096       0.000006396           650
      21     -26.59018017       0.000000136       0.000002570           680
      22     -26.59018015      -0.000000017       0.000001056           703
      23     -26.59018013      -0.000000018       0.000000437           725

    CHF Iterations converged

    Ind20,r (A<-B)      =    -0.005098427148 [Eh]
    Ind20,r (B<-A)      =    -0.026590180133 [Eh]
    Ind20,r             =    -0.031688607282 [Eh]
    Exch-Ind20,r (A<-B) =     0.004688029691 [Eh]
    Exch-Ind20,r (B<-A) =     0.009325147197 [Eh]
    Exch-Ind20,r        =     0.014013176888 [Eh]
    Disp20              =    -0.019465464798 [Eh]
    Disp20 (SS)         =    -0.009732732399 [Eh]
    Disp20 (OS)         =    -0.009732732399 [Eh]
    Exch-Disp20         =     0.003855191176 [Eh]
    Exch-Disp20 (SS)    =     0.002135427242 [Eh]
    Exch-Disp20 (OS)    =     0.001719763934 [Eh]

    SAPT Results 
  --------------------------------------------------------------------------------------------------------
    Electrostatics                 -1.50645602 [mEh]      -0.94531542 [kcal/mol]      -3.95519973 [kJ/mol]
      Elst10,r                     -1.50645602 [mEh]      -0.94531542 [kcal/mol]      -3.95519973 [kJ/mol]

    Exchange                       36.46497938 [mEh]      22.88212002 [kcal/mol]      95.73879018 [kJ/mol]
      Exch10                       36.46497938 [mEh]      22.88212002 [kcal/mol]      95.73879018 [kJ/mol]
      Exch10(S^2)                  36.25285719 [mEh]      22.74901134 [kcal/mol]      95.18186344 [kJ/mol]

    Induction                     -20.56770509 [mEh]     -12.90642980 [kcal/mol]     -54.00050228 [kJ/mol]
      Ind20,r                     -31.68860728 [mEh]     -19.88490128 [kcal/mol]     -83.19842696 [kJ/mol]
      Exch-Ind20,r                 14.01317689 [mEh]       8.79340126 [kcal/mol]      36.79159085 [kJ/mol]
      delta HF,r (2)               -2.89227470 [mEh]      -1.81492978 [kcal/mol]      -7.59366618 [kJ/mol]

    Dispersion                    -15.61027362 [mEh]      -9.79559459 [kcal/mol]     -40.98476775 [kJ/mol]
      Disp20                      -19.46546480 [mEh]     -12.21476357 [kcal/mol]     -51.10657079 [kJ/mol]
      Exch-Disp20                   3.85519118 [mEh]       2.41916899 [kcal/mol]      10.12180304 [kJ/mol]
      Disp20 (SS)                  -9.73273240 [mEh]      -6.10738179 [kcal/mol]     -25.55328539 [kJ/mol]
      Disp20 (OS)                  -9.73273240 [mEh]      -6.10738179 [kcal/mol]     -25.55328539 [kJ/mol]
      Exch-Disp20 (SS)              2.13542724 [mEh]       1.34000083 [kcal/mol]       5.60656345 [kJ/mol]
      Exch-Disp20 (OS)              1.71976393 [mEh]       1.07916816 [kcal/mol]       4.51523959 [kJ/mol]

  Total HF                         14.39081827 [mEh]       9.03037480 [kcal/mol]      37.78308816 [kJ/mol]
  Total SAPT0                      -1.21945535 [mEh]      -0.76521979 [kcal/mol]      -3.20167958 [kJ/mol]

  Special recipe for scaled SAPT0 (see Manual):
    Electrostatics sSAPT0          -1.50645602 [mEh]      -0.94531542 [kcal/mol]      -3.95519973 [kJ/mol]
    Exchange sSAPT0                36.46497938 [mEh]      22.88212002 [kcal/mol]      95.73879018 [kJ/mol]
    Induction sSAPT0              -20.32028192 [mEh]     -12.75116941 [kcal/mol]     -53.35089282 [kJ/mol]
    Dispersion sSAPT0             -15.54220457 [mEh]      -9.75288061 [kcal/mol]     -40.80605248 [kJ/mol]
  Total sSAPT0                     -0.90396312 [mEh]      -0.56724542 [kcal/mol]      -2.37335485 [kJ/mol]
  --------------------------------------------------------------------------------------------------------

*** tstop() called on d-16-13-4 at Mon Jan 22 13:02:43 2024
Module time:
	user time   =    7362.38 seconds =     122.71 minutes
	system time =     737.37 seconds =      12.29 minutes
	total time  =       3893 seconds =      64.88 minutes
Total time:
	user time   =   14288.72 seconds =     238.15 minutes
	system time =     874.95 seconds =      14.58 minutes
	total time  =       4812 seconds =      80.20 minutes

    Psi4 stopped on: Monday, 22 January 2024 01:02PM
    Psi4 wall time for execution: 1:20:12.89

*** Psi4 exiting successfully. Buy a developer a beer!
