
    -----------------------------------------------------------------------
          Psi4: An Open-Source Ab Initio Electronic Structure Package
                               Psi4 1.9 release

                         Git: Rev {} zzzzzzz 


    D. G. A. Smith, L. A. Burns, A. C. Simmonett, R. M. Parrish,
    M. C. Schieber, R. Galvelis, P. Kraus, H. Kruse, R. Di Remigio,
    A. Alenaizan, A. M. James, S. Lehtola, J. P. Misiewicz, M. Scheurer,
    R. A. Shaw, J. B. Schriber, Y. Xie, Z. L. Glick, D. A. Sirianni,
    J. S. O'Brien, J. M. Waldrop, A. Kumar, E. G. Hohenstein,
    B. P. Pritchard, B. R. Brooks, H. F. Schaefer III, A. Yu. Sokolov,
    K. Patkowski, A. E. DePrince III, U. Bozkaya, R. A. King,
    F. A. Evangelista, J. M. Turney, T. D. Crawford, C. D. Sherrill,
    J. Chem. Phys. 152(18) 184108 (2020). https://doi.org/10.1063/5.0006002

                            Additional Code Authors
    E. T. Seidl, C. L. Janssen, E. F. Valeev, M. L. Leininger,
    J. F. Gonthier, R. M. Richard, H. R. McAlexander, M. Saitow, X. Wang,
    P. Verma, M. H. Lechner, A. Jiang, S. Behnle, A. G. Heide,
    M. F. Herbst, and D. L. Poole

             Previous Authors, Complete List of Code Contributors,
                       and Citations for Specific Modules
    https://github.com/psi4/psi4/blob/master/codemeta.json
    https://github.com/psi4/psi4/graphs/contributors
    http://psicode.org/psi4manual/master/introduction.html#citing-psifour

    -----------------------------------------------------------------------


    Psi4 started on: Monday, 22 January 2024 07:35PM

    Process ID: 2415720
    Host:       d-16-12-3
    PSIDATADIR: /home/gridsan/tfroembgen/.conda/envs/psi4test/share/psi4
    Memory:     500.0 MiB
    Threads:    12
    
  ==> Input File <==

--------------------------------------------------------------------------
memory 32 GB # how much memory is available ! Depends on the nodes/cores !

molecule dimer {
# monomer A
+1 1    # Charge and multiplicity
C  0.680067 -0.008042 -7.615929
C -0.680504 -0.006014 -7.615545
N -1.085635 -0.005016 -6.297221
C  0.000108 -0.001740 -5.515820
C -2.477365  0.044390 -5.829242
N  1.085222 -0.005016 -6.297221
H  1.385146 -0.015870 -8.433368
H -1.385302 -0.006204 -8.433214
H -0.000009  0.000007 -4.434731
C  2.478117 -0.021908 -5.832123
H  2.490592  0.005437 -4.741870
H  2.967028 -0.935354 -6.179299
H  3.001428  0.853575 -6.223595
H -2.857359  1.066461 -5.909201
H -3.082679 -0.625694 -6.442306
H -2.518128 -0.282594 -4.789294
--
# monomer B
0 1     # Charge and multiplicity
C   1.22531237526482      0.70753866091955      0.00613762728373
C   1.22532433589282     -0.70753852257020     -0.00619318228664
C   -0.00000567409046      1.41496628609039     -0.00672680580738
C   2.45644923379077      1.41832825917820      0.00902448468363
C   0.00001130712078     -1.41497612663474      0.00347275151708
C   -1.22530046906674      0.70754574598412      0.00838914760619
C   2.45643823516184     -1.41832293188077     -0.00843833914343
C   -0.00000085313587      2.83680140328112     -0.00913035594137
C   3.68182717731192      0.70931832800114     -0.00808954934571
C   2.45512052870677      2.83422403348893     -0.00819210630633
C   3.68182158506039     -0.70933346742900      0.00798293467272
C   -1.22531311884624     -0.70752714354401     -0.00512042085974
C   1.22670006104402      3.54346985599427      0.00816696660346
C   0.00000526469929     -2.83678176723568      0.00832091913869
C   -2.45643555300670      1.41831729028492      0.00842454345199
C   2.45512389762097     -2.83422965658853      0.00783102630520
C   -1.22671388474763      3.54346943575023      0.00827029982280
C   4.91451777504333      1.42717324448953     -0.00160886631602
C   3.69315067131765      3.54279566454522     -0.00155906667985
C   -2.45643712022637     -1.41831290883911     -0.00846337726810
C   1.22670532178455     -3.54347386990643     -0.00780316414624
C   -2.45512491866593      2.83421703463423     -0.00818572995999
C   4.91452486062398     -1.42718653794377      0.00136387641845
C   1.22142509354026      4.97013443726031      0.00150231067809
C   4.89300870916237      2.82518837202648     -0.00039219795739
C   -1.22669652864725     -3.54347062507680     -0.00753595973677
C   -3.68181849668397      0.70932533873199     -0.00807686886569
C   3.69314758099218     -3.54280096939050      0.00148176697923
C   -1.22143177215231      4.97012866986289      0.00168580605083
C   6.13477145276790      0.68054831910577     -0.00083909176631
C   3.65678936045204      4.97295361556775     -0.00065042889723
C   -2.45512642789169     -2.83421472106065      0.00758666850712
C   -3.68181869921921     -0.70932533146830      0.00810055625144
C   4.89301309775526     -2.82519973363176      0.00021895393805
C   -0.00000059327114      5.65044773803267      0.00045449734393
C   6.13477559217374     -0.68055448207492      0.00042622874941
C   2.47813196269732      5.65357712333155      0.00063835075260
C   1.22142288457925     -4.97012668293268     -0.00129718634452
C   -3.69316190412301      3.54279732619245     -0.00139355922051
C   -1.22142804110313     -4.97011793159564     -0.00140994817719
C   -4.91452132810043      1.42717581899491     -0.00153192130862
C   3.65678749952045     -4.97295485423912      0.00080007163680
C   -2.47813805026426      5.65357479452875      0.00092287576113
C   -3.69314125872231     -3.54278984697859      0.00136564082345
C   -4.91451200321153     -1.42718062802730      0.00139857359209
C   -0.00000552908399     -5.65043791501335      0.00005899322272
C   -4.89302000425900      2.82518897091939     -0.00040227981744
C   2.47812647313991     -5.65357317188818     -0.00029052915548
C   -3.65679823041642      4.97295655404175     -0.00047374852278
C   -4.89299899901461     -2.82519139505969      0.00006491824035
C   -2.47812801824129     -5.65356579800621     -0.00056571680280
C   -6.13477002348955      0.68054913825639     -0.00086464346868
C   -3.65678835334731     -4.97294365097028      0.00058578382008
C   -6.13476456307132     -0.68055354348201      0.00040575295444
H   5.83528897565761      3.36927626695423      0.00396712770529
H   7.07385965258860      1.22821762089947     -0.00037744837300
H   4.60066374401555      5.51238117445323     -0.00014522814529
H   5.83528386714679     -3.36930568472863     -0.00423551337640
H   -0.00001167146422      6.73853104613662     -0.00389474766392
H   7.07386165167227     -1.22822657074368     -0.00008250934481
H   2.47331421164041      6.74068466339473      0.00017162982210
H   4.60066897122302     -5.51237575717576      0.00039007446835
H   -2.47331820069565      6.74068209160650      0.00047297644710
H   -0.00000978838621     -6.73852780445195      0.00458867820736
H   -5.83530143450167      3.36927132229595      0.00410314985360
H   2.47330840367253     -6.74068500242887      0.00027980126949
H   -4.60067436136587      5.51237839860371      0.00002010017831
H   -5.83527902699321     -3.36928859177951     -0.00451481925734
H   -2.47329986759855     -6.74067870613986     -0.00016951527498
H   -7.07385728692578      1.22822084484047     -0.00046143985387
H   -4.60067330624313     -5.51236229778631      0.00021776644566
H   -7.07385645456741     -1.22822025997701     -0.00017736581114

    units angstrom      # Angstroms are the default
    no_reorient         # Geometry fixed, default
    symmetry c1         # C1 symmetry, default
}

set {
    scf_type DF         # Density fitting, faster than exact integrals
    freeze_core True    # Freeze core electrons
    basis jun-cc-pVDZ   # Jun-cc-pVDZ basis set, recommended for sSAPT0 in https://doi.org/10.1063/1.4867135
}

energy('ssapt0')        # Compute sSAPT0 energy, includes also SAPT0
--------------------------------------------------------------------------

  Memory set to  29.802 GiB by Python driver.

Scratch directory: /state/partition1/slurm_tmp/24798274.4294967291.0/
   => Loading Basis Set <=

    Name: JUN-CC-PVDZ
    Role: ORBITAL
    Keyword: BASIS
    atoms 1-2, 4-5, 10, 17-70 entry C          line   164 file /home/gridsan/tfroembgen/.conda/envs/psi4test/share/psi4/basis/jun-cc-pvdz.gbs 
    atoms 3, 6                entry N          line   198 file /home/gridsan/tfroembgen/.conda/envs/psi4test/share/psi4/basis/jun-cc-pvdz.gbs 
    atoms 7-9, 11-16, 71-88   entry H          line    36 file /home/gridsan/tfroembgen/.conda/envs/psi4test/share/psi4/basis/jun-cc-pvdz.gbs 

   => Loading Basis Set <=

    Name: JUN-CC-PVDZ
    Role: ORBITAL
    Keyword: BASIS
    atoms 1-2, 4-5, 10, 17-70 entry C          line   164 file /home/gridsan/tfroembgen/.conda/envs/psi4test/share/psi4/basis/jun-cc-pvdz.gbs 
    atoms 3, 6                entry N          line   198 file /home/gridsan/tfroembgen/.conda/envs/psi4test/share/psi4/basis/jun-cc-pvdz.gbs 
    atoms 7-9, 11-16, 71-88   entry H          line    36 file /home/gridsan/tfroembgen/.conda/envs/psi4test/share/psi4/basis/jun-cc-pvdz.gbs 


  //>>>>>>>>>>>>>>>>>>>>>>>>>>>>>>>>>>>//
  //              Dimer HF             //
  //<<<<<<<<<<<<<<<<<<<<<<<<<<<<<<<<<<<//

   => Libint2 <=

    Primary   basis highest AM E, G, H:  7, 7, 4
    Auxiliary basis highest AM E, G, H:  7, 7, 5
    Onebody   basis highest AM E, G, H:  7, 7, 5
    Solid Harmonics ordering:            gaussian

*** tstart() called on d-16-12-3
*** at Mon Jan 22 19:36:02 2024

   => Loading Basis Set <=

    Name: JUN-CC-PVDZ
    Role: ORBITAL
    Keyword: BASIS
    atoms 1-2, 4-5, 10, 17-70 entry C          line   164 file /home/gridsan/tfroembgen/.conda/envs/psi4test/share/psi4/basis/jun-cc-pvdz.gbs 
    atoms 3, 6                entry N          line   198 file /home/gridsan/tfroembgen/.conda/envs/psi4test/share/psi4/basis/jun-cc-pvdz.gbs 
    atoms 7-9, 11-16, 71-88   entry H          line    36 file /home/gridsan/tfroembgen/.conda/envs/psi4test/share/psi4/basis/jun-cc-pvdz.gbs 


         ---------------------------------------------------------
                                   SCF
               by Justin Turney, Rob Parrish, Andy Simmonett
                          and Daniel G. A. Smith
                              RHF Reference
                       12 Threads,  30517 MiB Core
         ---------------------------------------------------------

  ==> Geometry <==

    Molecular point group: c1
    Full point group: C1

    Geometry (in Angstrom), charge = 1, multiplicity = 1:

       Center              X                  Y                   Z               Mass       
    ------------   -----------------  -----------------  -----------------  -----------------
         C            0.680066520158    -0.008042372515    -6.801890538954    12.000000000000
         C           -0.680504479842    -0.006014372515    -6.801506538954    12.000000000000
         N           -1.085635479842    -0.005016372515    -5.483182538954    14.003074004430
         C            0.000107520158    -0.001740372515    -4.701781538954    12.000000000000
         C           -2.477365479842     0.044389627485    -5.015203538954    12.000000000000
         N            1.085221520158    -0.005016372515    -5.483182538954    14.003074004430
         H            1.385145520158    -0.015870372515    -7.619329538954     1.007825032230
         H           -1.385302479842    -0.006204372515    -7.619175538954     1.007825032230
         H           -0.000009479842     0.000006627485    -3.620692538954     1.007825032230
         C            2.478116520158    -0.021908372515    -5.018084538954    12.000000000000
         H            2.490591520158     0.005436627485    -3.927831538954     1.007825032230
         H            2.967027520158    -0.935354372515    -5.365260538954     1.007825032230
         H            3.001427520158     0.853574627485    -5.409556538954     1.007825032230
         H           -2.857359479842     1.066460627485    -5.095162538954     1.007825032230
         H           -3.082679479842    -0.625694372515    -5.628267538954     1.007825032230
         H           -2.518128479842    -0.282594372515    -3.975255538954     1.007825032230
         C            1.225311895423     0.707538288405     0.820176088329    12.000000000000
         C            1.225323856051    -0.707538895085     0.807845278759    12.000000000000
         C           -0.000006153932     1.414965913575     0.807311655238    12.000000000000
         C            2.456448753949     1.418327886663     0.823062945729    12.000000000000
         C            0.000010827279    -1.414976499150     0.817511212563    12.000000000000
         C           -1.225300948908     0.707545373469     0.822427608652    12.000000000000
         C            2.456437755320    -1.418323304396     0.805600121902    12.000000000000
         C           -0.000001332978     2.836801030766     0.804908105104    12.000000000000
         C            3.681826697470     0.709317955486     0.805948911700    12.000000000000
         C            2.455120048865     2.834223660974     0.805846354739    12.000000000000
         C            3.681821105219    -0.709333839944     0.822021395718    12.000000000000
         C           -1.225313598688    -0.707527516059     0.808918040186    12.000000000000
         C            1.226699581202     3.543469483479     0.822205427649    12.000000000000
         C            0.000004784858    -2.836782139751     0.822359380184    12.000000000000
         C           -2.456436032848     1.418316917770     0.822463004498    12.000000000000
         C            2.455123417779    -2.834230029103     0.821869487351    12.000000000000
         C           -1.226714364589     3.543469063235     0.822308760868    12.000000000000
         C            4.914517295202     1.427172871975     0.812429594730    12.000000000000
         C            3.693150191476     3.542795292030     0.812479394366    12.000000000000
         C           -2.456437600068    -1.418313281354     0.805575083777    12.000000000000
         C            1.226704841943    -3.543474242421     0.806235296899    12.000000000000
         C           -2.455125398508     2.834216662119     0.805852731086    12.000000000000
         C            4.914524380782    -1.427186910459     0.815402337464    12.000000000000
         C            1.221424613699     4.970134064745     0.815540771724    12.000000000000
         C            4.893008229321     2.825187999512     0.813646263088    12.000000000000
         C           -1.226697008489    -3.543470997592     0.806502501309    12.000000000000
         C           -3.681818976526     0.709324966217     0.805961592180    12.000000000000
         C            3.693147101150    -3.542801341905     0.815520228025    12.000000000000
         C           -1.221432251994     4.970128297348     0.815724267096    12.000000000000
         C            6.134770972926     0.680547946591     0.813199369279    12.000000000000
         C            3.656788880610     4.972953243053     0.813388032148    12.000000000000
         C           -2.455126907733    -2.834215093576     0.821625129553    12.000000000000
         C           -3.681819179061    -0.709325703983     0.822139017297    12.000000000000
         C            4.893012617914    -2.825200106147     0.814257414984    12.000000000000
         C           -0.000001073113     5.650447365518     0.814492958389    12.000000000000
         C            6.134775112332    -0.680554854590     0.814464689795    12.000000000000
         C            2.478131482856     5.653576750817     0.814676811798    12.000000000000
         C            1.221422404738    -4.970127055448     0.812741274701    12.000000000000
         C           -3.693162383965     3.542796953677     0.812644901825    12.000000000000
         C           -1.221428520945    -4.970118304111     0.812628512868    12.000000000000
         C           -4.914521807942     1.427175446480     0.812506539737    12.000000000000
         C            3.656787019679    -4.972955226754     0.814838532682    12.000000000000
         C           -2.478138530106     5.653574422014     0.814961336807    12.000000000000
         C           -3.693141738564    -3.542790219494     0.815404101869    12.000000000000
         C           -4.914512483053    -1.427181000542     0.815437034638    12.000000000000
         C           -0.000006008926    -5.650438287528     0.814097454268    12.000000000000
         C           -4.893020484101     2.825188598404     0.813636181228    12.000000000000
         C            2.478125993298    -5.653573544403     0.813747931890    12.000000000000
         C           -3.656798710258     4.972956181527     0.813564712523    12.000000000000
         C           -4.892999478856    -2.825191767575     0.814103379286    12.000000000000
         C           -2.478128498083    -5.653566170521     0.813472744243    12.000000000000
         C           -6.134770503331     0.680548765741     0.813173817577    12.000000000000
         C           -3.656788833189    -4.972944023485     0.814624244866    12.000000000000
         C           -6.134765042913    -0.680553915997     0.814444214000    12.000000000000
         H            5.835288495816     3.369275894439     0.818005588751     1.007825032230
         H            7.073859172747     1.228217248385     0.813661012673     1.007825032230
         H            4.600663264174     5.512380801938     0.813893232900     1.007825032230
         H            5.835283387305    -3.369306057244     0.809802947669     1.007825032230
         H           -0.000012151306     6.738530673622     0.810143713382     1.007825032230
         H            7.073861171831    -1.228226943259     0.813955951701     1.007825032230
         H            2.473313731799     6.740684290880     0.814210090868     1.007825032230
         H            4.600668491381    -5.512376129691     0.814428535514     1.007825032230
         H           -2.473318680537     6.740681719092     0.814511437493     1.007825032230
         H           -0.000010268228    -6.738528176967     0.818627139253     1.007825032230
         H           -5.835301914343     3.369270949781     0.818141610899     1.007825032230
         H            2.473307923831    -6.740685374944     0.814318262315     1.007825032230
         H           -4.600674841208     5.512378026089     0.814058561224     1.007825032230
         H           -5.835279506835    -3.369288964294     0.809523641788     1.007825032230
         H           -2.473300347440    -6.740679078655     0.813868945771     1.007825032230
         H           -7.073857766768     1.228220472326     0.813577021192     1.007825032230
         H           -4.600673786085    -5.512362670301     0.814256227491     1.007825032230
         H           -7.073856934409    -1.228220632492     0.813861095234     1.007825032230

  Running in c1 symmetry.

  Rotational constants: A =      0.00151  B =      0.00148  C =      0.00109 [cm^-1]
  Rotational constants: A =     45.33912  B =     44.38619  C =     32.71081 [MHz]
  Nuclear repulsion = 7968.918960261629763

  Charge       = 1
  Multiplicity = 1
  Electrons    = 394
  Nalpha       = 197
  Nbeta        = 197

  ==> Algorithm <==

  SCF Algorithm Type is DF.
  DIIS enabled.
  MOM disabled.
  Fractional occupation disabled.
  Guess Type is SAD.
  Energy threshold   = 1.00e-08
  Density threshold  = 1.00e-08
  Integral threshold = 1.00e-12

  ==> Primary Basis <==

  Basis Set: JUN-CC-PVDZ
    Blend: JUN-CC-PVDZ
    Number of shells: 569
    Number of basis functions: 1233
    Number of Cartesian functions: 1294
    Spherical Harmonics?: true
    Max angular momentum: 2

   => Loading Basis Set <=

    Name: (JUN-CC-PVDZ AUX)
    Role: JKFIT
    Keyword: DF_BASIS_SCF
    atoms 1-2, 4-5, 10, 17-70 entry C          line   146 file /home/gridsan/tfroembgen/.conda/envs/psi4test/share/psi4/basis/jun-cc-pvdz-jkfit.gbs 
    atoms 3, 6                entry N          line   202 file /home/gridsan/tfroembgen/.conda/envs/psi4test/share/psi4/basis/jun-cc-pvdz-jkfit.gbs 
    atoms 7-9, 11-16, 71-88   entry H          line    70 file /home/gridsan/tfroembgen/.conda/envs/psi4test/share/psi4/basis/jun-cc-pvdz-jkfit.gbs 

  ==> Integral Setup <==

  ==> DiskDFJK: Density-Fitted J/K Matrices <==

    J tasked:                  Yes
    K tasked:                  Yes
    wK tasked:                  No
    OpenMP threads:             12
    Integrals threads:          12
    Memory [MiB]:            22888
    Algorithm:                Disk
    Integral Cache:           SAVE
    Schwarz Cutoff:          1E-12
    Fitting Condition:       1E-10

   => Auxiliary Basis Set <=

  Basis Set: (JUN-CC-PVDZ AUX)
    Blend: JUN-CC-PVDZ-JKFIT
    Number of shells: 1890
    Number of basis functions: 5440
    Number of Cartesian functions: 6226
    Spherical Harmonics?: true
    Max angular momentum: 3

  Minimum eigenvalue in the overlap matrix is 8.3138635787E-10.
  Reciprocal condition number of the overlap matrix is 3.7024358678E-11.
    Using canonical orthogonalization.
  Overall, 14 of 1233 possible MOs eliminated.


  ==> Pre-Iterations <==

  SCF Guess: Superposition of Atomic Densities via on-the-fly atomic UHF (no occupation information).

   -------------------------
    Irrep   Nso     Nmo    
   -------------------------
     A       1233    1219 
   -------------------------
    Total    1233    1219
   -------------------------

  ==> Iterations <==

                           Total Energy        Delta E     RMS |[F,P]|

   @DF-RHF iter SAD: -2365.39921542086267   -2.36540e+03   0.00000e+00 
   @DF-RHF iter   1: -2358.19969569397517    7.19952e+00   9.45846e-04 DIIS/ADIIS
   @DF-RHF iter   2: -2359.09697134045973   -8.97276e-01   3.20810e-04 DIIS/ADIIS
   @DF-RHF iter   3: -2359.18745873302305   -9.04874e-02   1.17134e-04 DIIS/ADIIS
   @DF-RHF iter   4: -2359.20039321832519   -1.29345e-02   4.29961e-05 DIIS
   @DF-RHF iter   5: -2359.20219245275712   -1.79923e-03   9.10523e-06 DIIS
   @DF-RHF iter   6: -2359.20236032063076   -1.67868e-04   4.59835e-06 DIIS
   @DF-RHF iter   7: -2359.20242155888263   -6.12383e-05   2.10942e-06 DIIS
   @DF-RHF iter   8: -2359.20244010058150   -1.85417e-05   1.15414e-06 DIIS
   @DF-RHF iter   9: -2359.20244429840841   -4.19783e-06   2.68502e-07 DIIS
   @DF-RHF iter  10: -2359.20244453880969   -2.40401e-07   9.10986e-08 DIIS
   @DF-RHF iter  11: -2359.20244455687043   -1.80607e-08   3.36421e-08 DIIS
   @DF-RHF iter  12: -2359.20244456054843   -3.67800e-09   1.48807e-08 DIIS
   @DF-RHF iter  13: -2359.20244456108367   -5.35238e-10   6.19342e-09 DIIS
  Energy and wave function converged.


  ==> Post-Iterations <==

    Orbital Energies [Eh]
    ---------------------

    Doubly Occupied:                                                      

       1A    -15.819286     2A    -15.818775     3A    -11.513775  
       4A    -11.446170     5A    -11.444614     6A    -11.434033  
       7A    -11.433942     8A    -11.328514     9A    -11.328060  
      10A    -11.327983    11A    -11.327023    12A    -11.326934  
      13A    -11.326487    14A    -11.325073    15A    -11.325057  
      16A    -11.324980    17A    -11.324970    18A    -11.324636  
      19A    -11.324579    20A    -11.323150    21A    -11.323141  
      22A    -11.322774    23A    -11.322739    24A    -11.322701  
      25A    -11.322658    26A    -11.322496    27A    -11.322487  
      28A    -11.322084    29A    -11.322066    30A    -11.322003  
      31A    -11.321990    32A    -11.321834    33A    -11.321828  
      34A    -11.321477    35A    -11.321468    36A    -11.321445  
      37A    -11.321434    38A    -11.321423    39A    -11.321412  
      40A    -11.320968    41A    -11.320956    42A    -11.320953  
      43A    -11.320948    44A    -11.314699    45A    -11.314698  
      46A    -11.314652    47A    -11.314648    48A    -11.314159  
      49A    -11.314123    50A    -11.314004    51A    -11.314000  
      52A    -11.313273    53A    -11.313262    54A    -11.313257  
      55A    -11.313254    56A    -11.312570    57A    -11.312566  
      58A    -11.311835    59A    -11.311826    60A    -11.311819  
      61A    -11.311818    62A     -1.563160    63A     -1.418628  
      64A     -1.310704    65A     -1.285222    66A     -1.284832  
      67A     -1.253927    68A     -1.253887    69A     -1.246504  
      70A     -1.223953    71A     -1.221057    72A     -1.213127  
      73A     -1.200765    74A     -1.200419    75A     -1.176583  
      76A     -1.176528    77A     -1.173956    78A     -1.147073  
      79A     -1.147046    80A     -1.143317    81A     -1.129106  
      82A     -1.129087    83A     -1.103512    84A     -1.103095  
      85A     -1.089537    86A     -1.087208    87A     -1.087002  
      88A     -1.080971    89A     -1.075642    90A     -1.051419  
      91A     -1.051289    92A     -1.025277    93A     -1.025225  
      94A     -1.007866    95A     -0.981588    96A     -0.957936  
      97A     -0.957833    98A     -0.953138    99A     -0.951291  
     100A     -0.951069   101A     -0.945848   102A     -0.945745  
     103A     -0.925213   104A     -0.901793   105A     -0.899612  
     106A     -0.881746   107A     -0.881321   108A     -0.876473  
     109A     -0.876285   110A     -0.857551   111A     -0.857537  
     112A     -0.835409   113A     -0.811323   114A     -0.809254  
     115A     -0.801739   116A     -0.797892   117A     -0.797647  
     118A     -0.797199   119A     -0.795167   120A     -0.795052  
     121A     -0.780372   122A     -0.775367   123A     -0.771040  
     124A     -0.767650   125A     -0.762431   126A     -0.762172  
     127A     -0.757447   128A     -0.757184   129A     -0.724006  
     130A     -0.717110   131A     -0.715633   132A     -0.713869  
     133A     -0.712956   134A     -0.712881   135A     -0.710085  
     136A     -0.702534   137A     -0.702404   138A     -0.702010  
     139A     -0.693570   140A     -0.691421   141A     -0.691392  
     142A     -0.673985   143A     -0.666842   144A     -0.665860  
     145A     -0.662873   146A     -0.662552   147A     -0.657653  
     148A     -0.656072   149A     -0.655840   150A     -0.647116  
     151A     -0.642315   152A     -0.641668   153A     -0.630260  
     154A     -0.630035   155A     -0.629774   156A     -0.629668  
     157A     -0.622766   158A     -0.617521   159A     -0.617276  
     160A     -0.602760   161A     -0.602668   162A     -0.601284  
     163A     -0.601243   164A     -0.594283   165A     -0.593082  
     166A     -0.586287   167A     -0.586016   168A     -0.581471  
     169A     -0.562975   170A     -0.558993   171A     -0.556063  
     172A     -0.551957   173A     -0.549059   174A     -0.545264  
     175A     -0.545185   176A     -0.536119   177A     -0.535607  
     178A     -0.515842   179A     -0.515608   180A     -0.509728  
     181A     -0.502238   182A     -0.502182   183A     -0.469734  
     184A     -0.469691   185A     -0.468473   186A     -0.438220  
     187A     -0.438154   188A     -0.413007   189A     -0.404033  
     190A     -0.403267   191A     -0.402965   192A     -0.374522  
     193A     -0.360215   194A     -0.349565   195A     -0.349457  
     196A     -0.288816   197A     -0.288658  

    Virtual:                                                              

     198A     -0.053349   199A     -0.049927   200A     -0.049653  
     201A     -0.048777   202A     -0.042266   203A     -0.032595  
     204A     -0.020329   205A     -0.018805   206A     -0.016393  
     207A     -0.007649   208A     -0.005124   209A     -0.002405  
     210A     -0.000168   211A     -0.000000   212A      0.000512  
     213A      0.001602   214A      0.002417   215A      0.006096  
     216A      0.008519   217A      0.009106   218A      0.011063  
     219A      0.012363   220A      0.015387   221A      0.016303  
     222A      0.022659   223A      0.023208   224A      0.023468  
     225A      0.024998   226A      0.025092   227A      0.026057  
     228A      0.027431   229A      0.031974   230A      0.032911  
     231A      0.037125   232A      0.037309   233A      0.040079  
     234A      0.040218   235A      0.041417   236A      0.042558  
     237A      0.048803   238A      0.053466   239A      0.054380  
     240A      0.055790   241A      0.056316   242A      0.057922  
     243A      0.059375   244A      0.059567   245A      0.059658  
     246A      0.063398   247A      0.065536   248A      0.067562  
     249A      0.072487   250A      0.076057   251A      0.076523  
     252A      0.078083   253A      0.078964   254A      0.082144  
     255A      0.082648   256A      0.082901   257A      0.084870  
     258A      0.086997   259A      0.088643   260A      0.094644  
     261A      0.095253   262A      0.095372   263A      0.096684  
     264A      0.098368   265A      0.103241   266A      0.104233  
     267A      0.105403   268A      0.106660   269A      0.107839  
     270A      0.109444   271A      0.112576   272A      0.117343  
     273A      0.119255   274A      0.121808   275A      0.125662  
     276A      0.126641   277A      0.127440   278A      0.128095  
     279A      0.128438   280A      0.129864   281A      0.131489  
     282A      0.132660   283A      0.133921   284A      0.134926  
     285A      0.135481   286A      0.136787   287A      0.141709  
     288A      0.143443   289A      0.146739   290A      0.147725  
     291A      0.148857   292A      0.149648   293A      0.153867  
     294A      0.154625   295A      0.157505   296A      0.157545  
     297A      0.158186   298A      0.158760   299A      0.159070  
     300A      0.160464   301A      0.160734   302A      0.163200  
     303A      0.164368   304A      0.165664   305A      0.165854  
     306A      0.167980   307A      0.171505   308A      0.172571  
     309A      0.173139   310A      0.174016   311A      0.174223  
     312A      0.175772   313A      0.176783   314A      0.177717  
     315A      0.178034   316A      0.178518   317A      0.179496  
     318A      0.182773   319A      0.183298   320A      0.184835  
     321A      0.187011   322A      0.190560   323A      0.193369  
     324A      0.195282   325A      0.197093   326A      0.198685  
     327A      0.200598   328A      0.200696   329A      0.200902  
     330A      0.203287   331A      0.203746   332A      0.208388  
     333A      0.208462   334A      0.210030   335A      0.211651  
     336A      0.213036   337A      0.213466   338A      0.213511  
     339A      0.214397   340A      0.215947   341A      0.216190  
     342A      0.220905   343A      0.225321   344A      0.226737  
     345A      0.227517   346A      0.230362   347A      0.232569  
     348A      0.235824   349A      0.238619   350A      0.241323  
     351A      0.241743   352A      0.243611   353A      0.244957  
     354A      0.245064   355A      0.247024   356A      0.247335  
     357A      0.248726   358A      0.250123   359A      0.250922  
     360A      0.251134   361A      0.251403   362A      0.252497  
     363A      0.253731   364A      0.254184   365A      0.255556  
     366A      0.256171   367A      0.257236   368A      0.258752  
     369A      0.261462   370A      0.262795   371A      0.263249  
     372A      0.263433   373A      0.265852   374A      0.269324  
     375A      0.271555   376A      0.272847   377A      0.273683  
     378A      0.275979   379A      0.278958   380A      0.279461  
     381A      0.282893   382A      0.283844   383A      0.286517  
     384A      0.287449   385A      0.288428   386A      0.290277  
     387A      0.292785   388A      0.293284   389A      0.293846  
     390A      0.294251   391A      0.294860   392A      0.296275  
     393A      0.298524   394A      0.300794   395A      0.303479  
     396A      0.304731   397A      0.305374   398A      0.307407  
     399A      0.308746   400A      0.312403   401A      0.312819  
     402A      0.313202   403A      0.314764   404A      0.320092  
     405A      0.322659   406A      0.323425   407A      0.324685  
     408A      0.325378   409A      0.328742   410A      0.329069  
     411A      0.329341   412A      0.329818   413A      0.331272  
     414A      0.333569   415A      0.334865   416A      0.336152  
     417A      0.336360   418A      0.337114   419A      0.340660  
     420A      0.341970   421A      0.344127   422A      0.345536  
     423A      0.346102   424A      0.347134   425A      0.347329  
     426A      0.349070   427A      0.349911   428A      0.351902  
     429A      0.356310   430A      0.357378   431A      0.358481  
     432A      0.360522   433A      0.361703   434A      0.362208  
     435A      0.362850   436A      0.367620   437A      0.370602  
     438A      0.374292   439A      0.374687   440A      0.377232  
     441A      0.379016   442A      0.379791   443A      0.381942  
     444A      0.383252   445A      0.384648   446A      0.385676  
     447A      0.387681   448A      0.388988   449A      0.390760  
     450A      0.392599   451A      0.393370   452A      0.393515  
     453A      0.396452   454A      0.398093   455A      0.399287  
     456A      0.399564   457A      0.401173   458A      0.402266  
     459A      0.405846   460A      0.408684   461A      0.411345  
     462A      0.412262   463A      0.415468   464A      0.416961  
     465A      0.418869   466A      0.419879   467A      0.422993  
     468A      0.423880   469A      0.425528   470A      0.432296  
     471A      0.432386   472A      0.433754   473A      0.434535  
     474A      0.436199   475A      0.436823   476A      0.438768  
     477A      0.439285   478A      0.445165   479A      0.447210  
     480A      0.448289   481A      0.450019   482A      0.450964  
     483A      0.451988   484A      0.456132   485A      0.457035  
     486A      0.462817   487A      0.464132   488A      0.464486  
     489A      0.469787   490A      0.475765   491A      0.476980  
     492A      0.478972   493A      0.480349   494A      0.485455  
     495A      0.486629   496A      0.487735   497A      0.488287  
     498A      0.488537   499A      0.488956   500A      0.492480  
     501A      0.493263   502A      0.494260   503A      0.495028  
     504A      0.496764   505A      0.500202   506A      0.501594  
     507A      0.506599   508A      0.508306   509A      0.520948  
     510A      0.524162   511A      0.524697   512A      0.534019  
     513A      0.534236   514A      0.534636   515A      0.535234  
     516A      0.548678   517A      0.550695   518A      0.552237  
     519A      0.557428   520A      0.558957   521A      0.564387  
     522A      0.564523   523A      0.580343   524A      0.585031  
     525A      0.587749   526A      0.591306   527A      0.602525  
     528A      0.604250   529A      0.607009   530A      0.610026  
     531A      0.614595   532A      0.614874   533A      0.621316  
     534A      0.646752   535A      0.653319   536A      0.653590  
     537A      0.661607   538A      0.671136   539A      0.675564  
     540A      0.676670   541A      0.678249   542A      0.680774  
     543A      0.681766   544A      0.681943   545A      0.684600  
     546A      0.692614   547A      0.694561   548A      0.697006  
     549A      0.705442   550A      0.708185   551A      0.712031  
     552A      0.714624   553A      0.721933   554A      0.723661  
     555A      0.728918   556A      0.732563   557A      0.734249  
     558A      0.738201   559A      0.742984   560A      0.744858  
     561A      0.748408   562A      0.751899   563A      0.754586  
     564A      0.755327   565A      0.756610   566A      0.763030  
     567A      0.765962   568A      0.766519   569A      0.767764  
     570A      0.768902   571A      0.776733   572A      0.781334  
     573A      0.783899   574A      0.786636   575A      0.790715  
     576A      0.796110   577A      0.797553   578A      0.799000  
     579A      0.800115   580A      0.801803   581A      0.802945  
     582A      0.804697   583A      0.806819   584A      0.813351  
     585A      0.815672   586A      0.816250   587A      0.816523  
     588A      0.821861   589A      0.824155   590A      0.826480  
     591A      0.828625   592A      0.835829   593A      0.836070  
     594A      0.838129   595A      0.841556   596A      0.842906  
     597A      0.846660   598A      0.847587   599A      0.848206  
     600A      0.849556   601A      0.851510   602A      0.853876  
     603A      0.857654   604A      0.860043   605A      0.860817  
     606A      0.863953   607A      0.865396   608A      0.866772  
     609A      0.870262   610A      0.871564   611A      0.872511  
     612A      0.873694   613A      0.877248   614A      0.880676  
     615A      0.882753   616A      0.883704   617A      0.884512  
     618A      0.888084   619A      0.892908   620A      0.895297  
     621A      0.898531   622A      0.899982   623A      0.903662  
     624A      0.908918   625A      0.909811   626A      0.910392  
     627A      0.910837   628A      0.911045   629A      0.911711  
     630A      0.915117   631A      0.917348   632A      0.918791  
     633A      0.922613   634A      0.924999   635A      0.925779  
     636A      0.929055   637A      0.932213   638A      0.936580  
     639A      0.937737   640A      0.944401   641A      0.950247  
     642A      0.954410   643A      0.955317   644A      0.957596  
     645A      0.957801   646A      0.964763   647A      0.968845  
     648A      0.969345   649A      0.970509   650A      0.972653  
     651A      0.975535   652A      0.976653   653A      0.977164  
     654A      0.979001   655A      0.979777   656A      0.981347  
     657A      0.982831   658A      0.982951   659A      0.985986  
     660A      0.986296   661A      0.989284   662A      0.990571  
     663A      0.992580   664A      0.995293   665A      0.996952  
     666A      0.998381   667A      0.998668   668A      1.002513  
     669A      1.004748   670A      1.007745   671A      1.009394  
     672A      1.010789   673A      1.012274   674A      1.013286  
     675A      1.015756   676A      1.020346   677A      1.021381  
     678A      1.022424   679A      1.022880   680A      1.028043  
     681A      1.028924   682A      1.031064   683A      1.034237  
     684A      1.036393   685A      1.041402   686A      1.042109  
     687A      1.049122   688A      1.050479   689A      1.051879  
     690A      1.053269   691A      1.053584   692A      1.054688  
     693A      1.055121   694A      1.057542   695A      1.059393  
     696A      1.062094   697A      1.062891   698A      1.070117  
     699A      1.071370   700A      1.072941   701A      1.074826  
     702A      1.076389   703A      1.077147   704A      1.078458  
     705A      1.080843   706A      1.081494   707A      1.083442  
     708A      1.092805   709A      1.105373   710A      1.109069  
     711A      1.110385   712A      1.113606   713A      1.114389  
     714A      1.115590   715A      1.116599   716A      1.121126  
     717A      1.123183   718A      1.124996   719A      1.133388  
     720A      1.134543   721A      1.136425   722A      1.137656  
     723A      1.147878   724A      1.150203   725A      1.155731  
     726A      1.156473   727A      1.157814   728A      1.157997  
     729A      1.160345   730A      1.161593   731A      1.165070  
     732A      1.168173   733A      1.177792   734A      1.178274  
     735A      1.180736   736A      1.196856   737A      1.199194  
     738A      1.200024   739A      1.200202   740A      1.201080  
     741A      1.203093   742A      1.204653   743A      1.204786  
     744A      1.205963   745A      1.206486   746A      1.215924  
     747A      1.225280   748A      1.232717   749A      1.234339  
     750A      1.235822   751A      1.237550   752A      1.239452  
     753A      1.242289   754A      1.247675   755A      1.247790  
     756A      1.248215   757A      1.251853   758A      1.257299  
     759A      1.258492   760A      1.261809   761A      1.263631  
     762A      1.266727   763A      1.266925   764A      1.275334  
     765A      1.278352   766A      1.279518   767A      1.282236  
     768A      1.286566   769A      1.290252   770A      1.290538  
     771A      1.291129   772A      1.295882   773A      1.295944  
     774A      1.297333   775A      1.298491   776A      1.305020  
     777A      1.315306   778A      1.318634   779A      1.320722  
     780A      1.328200   781A      1.338039   782A      1.339798  
     783A      1.343541   784A      1.344315   785A      1.344886  
     786A      1.348049   787A      1.350229   788A      1.353427  
     789A      1.355301   790A      1.358578   791A      1.361846  
     792A      1.364531   793A      1.364649   794A      1.369733  
     795A      1.373447   796A      1.374311   797A      1.374732  
     798A      1.377123   799A      1.377805   800A      1.379226  
     801A      1.384198   802A      1.386293   803A      1.387308  
     804A      1.389259   805A      1.390407   806A      1.399254  
     807A      1.402050   808A      1.412619   809A      1.413615  
     810A      1.449676   811A      1.453761   812A      1.455198  
     813A      1.457023   814A      1.457506   815A      1.472468  
     816A      1.487961   817A      1.489528   818A      1.497420  
     819A      1.512729   820A      1.525863   821A      1.534656  
     822A      1.535838   823A      1.537036   824A      1.540120  
     825A      1.543344   826A      1.545589   827A      1.545790  
     828A      1.546307   829A      1.547416   830A      1.551977  
     831A      1.557784   832A      1.558059   833A      1.565044  
     834A      1.569093   835A      1.576506   836A      1.577002  
     837A      1.578691   838A      1.579191   839A      1.579335  
     840A      1.580769   841A      1.584131   842A      1.589748  
     843A      1.597656   844A      1.598003   845A      1.604675  
     846A      1.610661   847A      1.610912   848A      1.612389  
     849A      1.613685   850A      1.613968   851A      1.620801  
     852A      1.622399   853A      1.622871   854A      1.626395  
     855A      1.632864   856A      1.634918   857A      1.635852  
     858A      1.636404   859A      1.637992   860A      1.639175  
     861A      1.639381   862A      1.639449   863A      1.652871  
     864A      1.653502   865A      1.677799   866A      1.684844  
     867A      1.687068   868A      1.688980   869A      1.698306  
     870A      1.698686   871A      1.699009   872A      1.699981  
     873A      1.704275   874A      1.713466   875A      1.713574  
     876A      1.725361   877A      1.728480   878A      1.728598  
     879A      1.752585   880A      1.753994   881A      1.755713  
     882A      1.755921   883A      1.759824   884A      1.759992  
     885A      1.762272   886A      1.765390   887A      1.767921  
     888A      1.771565   889A      1.774745   890A      1.776905  
     891A      1.777829   892A      1.779334   893A      1.781400  
     894A      1.798673   895A      1.799298   896A      1.799745  
     897A      1.799948   898A      1.801510   899A      1.806135  
     900A      1.809152   901A      1.813229   902A      1.815402  
     903A      1.815551   904A      1.828746   905A      1.832466  
     906A      1.833061   907A      1.834769   908A      1.837759  
     909A      1.840539   910A      1.841412   911A      1.841674  
     912A      1.845073   913A      1.847122   914A      1.852569  
     915A      1.853764   916A      1.853894   917A      1.854132  
     918A      1.855284   919A      1.858058   920A      1.858544  
     921A      1.866325   922A      1.877077   923A      1.878989  
     924A      1.880801   925A      1.881745   926A      1.883065  
     927A      1.886536   928A      1.886980   929A      1.889589  
     930A      1.891497   931A      1.891824   932A      1.893260  
     933A      1.894315   934A      1.901393   935A      1.911135  
     936A      1.918290   937A      1.919132   938A      1.920904  
     939A      1.921631   940A      1.931320   941A      1.933843  
     942A      1.936495   943A      1.936664   944A      1.944655  
     945A      1.947318   946A      1.950593   947A      1.950849  
     948A      1.963518   949A      1.966134   950A      1.967446  
     951A      1.967822   952A      1.968473   953A      1.968769  
     954A      1.969233   955A      1.976941   956A      1.986391  
     957A      1.989074   958A      1.989508   959A      1.993445  
     960A      1.994300   961A      1.995549   962A      1.997510  
     963A      2.000397   964A      2.006228   965A      2.007215  
     966A      2.009539   967A      2.009671   968A      2.013252  
     969A      2.014922   970A      2.019029   971A      2.021842  
     972A      2.022434   973A      2.031128   974A      2.032230  
     975A      2.034135   976A      2.035822   977A      2.036151  
     978A      2.037721   979A      2.037845   980A      2.044991  
     981A      2.045800   982A      2.046584   983A      2.047369  
     984A      2.049060   985A      2.052435   986A      2.054233  
     987A      2.056488   988A      2.056766   989A      2.057104  
     990A      2.057514   991A      2.063408   992A      2.064026  
     993A      2.066266   994A      2.070856   995A      2.071323  
     996A      2.073521   997A      2.074072   998A      2.080366  
     999A      2.080659  1000A      2.087638  1001A      2.093973  
    1002A      2.095236  1003A      2.095756  1004A      2.099150  
    1005A      2.099539  1006A      2.106345  1007A      2.115261  
    1008A      2.116654  1009A      2.128066  1010A      2.128223  
    1011A      2.129306  1012A      2.129469  1013A      2.129938  
    1014A      2.130168  1015A      2.134134  1016A      2.134530  
    1017A      2.154985  1018A      2.155424  1019A      2.155826  
    1020A      2.156201  1021A      2.162574  1022A      2.164833  
    1023A      2.165400  1024A      2.166039  1025A      2.173468  
    1026A      2.179760  1027A      2.182519  1028A      2.182716  
    1029A      2.182856  1030A      2.182951  1031A      2.186034  
    1032A      2.198503  1033A      2.198789  1034A      2.207176  
    1035A      2.207480  1036A      2.209930  1037A      2.210458  
    1038A      2.215060  1039A      2.220066  1040A      2.238166  
    1041A      2.241801  1042A      2.244016  1043A      2.246364  
    1044A      2.248645  1045A      2.257793  1046A      2.261018  
    1047A      2.265372  1048A      2.265435  1049A      2.266808  
    1050A      2.269520  1051A      2.270657  1052A      2.286579  
    1053A      2.287208  1054A      2.288988  1055A      2.289436  
    1056A      2.302026  1057A      2.302219  1058A      2.309383  
    1059A      2.314164  1060A      2.318614  1061A      2.348793  
    1062A      2.353594  1063A      2.358608  1064A      2.360339  
    1065A      2.360759  1066A      2.361158  1067A      2.373877  
    1068A      2.377217  1069A      2.377705  1070A      2.406697  
    1071A      2.410045  1072A      2.410952  1073A      2.422583  
    1074A      2.422977  1075A      2.438860  1076A      2.457208  
    1077A      2.464001  1078A      2.466170  1079A      2.466954  
    1080A      2.480733  1081A      2.483027  1082A      2.483491  
    1083A      2.484647  1084A      2.489615  1085A      2.493010  
    1086A      2.493776  1087A      2.496473  1088A      2.496742  
    1089A      2.509278  1090A      2.509378  1091A      2.513394  
    1092A      2.513662  1093A      2.514174  1094A      2.523227  
    1095A      2.523361  1096A      2.523595  1097A      2.526809  
    1098A      2.530158  1099A      2.545121  1100A      2.561283  
    1101A      2.561964  1102A      2.564696  1103A      2.567533  
    1104A      2.567960  1105A      2.579189  1106A      2.579216  
    1107A      2.589053  1108A      2.589299  1109A      2.592450  
    1110A      2.594876  1111A      2.618250  1112A      2.619453  
    1113A      2.620933  1114A      2.623146  1115A      2.626849  
    1116A      2.636864  1117A      2.636955  1118A      2.648456  
    1119A      2.648840  1120A      2.654428  1121A      2.654824  
    1122A      2.659380  1123A      2.659590  1124A      2.661461  
    1125A      2.675132  1126A      2.679882  1127A      2.690034  
    1128A      2.691102  1129A      2.703236  1130A      2.711998  
    1131A      2.713844  1132A      2.715509  1133A      2.725950  
    1134A      2.730603  1135A      2.730888  1136A      2.752890  
    1137A      2.754115  1138A      2.762510  1139A      2.765100  
    1140A      2.766184  1141A      2.788800  1142A      2.790101  
    1143A      2.790307  1144A      2.792657  1145A      2.795981  
    1146A      2.796297  1147A      2.806569  1148A      2.822771  
    1149A      2.855638  1150A      2.855966  1151A      2.862745  
    1152A      2.871338  1153A      2.871853  1154A      2.886859  
    1155A      2.887002  1156A      2.901342  1157A      2.930583  
    1158A      2.944224  1159A      2.947344  1160A      2.950448  
    1161A      2.967803  1162A      2.990967  1163A      2.999445  
    1164A      2.999597  1165A      3.006813  1166A      3.007454  
    1167A      3.047150  1168A      3.047903  1169A      3.063645  
    1170A      3.066713  1171A      3.067338  1172A      3.067915  
    1173A      3.074712  1174A      3.078251  1175A      3.084056  
    1176A      3.084573  1177A      3.085464  1178A      3.086999  
    1179A      3.087492  1180A      3.095640  1181A      3.096725  
    1182A      3.103675  1183A      3.104950  1184A      3.130077  
    1185A      3.149324  1186A      3.155626  1187A      3.175098  
    1188A      3.210120  1189A      3.213408  1190A      3.213644  
    1191A      3.218344  1192A      3.218796  1193A      3.351947  
    1194A      3.352371  1195A      3.373964  1196A      3.416460  
    1197A      3.418920  1198A      3.454375  1199A      3.484581  
    1200A      3.511733  1201A      3.513614  1202A      3.528791  
    1203A      3.542599  1204A      3.562763  1205A      3.564911  
    1206A      3.599464  1207A      3.606846  1208A      3.704962  
    1209A      3.718112  1210A      3.718780  1211A      3.808054  
    1212A      3.808353  1213A      3.849743  1214A      3.850224  
    1215A      3.912049  1216A      3.945925  1217A      3.966757  
    1218A      3.979005  1219A      4.016576  

    Final Occupation by Irrep:
              A 
    DOCC [   197 ]
    NA   [   197 ]
    NB   [   197 ]

  @DF-RHF Final Energy: -2359.20244456108367

   => Energetics <=

    Nuclear Repulsion Energy =           7968.9189602616297634
    One-Electron Energy =              -19041.4234371015299985
    Two-Electron Energy =                8713.3020322788161138
    Total Energy =                      -2359.2024445610841212

Computation Completed


Properties will be evaluated at   0.000000,   0.000000,   0.000000 [a0]

Properties computed using the SCF density matrix


 Multipole Moments:

 ------------------------------------------------------------------------------------
     Multipole            Electronic (a.u.)      Nuclear  (a.u.)        Total (a.u.)
 ------------------------------------------------------------------------------------

 L = 1.  Multiply by 2.5417464519 to convert [e a0] to [Debye]
 Dipole X            :         -0.0013942            0.0006313           -0.0007629
 Dipole Y            :         -0.0484372            0.0560211            0.0075839
 Dipole Z            :         22.3984386          -31.4743287           -9.0758901
 Magnitude           :                                                    9.0758933

 ------------------------------------------------------------------------------------

*** tstop() called on d-16-12-3 at Mon Jan 22 19:47:02 2024
Module time:
	user time   =    4329.48 seconds =      72.16 minutes
	system time =     291.38 seconds =       4.86 minutes
	total time  =        660 seconds =      11.00 minutes
Total time:
	user time   =    4329.48 seconds =      72.16 minutes
	system time =     291.38 seconds =       4.86 minutes
	total time  =        660 seconds =      11.00 minutes

  //>>>>>>>>>>>>>>>>>>>>>>>>>>>>>>>>>>>//
  //            Monomer A HF           //
  //<<<<<<<<<<<<<<<<<<<<<<<<<<<<<<<<<<<//

   => Libint2 <=

    Primary   basis highest AM E, G, H:  7, 7, 4
    Auxiliary basis highest AM E, G, H:  7, 7, 5
    Onebody   basis highest AM E, G, H:  7, 7, 5
    Solid Harmonics ordering:            gaussian

*** tstart() called on d-16-12-3
*** at Mon Jan 22 19:47:02 2024

   => Loading Basis Set <=

    Name: JUN-CC-PVDZ
    Role: ORBITAL
    Keyword: BASIS
    atoms 1-2, 4-5, 10, 17-70 entry C          line   164 file /home/gridsan/tfroembgen/.conda/envs/psi4test/share/psi4/basis/jun-cc-pvdz.gbs 
    atoms 3, 6                entry N          line   198 file /home/gridsan/tfroembgen/.conda/envs/psi4test/share/psi4/basis/jun-cc-pvdz.gbs 
    atoms 7-9, 11-16, 71-88   entry H          line    36 file /home/gridsan/tfroembgen/.conda/envs/psi4test/share/psi4/basis/jun-cc-pvdz.gbs 


         ---------------------------------------------------------
                                   SCF
               by Justin Turney, Rob Parrish, Andy Simmonett
                          and Daniel G. A. Smith
                              RHF Reference
                       12 Threads,  30517 MiB Core
         ---------------------------------------------------------

  ==> Geometry <==

    Molecular point group: c1
    Full point group: C1

    Geometry (in Angstrom), charge = 1, multiplicity = 1:

       Center              X                  Y                   Z               Mass       
    ------------   -----------------  -----------------  -----------------  -----------------
         C            0.680066520158    -0.008042372515    -6.801890538954    12.000000000000
         C           -0.680504479842    -0.006014372515    -6.801506538954    12.000000000000
         N           -1.085635479842    -0.005016372515    -5.483182538954    14.003074004430
         C            0.000107520158    -0.001740372515    -4.701781538954    12.000000000000
         C           -2.477365479842     0.044389627485    -5.015203538954    12.000000000000
         N            1.085221520158    -0.005016372515    -5.483182538954    14.003074004430
         H            1.385145520158    -0.015870372515    -7.619329538954     1.007825032230
         H           -1.385302479842    -0.006204372515    -7.619175538954     1.007825032230
         H           -0.000009479842     0.000006627485    -3.620692538954     1.007825032230
         C            2.478116520158    -0.021908372515    -5.018084538954    12.000000000000
         H            2.490591520158     0.005436627485    -3.927831538954     1.007825032230
         H            2.967027520158    -0.935354372515    -5.365260538954     1.007825032230
         H            3.001427520158     0.853574627485    -5.409556538954     1.007825032230
         H           -2.857359479842     1.066460627485    -5.095162538954     1.007825032230
         H           -3.082679479842    -0.625694372515    -5.628267538954     1.007825032230
         H           -2.518128479842    -0.282594372515    -3.975255538954     1.007825032230
      Gh(C)           1.225311895423     0.707538288405     0.820176088329    12.000000000000
      Gh(C)           1.225323856051    -0.707538895085     0.807845278759    12.000000000000
      Gh(C)          -0.000006153932     1.414965913575     0.807311655238    12.000000000000
      Gh(C)           2.456448753949     1.418327886663     0.823062945729    12.000000000000
      Gh(C)           0.000010827279    -1.414976499150     0.817511212563    12.000000000000
      Gh(C)          -1.225300948908     0.707545373469     0.822427608652    12.000000000000
      Gh(C)           2.456437755320    -1.418323304396     0.805600121902    12.000000000000
      Gh(C)          -0.000001332978     2.836801030766     0.804908105104    12.000000000000
      Gh(C)           3.681826697470     0.709317955486     0.805948911700    12.000000000000
      Gh(C)           2.455120048865     2.834223660974     0.805846354739    12.000000000000
      Gh(C)           3.681821105219    -0.709333839944     0.822021395718    12.000000000000
      Gh(C)          -1.225313598688    -0.707527516059     0.808918040186    12.000000000000
      Gh(C)           1.226699581202     3.543469483479     0.822205427649    12.000000000000
      Gh(C)           0.000004784858    -2.836782139751     0.822359380184    12.000000000000
      Gh(C)          -2.456436032848     1.418316917770     0.822463004498    12.000000000000
      Gh(C)           2.455123417779    -2.834230029103     0.821869487351    12.000000000000
      Gh(C)          -1.226714364589     3.543469063235     0.822308760868    12.000000000000
      Gh(C)           4.914517295202     1.427172871975     0.812429594730    12.000000000000
      Gh(C)           3.693150191476     3.542795292030     0.812479394366    12.000000000000
      Gh(C)          -2.456437600068    -1.418313281354     0.805575083777    12.000000000000
      Gh(C)           1.226704841943    -3.543474242421     0.806235296899    12.000000000000
      Gh(C)          -2.455125398508     2.834216662119     0.805852731086    12.000000000000
      Gh(C)           4.914524380782    -1.427186910459     0.815402337464    12.000000000000
      Gh(C)           1.221424613699     4.970134064745     0.815540771724    12.000000000000
      Gh(C)           4.893008229321     2.825187999512     0.813646263088    12.000000000000
      Gh(C)          -1.226697008489    -3.543470997592     0.806502501309    12.000000000000
      Gh(C)          -3.681818976526     0.709324966217     0.805961592180    12.000000000000
      Gh(C)           3.693147101150    -3.542801341905     0.815520228025    12.000000000000
      Gh(C)          -1.221432251994     4.970128297348     0.815724267096    12.000000000000
      Gh(C)           6.134770972926     0.680547946591     0.813199369279    12.000000000000
      Gh(C)           3.656788880610     4.972953243053     0.813388032148    12.000000000000
      Gh(C)          -2.455126907733    -2.834215093576     0.821625129553    12.000000000000
      Gh(C)          -3.681819179061    -0.709325703983     0.822139017297    12.000000000000
      Gh(C)           4.893012617914    -2.825200106147     0.814257414984    12.000000000000
      Gh(C)          -0.000001073113     5.650447365518     0.814492958389    12.000000000000
      Gh(C)           6.134775112332    -0.680554854590     0.814464689795    12.000000000000
      Gh(C)           2.478131482856     5.653576750817     0.814676811798    12.000000000000
      Gh(C)           1.221422404738    -4.970127055448     0.812741274701    12.000000000000
      Gh(C)          -3.693162383965     3.542796953677     0.812644901825    12.000000000000
      Gh(C)          -1.221428520945    -4.970118304111     0.812628512868    12.000000000000
      Gh(C)          -4.914521807942     1.427175446480     0.812506539737    12.000000000000
      Gh(C)           3.656787019679    -4.972955226754     0.814838532682    12.000000000000
      Gh(C)          -2.478138530106     5.653574422014     0.814961336807    12.000000000000
      Gh(C)          -3.693141738564    -3.542790219494     0.815404101869    12.000000000000
      Gh(C)          -4.914512483053    -1.427181000542     0.815437034638    12.000000000000
      Gh(C)          -0.000006008926    -5.650438287528     0.814097454268    12.000000000000
      Gh(C)          -4.893020484101     2.825188598404     0.813636181228    12.000000000000
      Gh(C)           2.478125993298    -5.653573544403     0.813747931890    12.000000000000
      Gh(C)          -3.656798710258     4.972956181527     0.813564712523    12.000000000000
      Gh(C)          -4.892999478856    -2.825191767575     0.814103379286    12.000000000000
      Gh(C)          -2.478128498083    -5.653566170521     0.813472744243    12.000000000000
      Gh(C)          -6.134770503331     0.680548765741     0.813173817577    12.000000000000
      Gh(C)          -3.656788833189    -4.972944023485     0.814624244866    12.000000000000
      Gh(C)          -6.134765042913    -0.680553915997     0.814444214000    12.000000000000
      Gh(H)           5.835288495816     3.369275894439     0.818005588751     1.007825032230
      Gh(H)           7.073859172747     1.228217248385     0.813661012673     1.007825032230
      Gh(H)           4.600663264174     5.512380801938     0.813893232900     1.007825032230
      Gh(H)           5.835283387305    -3.369306057244     0.809802947669     1.007825032230
      Gh(H)          -0.000012151306     6.738530673622     0.810143713382     1.007825032230
      Gh(H)           7.073861171831    -1.228226943259     0.813955951701     1.007825032230
      Gh(H)           2.473313731799     6.740684290880     0.814210090868     1.007825032230
      Gh(H)           4.600668491381    -5.512376129691     0.814428535514     1.007825032230
      Gh(H)          -2.473318680537     6.740681719092     0.814511437493     1.007825032230
      Gh(H)          -0.000010268228    -6.738528176967     0.818627139253     1.007825032230
      Gh(H)          -5.835301914343     3.369270949781     0.818141610899     1.007825032230
      Gh(H)           2.473307923831    -6.740685374944     0.814318262315     1.007825032230
      Gh(H)          -4.600674841208     5.512378026089     0.814058561224     1.007825032230
      Gh(H)          -5.835279506835    -3.369288964294     0.809523641788     1.007825032230
      Gh(H)          -2.473300347440    -6.740679078655     0.813868945771     1.007825032230
      Gh(H)          -7.073857766768     1.228220472326     0.813577021192     1.007825032230
      Gh(H)          -4.600673786085    -5.512362670301     0.814256227491     1.007825032230
      Gh(H)          -7.073856934409    -1.228220632492     0.813861095234     1.007825032230

  Running in c1 symmetry.

  Rotational constants: A =      0.00151  B =      0.00148  C =      0.00109 [cm^-1]
  Rotational constants: A =     45.33912  B =     44.38619  C =     32.71081 [MHz]
  Nuclear repulsion =  306.774908447733026

  Charge       = 1
  Multiplicity = 1
  Electrons    = 52
  Nalpha       = 26
  Nbeta        = 26

  ==> Algorithm <==

  SCF Algorithm Type is DF.
  DIIS enabled.
  MOM disabled.
  Fractional occupation disabled.
  Guess Type is SAD.
  Energy threshold   = 1.00e-08
  Density threshold  = 1.00e-08
  Integral threshold = 1.00e-12

  ==> Primary Basis <==

  Basis Set: JUN-CC-PVDZ
    Blend: JUN-CC-PVDZ
    Number of shells: 569
    Number of basis functions: 1233
    Number of Cartesian functions: 1294
    Spherical Harmonics?: true
    Max angular momentum: 2

   => Loading Basis Set <=

    Name: (JUN-CC-PVDZ AUX)
    Role: JKFIT
    Keyword: DF_BASIS_SCF
    atoms 1-2, 4-5, 10, 17-70 entry C          line   146 file /home/gridsan/tfroembgen/.conda/envs/psi4test/share/psi4/basis/jun-cc-pvdz-jkfit.gbs 
    atoms 3, 6                entry N          line   202 file /home/gridsan/tfroembgen/.conda/envs/psi4test/share/psi4/basis/jun-cc-pvdz-jkfit.gbs 
    atoms 7-9, 11-16, 71-88   entry H          line    70 file /home/gridsan/tfroembgen/.conda/envs/psi4test/share/psi4/basis/jun-cc-pvdz-jkfit.gbs 

  ==> Integral Setup <==

  ==> DiskDFJK: Density-Fitted J/K Matrices <==

    J tasked:                  Yes
    K tasked:                  Yes
    wK tasked:                  No
    OpenMP threads:             12
    Integrals threads:          12
    Memory [MiB]:            22888
    Algorithm:                Disk
    Integral Cache:           LOAD
    Schwarz Cutoff:          1E-12
    Fitting Condition:       1E-10

   => Auxiliary Basis Set <=

  Basis Set: (JUN-CC-PVDZ AUX)
    Blend: JUN-CC-PVDZ-JKFIT
    Number of shells: 1890
    Number of basis functions: 5440
    Number of Cartesian functions: 6226
    Spherical Harmonics?: true
    Max angular momentum: 3

  Minimum eigenvalue in the overlap matrix is 8.3138635787E-10.
  Reciprocal condition number of the overlap matrix is 3.7024358678E-11.
    Using canonical orthogonalization.
  Overall, 14 of 1233 possible MOs eliminated.


  ==> Pre-Iterations <==

  SCF Guess: Superposition of Atomic Densities via on-the-fly atomic UHF (no occupation information).

   -------------------------
    Irrep   Nso     Nmo    
   -------------------------
     A       1233    1219 
   -------------------------
    Total    1233    1219
   -------------------------

  ==> Iterations <==

                           Total Energy        Delta E     RMS |[F,P]|

   @DF-RHF iter SAD:  -303.36534437711913   -3.03365e+02   0.00000e+00 
   @DF-RHF iter   1:  -303.16952394140628    1.95820e-01   3.44175e-04 DIIS/ADIIS
   @DF-RHF iter   2:  -303.28387113994000   -1.14347e-01   1.15895e-04 DIIS/ADIIS
   @DF-RHF iter   3:  -303.29532707545923   -1.14559e-02   4.53496e-05 DIIS
   @DF-RHF iter   4:  -303.29723186316551   -1.90479e-03   9.90094e-06 DIIS
   @DF-RHF iter   5:  -303.29733765948276   -1.05796e-04   2.41489e-06 DIIS
   @DF-RHF iter   6:  -303.29734694169298   -9.28221e-06   6.54607e-07 DIIS
   @DF-RHF iter   7:  -303.29734801606480   -1.07437e-06   3.32616e-07 DIIS
   @DF-RHF iter   8:  -303.29734826945122   -2.53386e-07   1.33852e-07 DIIS
   @DF-RHF iter   9:  -303.29734831808872   -4.86375e-08   3.37272e-08 DIIS
   @DF-RHF iter  10:  -303.29734832091725   -2.82853e-09   1.26577e-08 DIIS
   @DF-RHF iter  11:  -303.29734832116367   -2.46416e-10   2.98216e-09 DIIS
  Energy and wave function converged.


  ==> Post-Iterations <==

    Orbital Energies [Eh]
    ---------------------

    Doubly Occupied:                                                      

       1A    -15.834642     2A    -15.834111     3A    -11.529506  
       4A    -11.459839     5A    -11.458283     6A    -11.449651  
       7A    -11.449539     8A     -1.578166     9A     -1.433762  
      10A     -1.238605    11A     -1.189263    12A     -1.118828  
      13A     -1.022477    14A     -0.996901    15A     -0.916997  
      16A     -0.850485    17A     -0.816207    18A     -0.813138  
      19A     -0.790073    20A     -0.786196    21A     -0.781714  
      22A     -0.729670    23A     -0.725751    24A     -0.717078  
      25A     -0.596254    26A     -0.523810  

    Virtual:                                                              

      27A     -0.076266    28A     -0.071746    29A     -0.059683  
      30A     -0.051473    31A     -0.038771    32A     -0.037409  
      33A     -0.037172    34A     -0.033455    35A     -0.033117  
      36A     -0.026105    37A     -0.024938    38A     -0.016738  
      39A     -0.015326    40A     -0.013280    41A     -0.013188  
      42A     -0.008694    43A     -0.007431    44A     -0.004651  
      45A     -0.003249    46A     -0.000893    47A      0.003464  
      48A      0.007023    49A      0.010308    50A      0.014815  
      51A      0.015217    52A      0.015880    53A      0.016177  
      54A      0.022056    55A      0.024410    56A      0.026304  
      57A      0.027338    58A      0.030169    59A      0.033626  
      60A      0.035697    61A      0.036266    62A      0.037653  
      63A      0.038175    64A      0.043866    65A      0.047007  
      66A      0.047260    67A      0.047948    68A      0.051005  
      69A      0.053087    70A      0.057342    71A      0.057961  
      72A      0.059455    73A      0.060779    74A      0.061119  
      75A      0.065212    76A      0.067148    77A      0.067579  
      78A      0.069094    79A      0.069342    80A      0.074656  
      81A      0.075474    82A      0.076853    83A      0.077786  
      84A      0.078318    85A      0.078464    86A      0.081776  
      87A      0.086524    88A      0.087279    89A      0.087765  
      90A      0.087963    91A      0.090120    92A      0.092991  
      93A      0.093391    94A      0.094845    95A      0.096765  
      96A      0.096955    97A      0.099710    98A      0.100934  
      99A      0.101162   100A      0.106016   101A      0.107412  
     102A      0.111357   103A      0.112148   104A      0.113300  
     105A      0.115699   106A      0.115902   107A      0.116887  
     108A      0.119272   109A      0.119430   110A      0.120299  
     111A      0.121900   112A      0.122009   113A      0.124563  
     114A      0.125411   115A      0.127268   116A      0.128405  
     117A      0.131628   118A      0.132725   119A      0.135679  
     120A      0.136776   121A      0.137827   122A      0.137952  
     123A      0.141816   124A      0.143487   125A      0.144251  
     126A      0.144871   127A      0.147137   128A      0.147948  
     129A      0.150138   130A      0.151708   131A      0.152608  
     132A      0.153536   133A      0.154839   134A      0.156159  
     135A      0.157851   136A      0.158385   137A      0.161747  
     138A      0.162447   139A      0.165182   140A      0.165379  
     141A      0.165611   142A      0.168513   143A      0.169093  
     144A      0.170579   145A      0.174728   146A      0.176816  
     147A      0.177771   148A      0.177898   149A      0.179094  
     150A      0.180339   151A      0.181780   152A      0.182974  
     153A      0.184969   154A      0.185892   155A      0.186341  
     156A      0.190341   157A      0.190404   158A      0.191188  
     159A      0.192264   160A      0.193370   161A      0.194226  
     162A      0.202435   163A      0.208104   164A      0.210701  
     165A      0.210795   166A      0.211519   167A      0.212123  
     168A      0.214242   169A      0.214915   170A      0.217052  
     171A      0.217848   172A      0.218937   173A      0.219433  
     174A      0.220780   175A      0.221650   176A      0.221749  
     177A      0.222157   178A      0.226233   179A      0.228186  
     180A      0.228362   181A      0.228765   182A      0.229271  
     183A      0.230135   184A      0.234030   185A      0.234829  
     186A      0.237794   187A      0.239706   188A      0.243486  
     189A      0.244284   190A      0.244810   191A      0.245791  
     192A      0.247861   193A      0.251159   194A      0.253013  
     195A      0.255375   196A      0.261108   197A      0.263067  
     198A      0.265640   199A      0.267573   200A      0.270638  
     201A      0.271004   202A      0.272251   203A      0.272412  
     204A      0.274477   205A      0.277810   206A      0.278797  
     207A      0.283984   208A      0.285182   209A      0.288301  
     210A      0.289525   211A      0.290723   212A      0.291616  
     213A      0.292321   214A      0.292676   215A      0.293088  
     216A      0.294718   217A      0.299450   218A      0.300488  
     219A      0.300873   220A      0.301259   221A      0.302138  
     222A      0.302823   223A      0.305343   224A      0.310829  
     225A      0.311215   226A      0.313506   227A      0.314423  
     228A      0.315646   229A      0.320391   230A      0.321426  
     231A      0.323786   232A      0.330793   233A      0.331707  
     234A      0.332753   235A      0.334701   236A      0.340243  
     237A      0.342480   238A      0.342929   239A      0.348071  
     240A      0.349002   241A      0.350846   242A      0.352663  
     243A      0.353431   244A      0.355748   245A      0.358962  
     246A      0.363428   247A      0.366500   248A      0.367004  
     249A      0.367183   250A      0.370703   251A      0.372036  
     252A      0.372571   253A      0.374882   254A      0.377008  
     255A      0.377466   256A      0.381713   257A      0.382745  
     258A      0.384048   259A      0.386009   260A      0.388164  
     261A      0.390115   262A      0.391629   263A      0.393688  
     264A      0.393893   265A      0.394290   266A      0.395012  
     267A      0.397169   268A      0.401556   269A      0.405803  
     270A      0.405925   271A      0.406374   272A      0.407624  
     273A      0.410126   274A      0.411636   275A      0.413246  
     276A      0.413807   277A      0.414171   278A      0.415222  
     279A      0.416763   280A      0.418105   281A      0.419487  
     282A      0.422527   283A      0.424674   284A      0.427327  
     285A      0.430013   286A      0.431672   287A      0.433348  
     288A      0.434304   289A      0.435308   290A      0.444815  
     291A      0.445503   292A      0.447553   293A      0.448172  
     294A      0.452950   295A      0.454393   296A      0.455447  
     297A      0.459059   298A      0.463798   299A      0.463986  
     300A      0.465246   301A      0.465773   302A      0.467140  
     303A      0.469356   304A      0.469845   305A      0.471448  
     306A      0.471923   307A      0.474544   308A      0.480675  
     309A      0.482101   310A      0.483338   311A      0.485428  
     312A      0.489882   313A      0.492630   314A      0.497287  
     315A      0.499756   316A      0.501956   317A      0.507555  
     318A      0.509507   319A      0.509870   320A      0.510671  
     321A      0.511744   322A      0.513748   323A      0.514502  
     324A      0.514818   325A      0.520357   326A      0.521628  
     327A      0.522889   328A      0.527270   329A      0.529510  
     330A      0.530597   331A      0.533960   332A      0.536186  
     333A      0.536875   334A      0.538057   335A      0.541873  
     336A      0.545244   337A      0.551201   338A      0.553153  
     339A      0.553581   340A      0.554759   341A      0.556793  
     342A      0.558566   343A      0.560613   344A      0.564901  
     345A      0.566195   346A      0.568552   347A      0.574350  
     348A      0.577205   349A      0.581150   350A      0.581611  
     351A      0.582920   352A      0.583028   353A      0.590585  
     354A      0.593600   355A      0.602681   356A      0.607912  
     357A      0.611491   358A      0.612946   359A      0.613184  
     360A      0.614505   361A      0.615289   362A      0.617910  
     363A      0.619702   364A      0.620769   365A      0.622367  
     366A      0.625246   367A      0.626298   368A      0.627885  
     369A      0.631245   370A      0.634497   371A      0.636206  
     372A      0.638744   373A      0.639379   374A      0.639930  
     375A      0.641709   376A      0.646040   377A      0.648237  
     378A      0.658124   379A      0.658793   380A      0.660374  
     381A      0.666720   382A      0.671219   383A      0.676270  
     384A      0.678071   385A      0.681539   386A      0.684362  
     387A      0.686681   388A      0.688716   389A      0.694552  
     390A      0.696905   391A      0.697577   392A      0.698655  
     393A      0.699657   394A      0.700894   395A      0.702332  
     396A      0.702497   397A      0.704418   398A      0.706185  
     399A      0.706966   400A      0.708086   401A      0.709082  
     402A      0.709552   403A      0.717433   404A      0.720976  
     405A      0.722111   406A      0.723055   407A      0.725764  
     408A      0.727460   409A      0.728477   410A      0.729167  
     411A      0.730357   412A      0.731496   413A      0.734988  
     414A      0.737573   415A      0.741732   416A      0.742134  
     417A      0.742898   418A      0.748215   419A      0.754675  
     420A      0.757763   421A      0.763693   422A      0.775133  
     423A      0.782406   424A      0.782850   425A      0.784281  
     426A      0.784710   427A      0.785630   428A      0.790947  
     429A      0.792927   430A      0.803041   431A      0.815197  
     432A      0.815316   433A      0.816519   434A      0.819780  
     435A      0.820543   436A      0.827027   437A      0.828055  
     438A      0.828656   439A      0.833262   440A      0.833706  
     441A      0.836497   442A      0.840946   443A      0.848247  
     444A      0.856784   445A      0.857325   446A      0.862512  
     447A      0.873078   448A      0.882677   449A      0.895145  
     450A      0.895494   451A      0.903045   452A      0.903271  
     453A      0.911192   454A      0.912784   455A      0.913830  
     456A      0.927112   457A      0.936585   458A      0.936745  
     459A      0.939675   460A      0.943376   461A      0.959175  
     462A      0.959944   463A      0.973325   464A      0.973781  
     465A      0.974443   466A      0.985508   467A      0.992344  
     468A      0.996247   469A      1.000708   470A      1.001050  
     471A      1.001420   472A      1.001743   473A      1.002009  
     474A      1.032301   475A      1.038368   476A      1.038714  
     477A      1.039852   478A      1.041206   479A      1.066766  
     480A      1.084570   481A      1.087226   482A      1.087738  
     483A      1.095053   484A      1.095228   485A      1.105139  
     486A      1.109485   487A      1.113597   488A      1.118117  
     489A      1.118471   490A      1.127391   491A      1.130076  
     492A      1.130603   493A      1.130858   494A      1.132090  
     495A      1.146322   496A      1.152644   497A      1.154062  
     498A      1.154128   499A      1.161927   500A      1.162971  
     501A      1.177706   502A      1.220720   503A      1.228751  
     504A      1.228819   505A      1.238415   506A      1.239637  
     507A      1.240164   508A      1.256263   509A      1.256861  
     510A      1.260579   511A      1.262181   512A      1.296526  
     513A      1.298819   514A      1.303339   515A      1.303895  
     516A      1.305003   517A      1.342240   518A      1.354994  
     519A      1.357743   520A      1.375366   521A      1.375787  
     522A      1.394338   523A      1.394420   524A      1.395871  
     525A      1.399341   526A      1.399585   527A      1.401745  
     528A      1.415661   529A      1.416840   530A      1.429517  
     531A      1.469456   532A      1.476266   533A      1.480981  
     534A      1.487739   535A      1.488681   536A      1.490896  
     537A      1.491762   538A      1.502999   539A      1.506803  
     540A      1.521662   541A      1.558571   542A      1.565941  
     543A      1.568928   544A      1.571700   545A      1.579548  
     546A      1.582508   547A      1.591747   548A      1.594495  
     549A      1.597379   550A      1.609441   551A      1.615061  
     552A      1.617334   553A      1.623477   554A      1.625027  
     555A      1.628809   556A      1.636629   557A      1.666382  
     558A      1.671840   559A      1.680297   560A      1.681016  
     561A      1.681745   562A      1.683088   563A      1.683640  
     564A      1.685046   565A      1.686809   566A      1.695853  
     567A      1.697963   568A      1.698299   569A      1.704155  
     570A      1.712173   571A      1.718590   572A      1.723111  
     573A      1.725869   574A      1.726869   575A      1.731048  
     576A      1.736812   577A      1.742093   578A      1.742618  
     579A      1.746697   580A      1.748955   581A      1.753539  
     582A      1.755151   583A      1.756780   584A      1.760012  
     585A      1.762882   586A      1.763255   587A      1.764418  
     588A      1.765482   589A      1.766792   590A      1.769302  
     591A      1.782029   592A      1.782574   593A      1.783802  
     594A      1.784401   595A      1.788935   596A      1.794575  
     597A      1.794681   598A      1.794905   599A      1.795715  
     600A      1.811770   601A      1.814506   602A      1.814908  
     603A      1.816567   604A      1.819543   605A      1.820763  
     606A      1.821422   607A      1.823486   608A      1.825406  
     609A      1.826994   610A      1.831086   611A      1.834324  
     612A      1.838758   613A      1.840011   614A      1.840423  
[...]
     799A      1.676592   800A      1.676758   801A      1.676868  
     802A      1.677175   803A      1.677603   804A      1.683964  
     805A      1.687010   806A      1.687129   807A      1.696256  
     808A      1.698687   809A      1.699276   810A      1.699320  
     811A      1.701175   812A      1.704927   813A      1.704947  
     814A      1.715928   815A      1.716082   816A      1.729052  
     817A      1.741820   818A      1.751713   819A      1.760544  
     820A      1.760677   821A      1.760776   822A      1.761794  
     823A      1.762677   824A      1.776943   825A      1.777033  
     826A      1.791602   827A      1.791840   828A      1.801390  
     829A      1.816321   830A      1.816870   831A      1.817401  
     832A      1.823019   833A      1.824770   834A      1.824955  
     835A      1.826996   836A      1.830771   837A      1.832013  
     838A      1.835038   839A      1.840547   840A      1.842487  
     841A      1.850108   842A      1.855275   843A      1.860652  
     844A      1.861094   845A      1.861845   846A      1.865254  
     847A      1.867212   848A      1.869562   849A      1.872137  
     850A      1.873492   851A      1.880248   852A      1.880725  
     853A      1.883505   854A      1.896304   855A      1.896983  
     856A      1.899955   857A      1.903043   858A      1.903329  
     859A      1.906194   860A      1.908549   861A      1.908996  
     862A      1.915147   863A      1.915570   864A      1.917272  
     865A      1.918062   866A      1.918294   867A      1.919414  
     868A      1.921031   869A      1.922383   870A      1.926113  
     871A      1.941801   872A      1.941906   873A      1.942924  
     874A      1.944474   875A      1.946579   876A      1.947659  
     877A      1.949788   878A      1.955314   879A      1.955541  
     880A      1.956246   881A      1.956757   882A      1.958149  
     883A      1.973914   884A      1.983209   885A      1.983834  
     886A      1.991155   887A      1.997314   888A      1.999058  
     889A      1.999394   890A      2.006132   891A      2.008843  
     892A      2.011754   893A      2.012920   894A      2.017488  
     895A      2.027344   896A      2.027960   897A      2.030274  
     898A      2.030901   899A      2.031284   900A      2.032113  
     901A      2.032833   902A      2.035678   903A      2.046522  
     904A      2.049360   905A      2.051579   906A      2.052766  
     907A      2.054505   908A      2.057362   909A      2.058383  
     910A      2.059723   911A      2.062758   912A      2.065705  
     913A      2.066855   914A      2.070382   915A      2.072591  
     916A      2.074059   917A      2.076929   918A      2.078303  
     919A      2.083416   920A      2.084613   921A      2.086050  
     922A      2.087635   923A      2.093457   924A      2.095105  
     925A      2.096619   926A      2.097167   927A      2.098532  
     928A      2.100866   929A      2.101272   930A      2.107058  
     931A      2.109021   932A      2.109331   933A      2.110964  
     934A      2.111923   935A      2.114458   936A      2.116651  
     937A      2.117598   938A      2.119648   939A      2.119955  
     940A      2.120836   941A      2.121587   942A      2.126486  
     943A      2.126846   944A      2.130214   945A      2.133364  
     946A      2.134731   947A      2.135544   948A      2.136366  
     949A      2.136415   950A      2.143320   951A      2.143446  
     952A      2.150525   953A      2.156996   954A      2.160678  
     955A      2.160936   956A      2.162574   957A      2.163164  
     958A      2.170211   959A      2.171927   960A      2.178401  
     961A      2.180552   962A      2.190699   963A      2.191074  
     964A      2.192589   965A      2.193561   966A      2.194762  
     967A      2.195903   968A      2.196331   969A      2.200731  
     970A      2.210076   971A      2.216589   972A      2.219767  
     973A      2.220521   974A      2.220743   975A      2.224494  
     976A      2.228416   977A      2.228811   978A      2.230026  
     979A      2.233110   980A      2.243608   981A      2.243995  
     982A      2.244609   983A      2.245094   984A      2.247858  
     985A      2.260326   986A      2.260460   987A      2.267340  
     988A      2.270283   989A      2.270594   990A      2.272161  
     991A      2.272826   992A      2.280978   993A      2.283393  
     994A      2.291329   995A      2.300844   996A      2.306745  
     997A      2.310144   998A      2.311849   999A      2.312808  
    1000A      2.322434  1001A      2.324516  1002A      2.331056  
    1003A      2.331240  1004A      2.331333  1005A      2.334041  
    1006A      2.336807  1007A      2.350631  1008A      2.351700  
    1009A      2.352626  1010A      2.352789  1011A      2.360205  
    1012A      2.365492  1013A      2.366999  1014A      2.367308  
    1015A      2.375924  1016A      2.384082  1017A      2.403392  
    1018A      2.416086  1019A      2.424121  1020A      2.424499  
    1021A      2.424527  1022A      2.436526  1023A      2.441320  
    1024A      2.441588  1025A      2.457091  1026A      2.461661  
    1027A      2.467818  1028A      2.471110  1029A      2.472866  
    1030A      2.475042  1031A      2.481680  1032A      2.483189  
    1033A      2.486460  1034A      2.488490  1035A      2.502476  
    1036A      2.520192  1037A      2.529135  1038A      2.530358  
    1039A      2.530775  1040A      2.544866  1041A      2.545849  
    1042A      2.546164  1043A      2.554628  1044A      2.554915  
    1045A      2.554972  1046A      2.559925  1047A      2.560103  
    1048A      2.573082  1049A      2.573174  1050A      2.574933  
    1051A      2.575393  1052A      2.586109  1053A      2.586340  
    1054A      2.587609  1055A      2.588651  1056A      2.590833  
    1057A      2.591506  1058A      2.607729  1059A      2.623647  
    1060A      2.624232  1061A      2.628218  1062A      2.631607  
    1063A      2.632131  1064A      2.640338  1065A      2.641517  
    1066A      2.644997  1067A      2.650901  1068A      2.651417  
    1069A      2.656458  1070A      2.657394  1071A      2.660532  
    1072A      2.669661  1073A      2.681461  1074A      2.683845  
    1075A      2.684295  1076A      2.685286  1077A      2.687951  
    1078A      2.702520  1079A      2.702575  1080A      2.713137  
    1081A      2.713147  1082A      2.718895  1083A      2.718906  
    1084A      2.723070  1085A      2.724127  1086A      2.739620  
    1087A      2.746710  1088A      2.752262  1089A      2.753299  
    1090A      2.756377  1091A      2.772329  1092A      2.778333  
    1093A      2.795202  1094A      2.795319  1095A      2.817211  
    1096A      2.824821  1097A      2.827152  1098A      2.829925  
    1099A      2.846762  1100A      2.853685  1101A      2.855657  
    1102A      2.856231  1103A      2.858446  1104A      2.860367  
    1105A      2.861906  1106A      2.869913  1107A      2.890015  
    1108A      2.901068  1109A      2.918023  1110A      2.918144  
    1111A      2.924241  1112A      2.925310  1113A      2.928822  
    1114A      2.934879  1115A      2.935471  1116A      2.950440  
    1117A      2.950777  1118A      2.962240  1119A      2.963790  
    1120A      2.982796  1121A      3.008330  1122A      3.009730  
    1123A      3.011949  1124A      3.015665  1125A      3.026885  
    1126A      3.031357  1127A      3.056301  1128A      3.064457  
    1129A      3.065216  1130A      3.071217  1131A      3.071386  
    1132A      3.109869  1133A      3.110740  1134A      3.129672  
    1135A      3.130052  1136A      3.130251  1137A      3.137551  
    1138A      3.146918  1139A      3.146964  1140A      3.147374  
    1141A      3.147464  1142A      3.150098  1143A      3.151507  
    1144A      3.159128  1145A      3.159417  1146A      3.166590  
    1147A      3.167386  1148A      3.192096  1149A      3.211260  
    1150A      3.219859  1151A      3.238192  1152A      3.275166  
    1153A      3.277184  1154A      3.277318  1155A      3.282461  
    1156A      3.282496  1157A      3.289289  1158A      3.317922  
    1159A      3.334198  1160A      3.416786  1161A      3.417319  
    1162A      3.423864  1163A      3.443357  1164A      3.481911  
    1165A      3.484519  1166A      3.527881  1167A      3.550539  
    1168A      3.576558  1169A      3.578249  1170A      3.581578  
    1171A      3.594474  1172A      3.626819  1173A      3.628838  
    1174A      3.646792  1175A      3.663298  1176A      3.670688  
    1177A      3.758983  1178A      3.769404  1179A      3.783266  
    1180A      3.784266  1181A      3.818320  1182A      3.869825  
    1183A      3.871115  1184A      3.871205  1185A      3.913422  
    1186A      3.913591  1187A      3.968937  1188A      3.977026  
    1189A      4.011076  1190A      4.034053  1191A      4.046504  
    1192A      4.084316  1193A      4.209793  1194A      4.213562  
    1195A      4.362346  1196A      4.367951  1197A      4.492925  
    1198A      4.747622  1199A      4.787407  1200A      4.834527  
    1201A      4.850391  1202A      4.940685  1203A      5.056628  
    1204A      5.061896  1205A      5.070737  1206A      5.114718  
    1207A      5.150379  1208A      5.396228  1209A      5.425168  
    1210A      5.736493  1211A      5.763520  1212A      6.069509  
    1213A     18.199739  1214A     18.459543  1215A     18.476561  
    1216A     18.563849  1217A     18.834132  1218A     25.341799  
    1219A     25.377525  

    Final Occupation by Irrep:
              A 
    DOCC [   171 ]
    NA   [   171 ]
    NB   [   171 ]

  @DF-RHF Final Energy: -2055.89250313854836

   => Energetics <=

    Nuclear Repulsion Energy =           6452.5568002797781446
    One-Electron Energy =              -15636.4546142596773279
    Two-Electron Energy =                7128.0053108413521841
    Total Energy =                      -2055.8925031385479087

Computation Completed


Properties will be evaluated at   0.000000,   0.000000,   0.000000 [a0]

Properties computed using the SCF density matrix


 Multipole Moments:

 ------------------------------------------------------------------------------------
     Multipole            Electronic (a.u.)      Nuclear  (a.u.)        Total (a.u.)
 ------------------------------------------------------------------------------------

 L = 1.  Multiply by 2.5417464519 to convert [e a0] to [Debye]
 Dipole X            :          0.0001051           -0.0000085            0.0000966
 Dipole Y            :         -0.0000650            0.0000167           -0.0000483
 Dipole Z            :       -526.0924566          526.1004905            0.0080339
 Magnitude           :                                                    0.0080346

 ------------------------------------------------------------------------------------

*** tstop() called on d-16-12-3 at Mon Jan 22 20:05:13 2024
Module time:
	user time   =    2737.05 seconds =      45.62 minutes
	system time =     166.66 seconds =       2.78 minutes
	total time  =        687 seconds =      11.45 minutes
Total time:
	user time   =    8602.76 seconds =     143.38 minutes
	system time =     602.81 seconds =      10.05 minutes
	total time  =       1751 seconds =      29.18 minutes
  Constructing Basis Sets for SAPT...

   => Loading Basis Set <=

    Name: (JUN-CC-PVDZ AUX)
    Role: RIFIT
    Keyword: DF_BASIS_SAPT
    atoms 1-2, 4-5, 10, 17-70 entry C          line   100 file /home/gridsan/tfroembgen/.conda/envs/psi4test/share/psi4/basis/jun-cc-pvdz-ri.gbs 
    atoms 3, 6                entry N          line   144 file /home/gridsan/tfroembgen/.conda/envs/psi4test/share/psi4/basis/jun-cc-pvdz-ri.gbs 
    atoms 7-9, 11-16, 71-88   entry H          line    30 file /home/gridsan/tfroembgen/.conda/envs/psi4test/share/psi4/basis/jun-cc-pvdz-ri.gbs 

   => Loading Basis Set <=

    Name: (JUN-CC-PVDZ AUX)
    Role: JKFIT
    Keyword: DF_BASIS_ELST
    atoms 1-2, 4-5, 10, 17-70 entry C          line   146 file /home/gridsan/tfroembgen/.conda/envs/psi4test/share/psi4/basis/jun-cc-pvdz-jkfit.gbs 
    atoms 3, 6                entry N          line   202 file /home/gridsan/tfroembgen/.conda/envs/psi4test/share/psi4/basis/jun-cc-pvdz-jkfit.gbs 
    atoms 7-9, 11-16, 71-88   entry H          line    70 file /home/gridsan/tfroembgen/.conda/envs/psi4test/share/psi4/basis/jun-cc-pvdz-jkfit.gbs 


  //>>>>>>>>>>>>>>>>>>>>>>>>>>>>>>>>>>>//
  //               SSAPT0              //
  //<<<<<<<<<<<<<<<<<<<<<<<<<<<<<<<<<<<//


*** tstart() called on d-16-12-3
*** at Mon Jan 22 20:05:14 2024

        SAPT0  
    Ed Hohenstein
     6 June 2009

      Orbital Information
  --------------------------
    NSO        =      1233
    NMO        =      1219
    NRI        =      4343
    NRI (Elst) =      5440
    NOCC A     =        26
    NOCC B     =       171
    FOCC A     =         7
    FOCC B     =        54
    NVIR A     =      1193
    NVIR B     =      1048

    Elst10,r            =    -0.008891113393 [Eh]
    Exch10              =     0.000007726286 [Eh]
    Exch10 (S^2)        =     0.000007726246 [Eh]

    Iter     Energy [mEh]          dE [mEh]         Residual      Time [s]
       1      -0.02964042       0.029640423       1.616465139           362
       2      -0.02811866      -0.001521766       0.421459137           672
       3      -0.03090322       0.002784566       0.114687906           975
       4      -0.03106431       0.000161083       0.052101885          1213
       5      -0.03093235      -0.000131953       0.014789197          1435
       6      -0.03093697       0.000004613       0.005209687          1726
       7      -0.03094708       0.000010113       0.001361043          2063
       8      -0.03094758       0.000000502       0.000447687          2326
       9      -0.03094715      -0.000000432       0.000135377          2420
      10      -0.03094704      -0.000000115       0.000041163          2562
      11      -0.03094705       0.000000014       0.000011293          2632
      12      -0.03094706       0.000000013       0.000003274          2736
      13      -0.03094706      -0.000000000       0.000001274          2856
      14      -0.03094706      -0.000000001       0.000000288          2948

    CHF Iterations converged


    Iter     Energy [mEh]          dE [mEh]         Residual      Time [s]
       1      -5.14769404       5.147694037      37.761602367           217
       2      -3.48313522      -1.664558822       4.843781352           496
       3      -3.48164820      -0.001487020       1.688836471           546
       4      -3.56390421       0.082256012       0.385867104           570
       5      -3.56801291       0.004108699       0.112341275           590
       6      -3.56634392      -0.001668989       0.056810884           610
       7      -3.56575060      -0.000593315       0.025279792           631
       8      -3.56602968       0.000279080       0.015717532           651
       9      -3.56616104       0.000131357       0.008785482           672
      10      -3.56610719      -0.000053850       0.006653527           692
      11      -3.56606884      -0.000038347       0.003002553           720
      12      -3.56607855       0.000009706       0.001367738           744
      13      -3.56608729       0.000008743       0.000624442           763
      14      -3.56608568      -0.000001612       0.000361033           793
      15      -3.56608342      -0.000002258       0.000158404           817
      16      -3.56608365       0.000000228       0.000071447           838
      17      -3.56608423       0.000000578       0.000020136           856
      18      -3.56608420      -0.000000026       0.000007424           876
      19      -3.56608416      -0.000000038       0.000003830           895
      20      -3.56608415      -0.000000012       0.000001580           972
      21      -3.56608416       0.000000010       0.000000731           993

    CHF Iterations converged

    Ind20,r (A<-B)      =    -0.000030947060 [Eh]
    Ind20,r (B<-A)      =    -0.003566084162 [Eh]
    Ind20,r             =    -0.003597031222 [Eh]
    Exch-Ind20,r (A<-B) =     0.000000251948 [Eh]
    Exch-Ind20,r (B<-A) =     0.000002600478 [Eh]
    Exch-Ind20,r        =     0.000002852427 [Eh]
    Disp20              =    -0.002500609642 [Eh]
    Disp20 (SS)         =    -0.001250304821 [Eh]
    Disp20 (OS)         =    -0.001250304821 [Eh]
    Exch-Disp20         =     0.000001736176 [Eh]
    Exch-Disp20 (SS)    =     0.000001233059 [Eh]
    Exch-Disp20 (OS)    =     0.000000503117 [Eh]

    SAPT Results 
  --------------------------------------------------------------------------------------------------------
    Electrostatics                 -8.89111339 [mEh]      -5.57925789 [kcal/mol]     -23.34361500 [kJ/mol]
      Elst10,r                     -8.89111339 [mEh]      -5.57925789 [kcal/mol]     -23.34361500 [kJ/mol]

    Exchange                        0.00772629 [mEh]       0.00484832 [kcal/mol]       0.02028536 [kJ/mol]
      Exch10                        0.00772629 [mEh]       0.00484832 [kcal/mol]       0.02028536 [kJ/mol]
      Exch10(S^2)                   0.00772625 [mEh]       0.00484829 [kcal/mol]       0.02028526 [kJ/mol]

    Induction                      -3.70971426 [mEh]      -2.32788085 [kcal/mol]      -9.73985346 [kJ/mol]
      Ind20,r                      -3.59703122 [mEh]      -2.25717117 [kcal/mol]      -9.44400417 [kJ/mol]
      Exch-Ind20,r                  0.00285243 [mEh]       0.00178992 [kcal/mol]       0.00748905 [kJ/mol]
      delta HF,r (2)               -0.11553547 [mEh]      -0.07249960 [kcal/mol]      -0.30333833 [kJ/mol]

    Dispersion                     -2.49887347 [mEh]      -1.56806677 [kcal/mol]      -6.56079138 [kJ/mol]
      Disp20                       -2.50060964 [mEh]      -1.56915624 [kcal/mol]      -6.56534971 [kJ/mol]
      Exch-Disp20                   0.00173618 [mEh]       0.00108947 [kcal/mol]       0.00455833 [kJ/mol]
      Disp20 (SS)                  -1.25030482 [mEh]      -0.78457812 [kcal/mol]      -3.28267486 [kJ/mol]
      Disp20 (OS)                  -1.25030482 [mEh]      -0.78457812 [kcal/mol]      -3.28267486 [kJ/mol]
      Exch-Disp20 (SS)              0.00123306 [mEh]       0.00077376 [kcal/mol]       0.00323740 [kJ/mol]
      Exch-Disp20 (OS)              0.00050312 [mEh]       0.00031571 [kcal/mol]       0.00132093 [kJ/mol]

  Total HF                        -12.59310137 [mEh]      -7.90229042 [kcal/mol]     -33.06318310 [kJ/mol]
  Total SAPT0                     -15.09197484 [mEh]      -9.47035719 [kcal/mol]     -39.62397448 [kJ/mol]

  Special recipe for scaled SAPT0 (see Manual):
    Electrostatics sSAPT0          -8.89111339 [mEh]      -5.57925789 [kcal/mol]     -23.34361500 [kJ/mol]
    Exchange sSAPT0                 0.00772629 [mEh]       0.00484832 [kcal/mol]       0.02028536 [kJ/mol]
    Induction sSAPT0               -3.70971426 [mEh]      -2.32788085 [kcal/mol]      -9.73985346 [kJ/mol]
    Dispersion sSAPT0              -2.49887347 [mEh]      -1.56806677 [kcal/mol]      -6.56079138 [kJ/mol]
  Total sSAPT0                    -15.09197484 [mEh]      -9.47035719 [kcal/mol]     -39.62397448 [kJ/mol]
  --------------------------------------------------------------------------------------------------------

*** tstop() called on d-16-12-3 at Mon Jan 22 22:04:11 2024
Module time:
	user time   =    8857.99 seconds =     147.63 minutes
	system time =    1004.56 seconds =      16.74 minutes
	total time  =       7137 seconds =     118.95 minutes
Total time:
	user time   =   17461.81 seconds =     291.03 minutes
	system time =    1607.37 seconds =      26.79 minutes
	total time  =       8889 seconds =     148.15 minutes

    Psi4 stopped on: Monday, 22 January 2024 10:04PM
    Psi4 wall time for execution: 2:28:10.71

*** Psi4 exiting successfully. Buy a developer a beer!
