
    -----------------------------------------------------------------------
          Psi4: An Open-Source Ab Initio Electronic Structure Package
                               Psi4 1.9 release

                         Git: Rev {} zzzzzzz 


    D. G. A. Smith, L. A. Burns, A. C. Simmonett, R. M. Parrish,
    M. C. Schieber, R. Galvelis, P. Kraus, H. Kruse, R. Di Remigio,
    A. Alenaizan, A. M. James, S. Lehtola, J. P. Misiewicz, M. Scheurer,
    R. A. Shaw, J. B. Schriber, Y. Xie, Z. L. Glick, D. A. Sirianni,
    J. S. O'Brien, J. M. Waldrop, A. Kumar, E. G. Hohenstein,
    B. P. Pritchard, B. R. Brooks, H. F. Schaefer III, A. Yu. Sokolov,
    K. Patkowski, A. E. DePrince III, U. Bozkaya, R. A. King,
    F. A. Evangelista, J. M. Turney, T. D. Crawford, C. D. Sherrill,
    J. Chem. Phys. 152(18) 184108 (2020). https://doi.org/10.1063/5.0006002

                            Additional Code Authors
    E. T. Seidl, C. L. Janssen, E. F. Valeev, M. L. Leininger,
    J. F. Gonthier, R. M. Richard, H. R. McAlexander, M. Saitow, X. Wang,
    P. Verma, M. H. Lechner, A. Jiang, S. Behnle, A. G. Heide,
    M. F. Herbst, and D. L. Poole

             Previous Authors, Complete List of Code Contributors,
                       and Citations for Specific Modules
    https://github.com/psi4/psi4/blob/master/codemeta.json
    https://github.com/psi4/psi4/graphs/contributors
    http://psicode.org/psi4manual/master/introduction.html#citing-psifour

    -----------------------------------------------------------------------


    Psi4 started on: Saturday, 20 January 2024 10:14PM

    Process ID: 1570258
    Host:       d-6-6-3
    PSIDATADIR: /home/gridsan/tfroembgen/.conda/envs/psi4test/share/psi4
    Memory:     500.0 MiB
    Threads:    12
    
  ==> Input File <==

--------------------------------------------------------------------------
memory 32 GB # how much memory is available ! Depends on the nodes/cores !

molecule dimer {
# monomer A
-1 1    # Charge and multiplicity
B -1.977592e-04  2.742729e-04 -2.199966
F  1.123153e-16  1.430594e-17 -0.787181
F  1.147860e+00  6.757812e-01 -2.671107
F  1.191806e-02 -1.332011e+00 -2.670905
F -1.159666e+00  6.560735e-01 -2.670826
--
# monomer B
0 1     # Charge and multiplicity
C   1.22531237526482      0.70753866091955      0.00613762728373
C   1.22532433589282     -0.70753852257020     -0.00619318228664
C   -0.00000567409046      1.41496628609039     -0.00672680580738
C   2.45644923379077      1.41832825917820      0.00902448468363
C   0.00001130712078     -1.41497612663474      0.00347275151708
C   -1.22530046906674      0.70754574598412      0.00838914760619
C   2.45643823516184     -1.41832293188077     -0.00843833914343
C   -0.00000085313587      2.83680140328112     -0.00913035594137
C   3.68182717731192      0.70931832800114     -0.00808954934571
C   2.45512052870677      2.83422403348893     -0.00819210630633
C   3.68182158506039     -0.70933346742900      0.00798293467272
C   -1.22531311884624     -0.70752714354401     -0.00512042085974
C   1.22670006104402      3.54346985599427      0.00816696660346
C   0.00000526469929     -2.83678176723568      0.00832091913869
C   -2.45643555300670      1.41831729028492      0.00842454345199
C   2.45512389762097     -2.83422965658853      0.00783102630520
C   -1.22671388474763      3.54346943575023      0.00827029982280
C   4.91451777504333      1.42717324448953     -0.00160886631602
C   3.69315067131765      3.54279566454522     -0.00155906667985
C   -2.45643712022637     -1.41831290883911     -0.00846337726810
C   1.22670532178455     -3.54347386990643     -0.00780316414624
C   -2.45512491866593      2.83421703463423     -0.00818572995999
C   4.91452486062398     -1.42718653794377      0.00136387641845
C   1.22142509354026      4.97013443726031      0.00150231067809
C   4.89300870916237      2.82518837202648     -0.00039219795739
C   -1.22669652864725     -3.54347062507680     -0.00753595973677
C   -3.68181849668397      0.70932533873199     -0.00807686886569
C   3.69314758099218     -3.54280096939050      0.00148176697923
C   -1.22143177215231      4.97012866986289      0.00168580605083
C   6.13477145276790      0.68054831910577     -0.00083909176631
C   3.65678936045204      4.97295361556775     -0.00065042889723
C   -2.45512642789169     -2.83421472106065      0.00758666850712
C   -3.68181869921921     -0.70932533146830      0.00810055625144
C   4.89301309775526     -2.82519973363176      0.00021895393805
C   -0.00000059327114      5.65044773803267      0.00045449734393
C   6.13477559217374     -0.68055448207492      0.00042622874941
C   2.47813196269732      5.65357712333155      0.00063835075260
C   1.22142288457925     -4.97012668293268     -0.00129718634452
C   -3.69316190412301      3.54279732619245     -0.00139355922051
C   -1.22142804110313     -4.97011793159564     -0.00140994817719
C   -4.91452132810043      1.42717581899491     -0.00153192130862
C   3.65678749952045     -4.97295485423912      0.00080007163680
C   -2.47813805026426      5.65357479452875      0.00092287576113
C   -3.69314125872231     -3.54278984697859      0.00136564082345
C   -4.91451200321153     -1.42718062802730      0.00139857359209
C   -0.00000552908399     -5.65043791501335      0.00005899322272
C   -4.89302000425900      2.82518897091939     -0.00040227981744
C   2.47812647313991     -5.65357317188818     -0.00029052915548
C   -3.65679823041642      4.97295655404175     -0.00047374852278
C   -4.89299899901461     -2.82519139505969      0.00006491824035
C   -2.47812801824129     -5.65356579800621     -0.00056571680280
C   -6.13477002348955      0.68054913825639     -0.00086464346868
C   -3.65678835334731     -4.97294365097028      0.00058578382008
C   -6.13476456307132     -0.68055354348201      0.00040575295444
H   5.83528897565761      3.36927626695423      0.00396712770529
H   7.07385965258860      1.22821762089947     -0.00037744837300
H   4.60066374401555      5.51238117445323     -0.00014522814529
H   5.83528386714679     -3.36930568472863     -0.00423551337640
H   -0.00001167146422      6.73853104613662     -0.00389474766392
H   7.07386165167227     -1.22822657074368     -0.00008250934481
H   2.47331421164041      6.74068466339473      0.00017162982210
H   4.60066897122302     -5.51237575717576      0.00039007446835
H   -2.47331820069565      6.74068209160650      0.00047297644710
H   -0.00000978838621     -6.73852780445195      0.00458867820736
H   -5.83530143450167      3.36927132229595      0.00410314985360
H   2.47330840367253     -6.74068500242887      0.00027980126949
H   -4.60067436136587      5.51237839860371      0.00002010017831
H   -5.83527902699321     -3.36928859177951     -0.00451481925734
H   -2.47329986759855     -6.74067870613986     -0.00016951527498
H   -7.07385728692578      1.22822084484047     -0.00046143985387
H   -4.60067330624313     -5.51236229778631      0.00021776644566
H   -7.07385645456741     -1.22822025997701     -0.00017736581114

    units angstrom      # Angstroms are the default
    no_reorient         # Geometry fixed, default
    symmetry c1         # C1 symmetry, default
}

set {
    scf_type DF         # Density fitting, faster than exact integrals
    freeze_core True    # Freeze core electrons
    basis jun-cc-pVDZ   # Jun-cc-pVDZ basis set, recommended for sSAPT0 in https://doi.org/10.1063/1.4867135
}

energy('ssapt0')        # Compute sSAPT0 energy, includes also SAPT0
--------------------------------------------------------------------------

  Memory set to  29.802 GiB by Python driver.

Scratch directory: /state/partition1/slurm_tmp/24778932.4294967291.0/
   => Loading Basis Set <=

    Name: JUN-CC-PVDZ
    Role: ORBITAL
    Keyword: BASIS
    atoms 1     entry B          line   130 file /home/gridsan/tfroembgen/.conda/envs/psi4test/share/psi4/basis/jun-cc-pvdz.gbs 
    atoms 2-5   entry F          line   266 file /home/gridsan/tfroembgen/.conda/envs/psi4test/share/psi4/basis/jun-cc-pvdz.gbs 
    atoms 6-59  entry C          line   164 file /home/gridsan/tfroembgen/.conda/envs/psi4test/share/psi4/basis/jun-cc-pvdz.gbs 
    atoms 60-77 entry H          line    36 file /home/gridsan/tfroembgen/.conda/envs/psi4test/share/psi4/basis/jun-cc-pvdz.gbs 

   => Loading Basis Set <=

    Name: JUN-CC-PVDZ
    Role: ORBITAL
    Keyword: BASIS
    atoms 1     entry B          line   130 file /home/gridsan/tfroembgen/.conda/envs/psi4test/share/psi4/basis/jun-cc-pvdz.gbs 
    atoms 2-5   entry F          line   266 file /home/gridsan/tfroembgen/.conda/envs/psi4test/share/psi4/basis/jun-cc-pvdz.gbs 
    atoms 6-59  entry C          line   164 file /home/gridsan/tfroembgen/.conda/envs/psi4test/share/psi4/basis/jun-cc-pvdz.gbs 
    atoms 60-77 entry H          line    36 file /home/gridsan/tfroembgen/.conda/envs/psi4test/share/psi4/basis/jun-cc-pvdz.gbs 


  //>>>>>>>>>>>>>>>>>>>>>>>>>>>>>>>>>>>//
  //              Dimer HF             //
  //<<<<<<<<<<<<<<<<<<<<<<<<<<<<<<<<<<<//

   => Libint2 <=

    Primary   basis highest AM E, G, H:  7, 7, 4
    Auxiliary basis highest AM E, G, H:  7, 7, 5
    Onebody   basis highest AM E, G, H:  7, 7, 5
    Solid Harmonics ordering:            gaussian

*** tstart() called on d-6-6-3
*** at Sat Jan 20 22:15:00 2024

   => Loading Basis Set <=

    Name: JUN-CC-PVDZ
    Role: ORBITAL
    Keyword: BASIS
    atoms 1     entry B          line   130 file /home/gridsan/tfroembgen/.conda/envs/psi4test/share/psi4/basis/jun-cc-pvdz.gbs 
    atoms 2-5   entry F          line   266 file /home/gridsan/tfroembgen/.conda/envs/psi4test/share/psi4/basis/jun-cc-pvdz.gbs 
    atoms 6-59  entry C          line   164 file /home/gridsan/tfroembgen/.conda/envs/psi4test/share/psi4/basis/jun-cc-pvdz.gbs 
    atoms 60-77 entry H          line    36 file /home/gridsan/tfroembgen/.conda/envs/psi4test/share/psi4/basis/jun-cc-pvdz.gbs 


         ---------------------------------------------------------
                                   SCF
               by Justin Turney, Rob Parrish, Andy Simmonett
                          and Daniel G. A. Smith
                              RHF Reference
                       12 Threads,  30517 MiB Core
         ---------------------------------------------------------

  ==> Geometry <==

    Molecular point group: c1
    Full point group: C1

    Geometry (in Angstrom), charge = -1, multiplicity = 1:

       Center              X                  Y                   Z               Mass       
    ------------   -----------------  -----------------  -----------------  -----------------
         B           -0.000198161052     0.000273808717    -1.945820519476    11.009305360000
         F           -0.000000401852    -0.000000464183    -0.533035519476    18.998403162730
         F            1.147859598148     0.675780735817    -2.416961519476    18.998403162730
         F            0.011917658148    -1.332011464183    -2.416759519476    18.998403162730
         F           -1.159666401852     0.656073035817    -2.416680519476    18.998403162730
         C            1.225311973413     0.707538196736     0.260283107808    12.000000000000
         C            1.225323934041    -0.707538986754     0.247952298238    12.000000000000
         C           -0.000006075942     1.414965821907     0.247418674717    12.000000000000
         C            2.456448831939     1.418327794995     0.263169965208    12.000000000000
         C            0.000010905269    -1.414976590818     0.257618232041    12.000000000000
         C           -1.225300870919     0.707545281801     0.262534628131    12.000000000000
         C            2.456437833310    -1.418323396064     0.245707141381    12.000000000000
         C           -0.000001254988     2.836800939098     0.245015124583    12.000000000000
         C            3.681826775460     0.709317863818     0.246055931179    12.000000000000
         C            2.455120126855     2.834223569306     0.245953374218    12.000000000000
         C            3.681821183209    -0.709333931612     0.262128415197    12.000000000000
         C           -1.225313520698    -0.707527607727     0.249025059665    12.000000000000
         C            1.226699659192     3.543469391811     0.262312447128    12.000000000000
         C            0.000004862847    -2.836782231419     0.262466399663    12.000000000000
         C           -2.456435954859     1.418316826102     0.262570023976    12.000000000000
         C            2.455123495769    -2.834230120772     0.261976506830    12.000000000000
         C           -1.226714286599     3.543468971567     0.262415780347    12.000000000000
         C            4.914517373191     1.427172780306     0.252536614208    12.000000000000
         C            3.693150269466     3.542795200362     0.252586413845    12.000000000000
         C           -2.456437522078    -1.418313373022     0.245682103256    12.000000000000
         C            1.226704919933    -3.543474334090     0.246342316378    12.000000000000
         C           -2.455125320518     2.834216570451     0.245959750564    12.000000000000
         C            4.914524458772    -1.427187002127     0.255509356943    12.000000000000
         C            1.221424691688     4.970133973077     0.255647791203    12.000000000000
         C            4.893008307311     2.825187907843     0.253753282567    12.000000000000
         C           -1.226696930499    -3.543471089260     0.246609520788    12.000000000000
         C           -3.681818898536     0.709324874549     0.246068611659    12.000000000000
         C            3.693147179140    -3.542801433574     0.255627247504    12.000000000000
         C           -1.221432174004     4.970128205680     0.255831286575    12.000000000000
         C            6.134771050916     0.680547854922     0.253306388758    12.000000000000
         C            3.656788958600     4.972953151384     0.253495051627    12.000000000000
         C           -2.455126829744    -2.834215185244     0.261732149032    12.000000000000
         C           -3.681819101071    -0.709325795652     0.262246036776    12.000000000000
         C            4.893012695903    -2.825200197815     0.254364434462    12.000000000000
         C           -0.000000995123     5.650447273849     0.254599977868    12.000000000000
         C            6.134775190322    -0.680554946258     0.254571709274    12.000000000000
         C            2.478131560845     5.653576659148     0.254783831277    12.000000000000
         C            1.221422482727    -4.970127147116     0.252848294180    12.000000000000
         C           -3.693162305975     3.542796862009     0.252751921304    12.000000000000
         C           -1.221428442955    -4.970118395779     0.252735532347    12.000000000000
         C           -4.914521729952     1.427175354812     0.252613559216    12.000000000000
         C            3.656787097669    -4.972955318422     0.254945552161    12.000000000000
         C           -2.478138452116     5.653574330345     0.255068356286    12.000000000000
         C           -3.693141660574    -3.542790311162     0.255511121348    12.000000000000
         C           -4.914512405063    -1.427181092211     0.255544054117    12.000000000000
         C           -0.000005930936    -5.650438379197     0.254204473747    12.000000000000
         C           -4.893020406111     2.825188506736     0.253743200707    12.000000000000
         C            2.478126071288    -5.653573636072     0.253854951369    12.000000000000
         C           -3.656798632268     4.972956089858     0.253671732002    12.000000000000
         C           -4.892999400866    -2.825191859243     0.254210398765    12.000000000000
         C           -2.478128420093    -5.653566262190     0.253579763722    12.000000000000
         C           -6.134770425341     0.680548674073     0.253280837056    12.000000000000
         C           -3.656788755199    -4.972944115154     0.254731264344    12.000000000000
         C           -6.134764964923    -0.680554007665     0.254551233479    12.000000000000
         H            5.835288573806     3.369275802771     0.258112608230     1.007825032230
         H            7.073859250737     1.228217156716     0.253768032151     1.007825032230
         H            4.600663342164     5.512380710270     0.254000252379     1.007825032230
         H            5.835283465295    -3.369306148912     0.249909967148     1.007825032230
         H           -0.000012073316     6.738530581953     0.250250732860     1.007825032230
         H            7.073861249820    -1.228227034927     0.254062971180     1.007825032230
         H            2.473313809789     6.740684199211     0.254317110347     1.007825032230
         H            4.600668569371    -5.512376221359     0.254535554993     1.007825032230
         H           -2.473318602548     6.740681627423     0.254618456972     1.007825032230
         H           -0.000010190238    -6.738528268635     0.258734158732     1.007825032230
         H           -5.835301836354     3.369270858113     0.258248630378     1.007825032230
         H            2.473308001821    -6.740685466612     0.254425281794     1.007825032230
         H           -4.600674763218     5.512377934420     0.254165580703     1.007825032230
         H           -5.835279428845    -3.369289055963     0.249630661267     1.007825032230
         H           -2.473300269450    -6.740679170323     0.253975965249     1.007825032230
         H           -7.073857688778     1.228220380657     0.253684040671     1.007825032230
         H           -4.600673708095    -5.512362761970     0.254363246970     1.007825032230
         H           -7.073856856419    -1.228220724160     0.253968114713     1.007825032230

  Running in c1 symmetry.

  Rotational constants: A =      0.00209  B =      0.00209  C =      0.00110 [cm^-1]
  Rotational constants: A =     62.58965  B =     62.58059  C =     33.02251 [MHz]
  Nuclear repulsion = 8203.397574295080631

  Charge       = -1
  Multiplicity = 1
  Electrons    = 384
  Nalpha       = 192
  Nbeta        = 192

  ==> Algorithm <==

  SCF Algorithm Type is DF.
  DIIS enabled.
  MOM disabled.
  Fractional occupation disabled.
  Guess Type is SAD.
  Energy threshold   = 1.00e-08
  Density threshold  = 1.00e-08
  Integral threshold = 1.00e-12

  ==> Primary Basis <==

  Basis Set: JUN-CC-PVDZ
    Blend: JUN-CC-PVDZ
    Number of shells: 526
    Number of basis functions: 1152
    Number of Cartesian functions: 1211
    Spherical Harmonics?: true
    Max angular momentum: 2

   => Loading Basis Set <=

    Name: (JUN-CC-PVDZ AUX)
    Role: JKFIT
    Keyword: DF_BASIS_SCF
    atoms 1     entry B          line    90 file /home/gridsan/tfroembgen/.conda/envs/psi4test/share/psi4/basis/jun-cc-pvdz-jkfit.gbs 
    atoms 2-5   entry F          line   314 file /home/gridsan/tfroembgen/.conda/envs/psi4test/share/psi4/basis/jun-cc-pvdz-jkfit.gbs 
    atoms 6-59  entry C          line   146 file /home/gridsan/tfroembgen/.conda/envs/psi4test/share/psi4/basis/jun-cc-pvdz-jkfit.gbs 
    atoms 60-77 entry H          line    70 file /home/gridsan/tfroembgen/.conda/envs/psi4test/share/psi4/basis/jun-cc-pvdz-jkfit.gbs 

  ==> Integral Setup <==

  ==> DiskDFJK: Density-Fitted J/K Matrices <==

    J tasked:                  Yes
    K tasked:                  Yes
    wK tasked:                  No
    OpenMP threads:             12
    Integrals threads:          12
    Memory [MiB]:            22888
    Algorithm:                Core
    Integral Cache:           SAVE
    Schwarz Cutoff:          1E-12
    Fitting Condition:       1E-10

   => Auxiliary Basis Set <=

  Basis Set: (JUN-CC-PVDZ AUX)
    Blend: JUN-CC-PVDZ-JKFIT
    Number of shells: 1755
    Number of basis functions: 5075
    Number of Cartesian functions: 5819
    Spherical Harmonics?: true
    Max angular momentum: 3

  Minimum eigenvalue in the overlap matrix is 5.0937421865E-10.
  Reciprocal condition number of the overlap matrix is 2.0227277114E-11.
    Using canonical orthogonalization.
  Overall, 14 of 1152 possible MOs eliminated.


  ==> Pre-Iterations <==

  SCF Guess: Superposition of Atomic Densities via on-the-fly atomic UHF (no occupation information).

   -------------------------
    Irrep   Nso     Nmo    
   -------------------------
     A       1152    1138 
   -------------------------
    Total    1152    1138
   -------------------------

  ==> Iterations <==

                           Total Energy        Delta E     RMS |[F,P]|

   @DF-RHF iter SAD: -2486.25635317286833   -2.48626e+03   0.00000e+00 
   @DF-RHF iter   1: -2476.80128412238128    9.45507e+00   1.11206e-03 ADIIS/DIIS
   @DF-RHF iter   2: -2477.72558608955660   -9.24302e-01   4.76885e-04 ADIIS/DIIS
   @DF-RHF iter   3: -2477.87025704992402   -1.44671e-01   1.50203e-04 ADIIS/DIIS
   @DF-RHF iter   4: -2477.88647077641781   -1.62137e-02   6.57356e-05 DIIS
   @DF-RHF iter   5: -2477.88991262799755   -3.44185e-03   2.36065e-05 DIIS
   @DF-RHF iter   6: -2477.89034515787216   -4.32530e-04   7.18250e-06 DIIS
   @DF-RHF iter   7: -2477.89043941729324   -9.42594e-05   3.99863e-06 DIIS
   @DF-RHF iter   8: -2477.89047643741833   -3.70201e-05   1.54980e-06 DIIS
   @DF-RHF iter   9: -2477.89049140108727   -1.49637e-05   5.83261e-07 DIIS
   @DF-RHF iter  10: -2477.89049282126598   -1.42018e-06   2.28218e-07 DIIS
   @DF-RHF iter  11: -2477.89049300565830   -1.84392e-07   1.25437e-07 DIIS
   @DF-RHF iter  12: -2477.89049307831192   -7.26536e-08   8.42282e-08 DIIS
   @DF-RHF iter  13: -2477.89049312536963   -4.70577e-08   6.79635e-08 DIIS
   @DF-RHF iter  14: -2477.89049316200635   -3.66367e-08   4.63785e-08 DIIS
   @DF-RHF iter  15: -2477.89049319439391   -3.23876e-08   2.65552e-08 DIIS
   @DF-RHF iter  16: -2477.89049320229833   -7.90442e-09   1.17473e-08 DIIS
   @DF-RHF iter  17: -2477.89049320292725   -6.28916e-10   6.27734e-09 DIIS
  Energy and wave function converged.


  ==> Post-Iterations <==

    Orbital Energies [Eh]
    ---------------------

    Doubly Occupied:                                                      

       1A    -26.178578     2A    -26.144401     3A    -26.144335  
       4A    -26.144283     5A    -11.169769     6A    -11.169342  
       7A    -11.169195     8A    -11.168199     9A    -11.168039  
      10A    -11.167720    11A    -11.167712    12A    -11.167710  
      13A    -11.167665    14A    -11.167658    15A    -11.167655  
      16A    -11.167590    17A    -11.167443    18A    -11.167435  
      19A    -11.167433    20A    -11.167387    21A    -11.167384  
      22A    -11.167379    23A    -11.166592    24A    -11.166587  
      25A    -11.166585    26A    -11.166570    27A    -11.166567  
      28A    -11.166562    29A    -11.165338    30A    -11.165338  
      31A    -11.165334    32A    -11.165330    33A    -11.165328  
      34A    -11.165325    35A    -11.159978    36A    -11.159964  
      37A    -11.159962    38A    -11.159894    39A    -11.159891  
      40A    -11.159870    41A    -11.159864    42A    -11.159859  
      43A    -11.159848    44A    -11.159777    45A    -11.159757  
      46A    -11.159747    47A    -11.158854    48A    -11.158839  
      49A    -11.158829    50A    -11.158794    51A    -11.158787  
      52A    -11.158772    53A    -11.153292    54A    -11.153253  
      55A    -11.153245    56A    -11.152395    57A    -11.152304  
      58A    -11.152203    59A     -7.641397    60A     -1.713962  
      61A     -1.473773    62A     -1.429669    63A     -1.429549  
      64A     -1.139244    65A     -1.129973    66A     -1.129945  
      67A     -1.095922    68A     -1.095917    69A     -1.077816  
      70A     -1.072663    71A     -1.072522    72A     -1.066177  
      73A     -1.056017    74A     -1.022341    75A     -1.022333  
      76A     -0.993355    77A     -0.988301    78A     -0.988291  
      79A     -0.986607    80A     -0.986520    81A     -0.968490  
      82A     -0.968433    83A     -0.946657    84A     -0.927419  
      85A     -0.927131    86A     -0.926359    87A     -0.893613  
      88A     -0.893567    89A     -0.881861    90A     -0.881795  
      91A     -0.846026    92A     -0.815438    93A     -0.815369  
      94A     -0.804141    95A     -0.804110    96A     -0.796106  
      97A     -0.796039    98A     -0.770969    99A     -0.757995  
     100A     -0.757943   101A     -0.749540   102A     -0.726297  
     103A     -0.722238   104A     -0.719308   105A     -0.705354  
     106A     -0.705345   107A     -0.672917   108A     -0.672907  
     109A     -0.653617   110A     -0.652307   111A     -0.648297  
     112A     -0.648264   113A     -0.639312   114A     -0.635529  
     115A     -0.635509   116A     -0.607894   117A     -0.607881  
     118A     -0.596704   119A     -0.596677   120A     -0.581431  
     121A     -0.581404   122A     -0.579445   123A     -0.570928  
     124A     -0.568803   125A     -0.557324   126A     -0.555619  
     127A     -0.555613   128A     -0.549253   129A     -0.549252  
     130A     -0.527804   131A     -0.524517   132A     -0.524507  
     133A     -0.520708   134A     -0.511252   135A     -0.511102  
     136A     -0.509855   137A     -0.509830   138A     -0.508206  
     139A     -0.508175   140A     -0.499938   141A     -0.497726  
     142A     -0.490741   143A     -0.490710   144A     -0.481821  
     145A     -0.481762   146A     -0.481059   147A     -0.481053  
     148A     -0.471406   149A     -0.470483   150A     -0.470317  
     151A     -0.470275   152A     -0.468459   153A     -0.468456  
     154A     -0.459333   155A     -0.458273   156A     -0.458260  
     157A     -0.445766   158A     -0.445758   159A     -0.437028  
     160A     -0.437016   161A     -0.435680   162A     -0.432846  
     163A     -0.432831   164A     -0.410686   165A     -0.406695  
     166A     -0.402853   167A     -0.395856   168A     -0.392261  
     169A     -0.387539   170A     -0.387482   171A     -0.384544  
     172A     -0.362746   173A     -0.362635   174A     -0.349976  
     175A     -0.349973   176A     -0.346839   177A     -0.346706  
     178A     -0.311520   179A     -0.311484   180A     -0.286178  
     181A     -0.286174   182A     -0.284057   183A     -0.258872  
     184A     -0.239560   185A     -0.221277   186A     -0.206978  
     187A     -0.200880   188A     -0.200761   189A     -0.192959  
     190A     -0.192921   191A     -0.108266   192A     -0.108159  

    Virtual:                                                              

     193A      0.096479   194A      0.096547   195A      0.112205  
     196A      0.112214   197A      0.112863   198A      0.114486  
     199A      0.114490   200A      0.121283   201A      0.125302  
     202A      0.136257   203A      0.136258   204A      0.143716  
     205A      0.151057   206A      0.151058   207A      0.157098  
     208A      0.158736   209A      0.158738   210A      0.161261  
     211A      0.161265   212A      0.163916   213A      0.163917  
     214A      0.164382   215A      0.167704   216A      0.167721  
     217A      0.170174   218A      0.170905   219A      0.172615  
     220A      0.175279   221A      0.181844   222A      0.181849  
     223A      0.183558   224A      0.186964   225A      0.188959  
     226A      0.188965   227A      0.192540   228A      0.192548  
     229A      0.195534   230A      0.195537   231A      0.201880  
     232A      0.202932   233A      0.206676   234A      0.206679  
     235A      0.207020   236A      0.211589   237A      0.213754  
     238A      0.218391   239A      0.218393   240A      0.219554  
     241A      0.219568   242A      0.226807   243A      0.226811  
     244A      0.227393   245A      0.227397   246A      0.236420  
     247A      0.241480   248A      0.246290   249A      0.246331  
     250A      0.249094   251A      0.255536   252A      0.255619  
     253A      0.255630   254A      0.258685   255A      0.258716  
     256A      0.264214   257A      0.264272   258A      0.265955  
     259A      0.265971   260A      0.272084   261A      0.272095  
     262A      0.272934   263A      0.272947   264A      0.276482  
     265A      0.278327   266A      0.279817   267A      0.279823  
     268A      0.280382   269A      0.281721   270A      0.282253  
     271A      0.284932   272A      0.284954   273A      0.288576  
     274A      0.288599   275A      0.289243   276A      0.295545  
     277A      0.297211   278A      0.297219   279A      0.298049  
     280A      0.298939   281A      0.298952   282A      0.301488  
     283A      0.301518   284A      0.301736   285A      0.303509  
     286A      0.310742   287A      0.310754   288A      0.312165  
     289A      0.314287   290A      0.314294   291A      0.317728  
     292A      0.324294   293A      0.324304   294A      0.328479  
     295A      0.328486   296A      0.329719   297A      0.329727  
     298A      0.331162   299A      0.338847   300A      0.338875  
     301A      0.341143   302A      0.341184   303A      0.346010  
     304A      0.346022   305A      0.351662   306A      0.353826  
     307A      0.353831   308A      0.359987   309A      0.359999  
     310A      0.360995   311A      0.367476   312A      0.367504  
     313A      0.370018   314A      0.370025   315A      0.371222  
     316A      0.372507   317A      0.372620   318A      0.372650  
     319A      0.377687   320A      0.377713   321A      0.379589  
     322A      0.381574   323A      0.381616   324A      0.383562  
     325A      0.383581   326A      0.385504   327A      0.387305  
     328A      0.388802   329A      0.388805   330A      0.390575  
     331A      0.392794   332A      0.396058   333A      0.398180  
     334A      0.398213   335A      0.399644   336A      0.404095  
     337A      0.404183   338A      0.405242   339A      0.408094  
     340A      0.408448   341A      0.410657   342A      0.413381  
     343A      0.413451   344A      0.417003   345A      0.420335  
     346A      0.420347   347A      0.424930   348A      0.424958  
     349A      0.425372   350A      0.429522   351A      0.429525  
     352A      0.432181   353A      0.435550   354A      0.442039  
     355A      0.442075   356A      0.452562   357A      0.452600  
     358A      0.454056   359A      0.454650   360A      0.454665  
     361A      0.455156   362A      0.461543   363A      0.461605  
     364A      0.464281   365A      0.465995   366A      0.466013  
     367A      0.468420   368A      0.468489   369A      0.469250  
     370A      0.471100   371A      0.471176   372A      0.471540  
     373A      0.473957   374A      0.476989   375A      0.477018  
     376A      0.478704   377A      0.479157   378A      0.479176  
     379A      0.483648   380A      0.483678   381A      0.484090  
     382A      0.487193   383A      0.494281   384A      0.494297  
     385A      0.499830   386A      0.502006   387A      0.502233  
     388A      0.502308   389A      0.502755   390A      0.502777  
     391A      0.509932   392A      0.509947   393A      0.511169  
     394A      0.517058   395A      0.517261   396A      0.517759  
     397A      0.517857   398A      0.518293   399A      0.518768  
     400A      0.518829   401A      0.523216   402A      0.526485  
     403A      0.526503   404A      0.532318   405A      0.532368  
     406A      0.533038   407A      0.535943   408A      0.535976  
     409A      0.536657   410A      0.538478   411A      0.538586  
     412A      0.545563   413A      0.545636   414A      0.546060  
     415A      0.546086   416A      0.546103   417A      0.549574  
     418A      0.552809   419A      0.552831   420A      0.557528  
     421A      0.557593   422A      0.558222   423A      0.561098  
     424A      0.561877   425A      0.563148   426A      0.563233  
     427A      0.570047   428A      0.570099   429A      0.572154  
     430A      0.576545   431A      0.576599   432A      0.581065  
     433A      0.581169   434A      0.583191   435A      0.590335  
     436A      0.590389   437A      0.590492   438A      0.593815  
     439A      0.593900   440A      0.594624   441A      0.597003  
     442A      0.597043   443A      0.603335   444A      0.603400  
     445A      0.609682   446A      0.611540   447A      0.612878  
     448A      0.612920   449A      0.617417   450A      0.617480  
     451A      0.623484   452A      0.625718   453A      0.628013  
     454A      0.628039   455A      0.629342   456A      0.630807  
     457A      0.630832   458A      0.631598   459A      0.631678  
     460A      0.633304   461A      0.635724   462A      0.635780  
     463A      0.639864   464A      0.641522   465A      0.648362  
     466A      0.653067   467A      0.653330   468A      0.653401  
     469A      0.654479   470A      0.654562   471A      0.655918  
     472A      0.658332   473A      0.670608   474A      0.679626  
     475A      0.681116   476A      0.681306   477A      0.681933  
     478A      0.691038   479A      0.691245   480A      0.701535  
     481A      0.701675   482A      0.707875   483A      0.708300  
     484A      0.708570   485A      0.715571   486A      0.715678  
     487A      0.728135   488A      0.728234   489A      0.735468  
     490A      0.740441   491A      0.740458   492A      0.748653  
     493A      0.752113   494A      0.752189   495A      0.759314  
     496A      0.765593   497A      0.766565   498A      0.766592  
     499A      0.770181   500A      0.802696   501A      0.802735  
     502A      0.815986   503A      0.817691   504A      0.817806  
     505A      0.825454   506A      0.830680   507A      0.830782  
     508A      0.831785   509A      0.839024   510A      0.839156  
     511A      0.849941   512A      0.849984   513A      0.866254  
     514A      0.881323   515A      0.885493   516A      0.885505  
     517A      0.888831   518A      0.893017   519A      0.899087  
     520A      0.899157   521A      0.901427   522A      0.907159  
     523A      0.907336   524A      0.907343   525A      0.909152  
     526A      0.910359   527A      0.910444   528A      0.913020  
     529A      0.913382   530A      0.915343   531A      0.915390  
     532A      0.928218   533A      0.944228   534A      0.944235  
     535A      0.953974   536A      0.954017   537A      0.958551  
     538A      0.958596   539A      0.959071   540A      0.962023  
     541A      0.965602   542A      0.965639   543A      0.973643  
     544A      0.973727   545A      0.981197   546A      0.981254  
     547A      0.984148   548A      0.984239   549A      0.986534  
     550A      0.995148   551A      0.996842   552A      0.998356  
     553A      0.998377   554A      1.000304   555A      1.002146  
     556A      1.002236   557A      1.002603   558A      1.003903  
     559A      1.004048   560A      1.010540   561A      1.019369  
     562A      1.019454   563A      1.020686   564A      1.025797  
     565A      1.027020   566A      1.027136   567A      1.030399  
     568A      1.030471   569A      1.035627   570A      1.035681  
     571A      1.035842   572A      1.042255   573A      1.042292  
     574A      1.045017   575A      1.053676   576A      1.057014  
     577A      1.057837   578A      1.057937   579A      1.060561  
     580A      1.060839   581A      1.068909   582A      1.069361  
     583A      1.081410   584A      1.081465   585A      1.086433  
     586A      1.086879   587A      1.086943   588A      1.092850  
     589A      1.097785   590A      1.097819   591A      1.100277  
     592A      1.105045   593A      1.105100   594A      1.107376  
     595A      1.115964   596A      1.116009   597A      1.122198  
     598A      1.125409   599A      1.127553   600A      1.127605  
     601A      1.129357   602A      1.129424   603A      1.133580  
     604A      1.134332   605A      1.134374   606A      1.140714  
     607A      1.140749   608A      1.141435   609A      1.144139  
     610A      1.144198   611A      1.144774   612A      1.147276  
     613A      1.149276   614A      1.149475   615A      1.158747  
     616A      1.158791   617A      1.161950   618A      1.166176  
     619A      1.166251   620A      1.170350   621A      1.172809  
     622A      1.172873   623A      1.180326   624A      1.180458  
     625A      1.186191   626A      1.186241   627A      1.190938  
     628A      1.190958   629A      1.192767   630A      1.192808  
     631A      1.197403   632A      1.205349   633A      1.205453  
     634A      1.206817   635A      1.206845   636A      1.209829  
     637A      1.212618   638A      1.212671   639A      1.218527  
     640A      1.227985   641A      1.230640   642A      1.230762  
     643A      1.234214   644A      1.236183   645A      1.243568  
     646A      1.245684   647A      1.245826   648A      1.250505  
     649A      1.250537   650A      1.252544   651A      1.252741  
     652A      1.252783   653A      1.254895   654A      1.268745  
     655A      1.269417   656A      1.271864   657A      1.271916  
     658A      1.275149   659A      1.275217   660A      1.289310  
     661A      1.291151   662A      1.291309   663A      1.295002  
     664A      1.295034   665A      1.308816   666A      1.308876  
     667A      1.309572   668A      1.311991   669A      1.315731  
     670A      1.315757   671A      1.324579   672A      1.324679  
     673A      1.326834   674A      1.326981   675A      1.327942  
     676A      1.343252   677A      1.343376   678A      1.349128  
     679A      1.349185   680A      1.355916   681A      1.355947  
     682A      1.357650   683A      1.357698   684A      1.363914  
     685A      1.364568   686A      1.365312   687A      1.384084  
     688A      1.387799   689A      1.388865   690A      1.395877  
     691A      1.397610   692A      1.399055   693A      1.399123  
     694A      1.404574   695A      1.404637   696A      1.409590  
     697A      1.412950   698A      1.412957   699A      1.414756  
     700A      1.414769   701A      1.420441   702A      1.420501  
     703A      1.426526   704A      1.428838   705A      1.428890  
     706A      1.430057   707A      1.438523   708A      1.445750  
     709A      1.445782   710A      1.448331   711A      1.448360  
     712A      1.457575   713A      1.459176   714A      1.459327  
     715A      1.466153   716A      1.472545   717A      1.472707  
     718A      1.473074   719A      1.486113   720A      1.486174  
     721A      1.493842   722A      1.494514   723A      1.494537  
     724A      1.504206   725A      1.505255   726A      1.505348  
     727A      1.508131   728A      1.510187   729A      1.510263  
     730A      1.521298   731A      1.524251   732A      1.524515  
     733A      1.527882   734A      1.527925   735A      1.530643  
     736A      1.533392   737A      1.533434   738A      1.541122  
     739A      1.541517   740A      1.541605   741A      1.550195  
     742A      1.550402   743A      1.562620   744A      1.562748  
     745A      1.564125   746A      1.581645   747A      1.581778  
     748A      1.611266   749A      1.613085   750A      1.613197  
     751A      1.622350   752A      1.645197   753A      1.649898  
     754A      1.649962   755A      1.668436   756A      1.684999  
     757A      1.687263   758A      1.687833   759A      1.694604  
     760A      1.694923   761A      1.715384   762A      1.715866  
     763A      1.716686   764A      1.721047   765A      1.721172  
     766A      1.729492   767A      1.729840   768A      1.729986  
     769A      1.738302   770A      1.738457   771A      1.743371  
     772A      1.747566   773A      1.747652   774A      1.748626  
     775A      1.748793   776A      1.756987   777A      1.757157  
     778A      1.758743   779A      1.763824   780A      1.766540  
     781A      1.766628   782A      1.767475   783A      1.776444  
     784A      1.776530   785A      1.778900   786A      1.785609  
     787A      1.785671   788A      1.788114   789A      1.797279  
     790A      1.797377   791A      1.802400   792A      1.802586  
     793A      1.805599   794A      1.824612   795A      1.824969  
     796A      1.826529   797A      1.829194   798A      1.835134  
     799A      1.835408   800A      1.840963   801A      1.846272  
     802A      1.855865   803A      1.857110   804A      1.857295  
     805A      1.870290   806A      1.870413   807A      1.888055  
     808A      1.888140   809A      1.896604   810A      1.901903  
     811A      1.901945   812A      1.912107   813A      1.925256  
     814A      1.925353   815A      1.934635   816A      1.935920  
     817A      1.936049   818A      1.939923   819A      1.941803  
     820A      1.948942   821A      1.949256   822A      1.949320  
     823A      1.949772   824A      1.958818   825A      1.958850  
     826A      1.969435   827A      1.974026   828A      1.974096  
     829A      1.984893   830A      1.985163   831A      1.989378  
     832A      1.989524   833A      1.999931   834A      2.000122  
     835A      2.001989   836A      2.005337   837A      2.005492  
     838A      2.011354   839A      2.011982   840A      2.012253  
     841A      2.013119   842A      2.020870   843A      2.021154  
     844A      2.023185   845A      2.027503   846A      2.029247  
     847A      2.029292   848A      2.030585   849A      2.030717  
     850A      2.045127   851A      2.045268   852A      2.049877  
     853A      2.050699   854A      2.059555   855A      2.067257  
     856A      2.067402   857A      2.079437   858A      2.079510  
     859A      2.087945   860A      2.088071   861A      2.089008  
     862A      2.089094   863A      2.100872   864A      2.100959  
     865A      2.108486   866A      2.110913   867A      2.111458  
     868A      2.111762   869A      2.121771   870A      2.124635  
     871A      2.124779   872A      2.127059   873A      2.137484  
     874A      2.137545   875A      2.140519   876A      2.146073  
     877A      2.146206   878A      2.153332   879A      2.153703  
     880A      2.153874   881A      2.163204   882A      2.163321  
     883A      2.165603   884A      2.173069   885A      2.173212  
     886A      2.175960   887A      2.176115   888A      2.177825  
     889A      2.180496   890A      2.184165   891A      2.184953  
     892A      2.185127   893A      2.189811   894A      2.191497  
     895A      2.195240   896A      2.195337   897A      2.195923  
     898A      2.199055   899A      2.203013   900A      2.203053  
     901A      2.209285   902A      2.209327   903A      2.220914  
     904A      2.221114   905A      2.223562   906A      2.225434  
     907A      2.225676   908A      2.226093   909A      2.231529  
     910A      2.231571   911A      2.233533   912A      2.234311  
     913A      2.234443   914A      2.246892   915A      2.248921  
     916A      2.248991   917A      2.256667   918A      2.256764  
     919A      2.266594   920A      2.269359   921A      2.269731  
     922A      2.273229   923A      2.277863   924A      2.277927  
     925A      2.279712   926A      2.280849   927A      2.280968  
     928A      2.287132   929A      2.308782   930A      2.309034  
     931A      2.309892   932A      2.311327   933A      2.314472  
     934A      2.314713   935A      2.315821   936A      2.325359  
     937A      2.327579   938A      2.327853   939A      2.328169  
     940A      2.328517   941A      2.335120   942A      2.335672  
     943A      2.335827   944A      2.345199   945A      2.345316  
     946A      2.353082   947A      2.353148   948A      2.359475  
     949A      2.359587   950A      2.367167   951A      2.376382  
     952A      2.376772   953A      2.386952   954A      2.390028  
     955A      2.391772   956A      2.392199   957A      2.397495  
     958A      2.412909   959A      2.413227   960A      2.417746  
     961A      2.422987   962A      2.424183   963A      2.436824  
     964A      2.437210   965A      2.448075   966A      2.451746  
     967A      2.452071   968A      2.466739   969A      2.466958  
     970A      2.469704   971A      2.470030   972A      2.476026  
     973A      2.484208   974A      2.499875   975A      2.499911  
     976A      2.504342   977A      2.517365   978A      2.525342  
     979A      2.536388   980A      2.543669   981A      2.543807  
     982A      2.561464   983A      2.578370   984A      2.578398  
     985A      2.586498   986A      2.586709   987A      2.598435  
     988A      2.611959   989A      2.614671   990A      2.630118  
     991A      2.638267   992A      2.638472   993A      2.641929  
     994A      2.641945   995A      2.645380   996A      2.648978  
     997A      2.649017   998A      2.656396   999A      2.662642  
    1000A      2.662955  1001A      2.665848  1002A      2.665858  
    1003A      2.679314  1004A      2.680250  1005A      2.680990  
    1006A      2.681105  1007A      2.685635  1008A      2.698107  
    1009A      2.721836  1010A      2.721934  1011A      2.724751  
    1012A      2.725148  1013A      2.730894  1014A      2.731070  
    1015A      2.737762  1016A      2.742028  1017A      2.742322  
    1018A      2.749761  1019A      2.773776  1020A      2.775793  
    1021A      2.776434  1022A      2.788008  1023A      2.788188  
    1024A      2.789056  1025A      2.804958  1026A      2.805098  
    1027A      2.811566  1028A      2.812121  1029A      2.823021  
    1030A      2.823529  1031A      2.831245  1032A      2.831951  
    1033A      2.854547  1034A      2.867761  1035A      2.867894  
    1036A      2.871231  1037A      2.873872  1038A      2.874510  
    1039A      2.917268  1040A      2.921252  1041A      2.924547  
    1042A      2.939243  1043A      2.952640  1044A      2.964354  
    1045A      2.967543  1046A      2.967808  1047A      2.981694  
    1048A      2.981995  1049A      3.006229  1050A      3.006250  
    1051A      3.020826  1052A      3.037960  1053A      3.038085  
    1054A      3.052334  1055A      3.061930  1056A      3.062208  
    1057A      3.100696  1058A      3.103413  1059A      3.103478  
    1060A      3.140480  1061A      3.152575  1062A      3.152599  
    1063A      3.160659  1064A      3.166496  1065A      3.166572  
    1066A      3.194623  1067A      3.194831  1068A      3.220165  
    1069A      3.220263  1070A      3.229941  1071A      3.233438  
    1072A      3.233479  1073A      3.234997  1074A      3.239867  
    1075A      3.239920  1076A      3.249439  1077A      3.250377  
    1078A      3.250939  1079A      3.262942  1080A      3.263433  
    1081A      3.279908  1082A      3.282928  1083A      3.283176  
    1084A      3.298746  1085A      3.308736  1086A      3.317810  
    1087A      3.354845  1088A      3.377121  1089A      3.377814  
    1090A      3.398656  1091A      3.404174  1092A      3.404991  
    1093A      3.501856  1094A      3.502101  1095A      3.579819  
    1096A      3.581753  1097A      3.655445  1098A      3.687054  
    1099A      3.687857  1100A      3.711945  1101A      3.718434  
    1102A      3.720170  1103A      3.750774  1104A      3.766509  
    1105A      3.876959  1106A      3.886991  1107A      3.887387  
    1108A      3.963624  1109A      3.963689  1110A      3.984525  
    1111A      4.007764  1112A      4.007789  1113A      4.072948  
    1114A      4.077257  1115A      4.097579  1116A      4.108046  
    1117A      4.135256  1118A      4.147065  1119A      4.153297  
    1120A      4.194219  1121A      4.195431  1122A      4.204567  
    1123A      4.204884  1124A      4.299168  1125A      4.319664  
    1126A      4.320569  1127A      4.327157  1128A      4.517990  
    1129A      4.582958  1130A      4.622384  1131A      4.622469  
    1132A      4.654709  1133A      4.656597  1134A      4.688857  
    1135A      4.689399  1136A      4.743049  1137A      4.813966  
    1138A      4.815266  

    Final Occupation by Irrep:
              A 
    DOCC [   192 ]
    NA   [   192 ]
    NB   [   192 ]

  @DF-RHF Final Energy: -2477.89049320292725

   => Energetics <=

    Nuclear Repulsion Energy =           8203.3975742950806307
    One-Electron Energy =              -19763.6354886061344587
    Two-Electron Energy =                9082.3474211081265821
    Total Energy =                      -2477.8904932029272459

Computation Completed


Properties will be evaluated at   0.000000,   0.000000,   0.000000 [a0]

Properties computed using the SCF density matrix


 Multipole Moments:

 ------------------------------------------------------------------------------------
     Multipole            Electronic (a.u.)      Nuclear  (a.u.)        Total (a.u.)
 ------------------------------------------------------------------------------------

 L = 1.  Multiply by 2.5417464519 to convert [e a0] to [Debye]
 Dipole X            :         -0.0001014            0.0000481           -0.0000533
 Dipole Y            :          0.0002058           -0.0001453            0.0000605
 Dipole Z            :        -11.8242072           13.4868893            1.6626820
 Magnitude           :                                                    1.6626820

 ------------------------------------------------------------------------------------

*** tstop() called on d-6-6-3 at Sat Jan 20 22:22:57 2024
Module time:
	user time   =    4353.62 seconds =      72.56 minutes
	system time =     100.33 seconds =       1.67 minutes
	total time  =        477 seconds =       7.95 minutes
Total time:
	user time   =    4353.62 seconds =      72.56 minutes
	system time =     100.33 seconds =       1.67 minutes
	total time  =        477 seconds =       7.95 minutes

  //>>>>>>>>>>>>>>>>>>>>>>>>>>>>>>>>>>>//
  //            Monomer A HF           //
  //<<<<<<<<<<<<<<<<<<<<<<<<<<<<<<<<<<<//

   => Libint2 <=

    Primary   basis highest AM E, G, H:  7, 7, 4
    Auxiliary basis highest AM E, G, H:  7, 7, 5
    Onebody   basis highest AM E, G, H:  7, 7, 5
    Solid Harmonics ordering:            gaussian

*** tstart() called on d-6-6-3
*** at Sat Jan 20 22:22:57 2024

   => Loading Basis Set <=

    Name: JUN-CC-PVDZ
    Role: ORBITAL
    Keyword: BASIS
    atoms 1     entry B          line   130 file /home/gridsan/tfroembgen/.conda/envs/psi4test/share/psi4/basis/jun-cc-pvdz.gbs 
    atoms 2-5   entry F          line   266 file /home/gridsan/tfroembgen/.conda/envs/psi4test/share/psi4/basis/jun-cc-pvdz.gbs 
    atoms 6-59  entry C          line   164 file /home/gridsan/tfroembgen/.conda/envs/psi4test/share/psi4/basis/jun-cc-pvdz.gbs 
    atoms 60-77 entry H          line    36 file /home/gridsan/tfroembgen/.conda/envs/psi4test/share/psi4/basis/jun-cc-pvdz.gbs 


         ---------------------------------------------------------
                                   SCF
               by Justin Turney, Rob Parrish, Andy Simmonett
                          and Daniel G. A. Smith
                              RHF Reference
                       12 Threads,  30517 MiB Core
         ---------------------------------------------------------

  ==> Geometry <==

    Molecular point group: c1
    Full point group: C1

    Geometry (in Angstrom), charge = -1, multiplicity = 1:

       Center              X                  Y                   Z               Mass       
    ------------   -----------------  -----------------  -----------------  -----------------
         B           -0.000198161052     0.000273808717    -1.945820519476    11.009305360000
         F           -0.000000401852    -0.000000464183    -0.533035519476    18.998403162730
         F            1.147859598148     0.675780735817    -2.416961519476    18.998403162730
         F            0.011917658148    -1.332011464183    -2.416759519476    18.998403162730
         F           -1.159666401852     0.656073035817    -2.416680519476    18.998403162730
      Gh(C)           1.225311973413     0.707538196736     0.260283107808    12.000000000000
      Gh(C)           1.225323934041    -0.707538986754     0.247952298238    12.000000000000
      Gh(C)          -0.000006075942     1.414965821907     0.247418674717    12.000000000000
      Gh(C)           2.456448831939     1.418327794995     0.263169965208    12.000000000000
      Gh(C)           0.000010905269    -1.414976590818     0.257618232041    12.000000000000
      Gh(C)          -1.225300870919     0.707545281801     0.262534628131    12.000000000000
      Gh(C)           2.456437833310    -1.418323396064     0.245707141381    12.000000000000
      Gh(C)          -0.000001254988     2.836800939098     0.245015124583    12.000000000000
      Gh(C)           3.681826775460     0.709317863818     0.246055931179    12.000000000000
      Gh(C)           2.455120126855     2.834223569306     0.245953374218    12.000000000000
      Gh(C)           3.681821183209    -0.709333931612     0.262128415197    12.000000000000
      Gh(C)          -1.225313520698    -0.707527607727     0.249025059665    12.000000000000
      Gh(C)           1.226699659192     3.543469391811     0.262312447128    12.000000000000
      Gh(C)           0.000004862847    -2.836782231419     0.262466399663    12.000000000000
      Gh(C)          -2.456435954859     1.418316826102     0.262570023976    12.000000000000
      Gh(C)           2.455123495769    -2.834230120772     0.261976506830    12.000000000000
      Gh(C)          -1.226714286599     3.543468971567     0.262415780347    12.000000000000
      Gh(C)           4.914517373191     1.427172780306     0.252536614208    12.000000000000
      Gh(C)           3.693150269466     3.542795200362     0.252586413845    12.000000000000
      Gh(C)          -2.456437522078    -1.418313373022     0.245682103256    12.000000000000
      Gh(C)           1.226704919933    -3.543474334090     0.246342316378    12.000000000000
      Gh(C)          -2.455125320518     2.834216570451     0.245959750564    12.000000000000
      Gh(C)           4.914524458772    -1.427187002127     0.255509356943    12.000000000000
      Gh(C)           1.221424691688     4.970133973077     0.255647791203    12.000000000000
      Gh(C)           4.893008307311     2.825187907843     0.253753282567    12.000000000000
      Gh(C)          -1.226696930499    -3.543471089260     0.246609520788    12.000000000000
      Gh(C)          -3.681818898536     0.709324874549     0.246068611659    12.000000000000
      Gh(C)           3.693147179140    -3.542801433574     0.255627247504    12.000000000000
      Gh(C)          -1.221432174004     4.970128205680     0.255831286575    12.000000000000
      Gh(C)           6.134771050916     0.680547854922     0.253306388758    12.000000000000
      Gh(C)           3.656788958600     4.972953151384     0.253495051627    12.000000000000
      Gh(C)          -2.455126829744    -2.834215185244     0.261732149032    12.000000000000
      Gh(C)          -3.681819101071    -0.709325795652     0.262246036776    12.000000000000
      Gh(C)           4.893012695903    -2.825200197815     0.254364434462    12.000000000000
      Gh(C)          -0.000000995123     5.650447273849     0.254599977868    12.000000000000
      Gh(C)           6.134775190322    -0.680554946258     0.254571709274    12.000000000000
      Gh(C)           2.478131560845     5.653576659148     0.254783831277    12.000000000000
      Gh(C)           1.221422482727    -4.970127147116     0.252848294180    12.000000000000
      Gh(C)          -3.693162305975     3.542796862009     0.252751921304    12.000000000000
      Gh(C)          -1.221428442955    -4.970118395779     0.252735532347    12.000000000000
      Gh(C)          -4.914521729952     1.427175354812     0.252613559216    12.000000000000
      Gh(C)           3.656787097669    -4.972955318422     0.254945552161    12.000000000000
      Gh(C)          -2.478138452116     5.653574330345     0.255068356286    12.000000000000
      Gh(C)          -3.693141660574    -3.542790311162     0.255511121348    12.000000000000
      Gh(C)          -4.914512405063    -1.427181092211     0.255544054117    12.000000000000
      Gh(C)          -0.000005930936    -5.650438379197     0.254204473747    12.000000000000
      Gh(C)          -4.893020406111     2.825188506736     0.253743200707    12.000000000000
      Gh(C)           2.478126071288    -5.653573636072     0.253854951369    12.000000000000
      Gh(C)          -3.656798632268     4.972956089858     0.253671732002    12.000000000000
      Gh(C)          -4.892999400866    -2.825191859243     0.254210398765    12.000000000000
      Gh(C)          -2.478128420093    -5.653566262190     0.253579763722    12.000000000000
      Gh(C)          -6.134770425341     0.680548674073     0.253280837056    12.000000000000
      Gh(C)          -3.656788755199    -4.972944115154     0.254731264344    12.000000000000
      Gh(C)          -6.134764964923    -0.680554007665     0.254551233479    12.000000000000
      Gh(H)           5.835288573806     3.369275802771     0.258112608230     1.007825032230
      Gh(H)           7.073859250737     1.228217156716     0.253768032151     1.007825032230
      Gh(H)           4.600663342164     5.512380710270     0.254000252379     1.007825032230
      Gh(H)           5.835283465295    -3.369306148912     0.249909967148     1.007825032230
      Gh(H)          -0.000012073316     6.738530581953     0.250250732860     1.007825032230
      Gh(H)           7.073861249820    -1.228227034927     0.254062971180     1.007825032230
      Gh(H)           2.473313809789     6.740684199211     0.254317110347     1.007825032230
      Gh(H)           4.600668569371    -5.512376221359     0.254535554993     1.007825032230
      Gh(H)          -2.473318602548     6.740681627423     0.254618456972     1.007825032230
      Gh(H)          -0.000010190238    -6.738528268635     0.258734158732     1.007825032230
      Gh(H)          -5.835301836354     3.369270858113     0.258248630378     1.007825032230
      Gh(H)           2.473308001821    -6.740685466612     0.254425281794     1.007825032230
      Gh(H)          -4.600674763218     5.512377934420     0.254165580703     1.007825032230
      Gh(H)          -5.835279428845    -3.369289055963     0.249630661267     1.007825032230
      Gh(H)          -2.473300269450    -6.740679170323     0.253975965249     1.007825032230
      Gh(H)          -7.073857688778     1.228220380657     0.253684040671     1.007825032230
      Gh(H)          -4.600673708095    -5.512362761970     0.254363246970     1.007825032230
      Gh(H)          -7.073856856419    -1.228220724160     0.253968114713     1.007825032230

  Running in c1 symmetry.

  Rotational constants: A =      0.00209  B =      0.00209  C =      0.00110 [cm^-1]
  Rotational constants: A =     62.58965  B =     62.58059  C =     33.02251 [MHz]
  Nuclear repulsion =  178.879455044809106

  Charge       = -1
  Multiplicity = 1
  Electrons    = 42
  Nalpha       = 21
  Nbeta        = 21

  ==> Algorithm <==

  SCF Algorithm Type is DF.
  DIIS enabled.
  MOM disabled.
  Fractional occupation disabled.
  Guess Type is SAD.
  Energy threshold   = 1.00e-08
  Density threshold  = 1.00e-08
  Integral threshold = 1.00e-12

  ==> Primary Basis <==

  Basis Set: JUN-CC-PVDZ
    Blend: JUN-CC-PVDZ
    Number of shells: 526
    Number of basis functions: 1152
    Number of Cartesian functions: 1211
    Spherical Harmonics?: true
    Max angular momentum: 2

   => Loading Basis Set <=

    Name: (JUN-CC-PVDZ AUX)
    Role: JKFIT
    Keyword: DF_BASIS_SCF
    atoms 1     entry B          line    90 file /home/gridsan/tfroembgen/.conda/envs/psi4test/share/psi4/basis/jun-cc-pvdz-jkfit.gbs 
    atoms 2-5   entry F          line   314 file /home/gridsan/tfroembgen/.conda/envs/psi4test/share/psi4/basis/jun-cc-pvdz-jkfit.gbs 
    atoms 6-59  entry C          line   146 file /home/gridsan/tfroembgen/.conda/envs/psi4test/share/psi4/basis/jun-cc-pvdz-jkfit.gbs 
    atoms 60-77 entry H          line    70 file /home/gridsan/tfroembgen/.conda/envs/psi4test/share/psi4/basis/jun-cc-pvdz-jkfit.gbs 

  ==> Integral Setup <==

  ==> DiskDFJK: Density-Fitted J/K Matrices <==

    J tasked:                  Yes
    K tasked:                  Yes
    wK tasked:                  No
    OpenMP threads:             12
    Integrals threads:          12
    Memory [MiB]:            22888
    Algorithm:                Core
    Integral Cache:           LOAD
    Schwarz Cutoff:          1E-12
    Fitting Condition:       1E-10

   => Auxiliary Basis Set <=

  Basis Set: (JUN-CC-PVDZ AUX)
    Blend: JUN-CC-PVDZ-JKFIT
    Number of shells: 1755
    Number of basis functions: 5075
    Number of Cartesian functions: 5819
    Spherical Harmonics?: true
    Max angular momentum: 3

  Minimum eigenvalue in the overlap matrix is 5.0937421865E-10.
  Reciprocal condition number of the overlap matrix is 2.0227277114E-11.
    Using canonical orthogonalization.
  Overall, 14 of 1152 possible MOs eliminated.


  ==> Pre-Iterations <==

  SCF Guess: Superposition of Atomic Densities via on-the-fly atomic UHF (no occupation information).

   -------------------------
    Irrep   Nso     Nmo    
   -------------------------
     A       1152    1138 
   -------------------------
    Total    1152    1138
   -------------------------

  ==> Iterations <==

                           Total Energy        Delta E     RMS |[F,P]|

   @DF-RHF iter SAD:  -421.23048476208146   -4.21230e+02   0.00000e+00 
   @DF-RHF iter   1:  -422.65813235436246   -1.42765e+00   5.31143e-04 ADIIS/DIIS
   @DF-RHF iter   2:  -422.74089156749505   -8.27592e-02   3.24260e-04 ADIIS/DIIS
   @DF-RHF iter   3:  -422.77894623797141   -3.80547e-02   1.76199e-05 DIIS
   @DF-RHF iter   4:  -422.77930826755039   -3.62030e-04   2.93759e-06 DIIS
   @DF-RHF iter   5:  -422.77931736937285   -9.10182e-06   8.28291e-07 DIIS
   @DF-RHF iter   6:  -422.77931810492026   -7.35547e-07   2.27898e-07 DIIS
   @DF-RHF iter   7:  -422.77931814062629   -3.57060e-08   8.48727e-08 DIIS
   @DF-RHF iter   8:  -422.77931814419190   -3.56562e-09   7.88710e-09 DIIS
  Energy and wave function converged.


  ==> Post-Iterations <==

    Orbital Energies [Eh]
    ---------------------

    Doubly Occupied:                                                      

       1A    -26.070465     2A    -26.066497     3A    -26.066405  
       4A    -26.066321     5A     -7.535495     6A     -1.409184  
       7A     -1.349999     8A     -1.349840     9A     -1.349541  
      10A     -0.600454    11A     -0.526877    12A     -0.526865  
      13A     -0.526781    14A     -0.445771    15A     -0.445729  
      16A     -0.407583    17A     -0.407384    18A     -0.407301  
      19A     -0.383885    20A     -0.383828    21A     -0.383738  

    Virtual:                                                              

      22A      0.095158    23A      0.096294    24A      0.096300  
      25A      0.102134    26A      0.102136    27A      0.113125  
      28A      0.113688    29A      0.128840    30A      0.128841  
      31A      0.134700    32A      0.142517    33A      0.142525  
      34A      0.146716    35A      0.146725    36A      0.147760  
      37A      0.152664    38A      0.152670    39A      0.156214  
      40A      0.156225    41A      0.164336    42A      0.165113  
      43A      0.165115    44A      0.167796    45A      0.169807  
      46A      0.175293    47A      0.176864    48A      0.181465  
      49A      0.183868    50A      0.184770    51A      0.187371  
      52A      0.187380    53A      0.193110    54A      0.193114  
      55A      0.193978    56A      0.194000    57A      0.200466  
      58A      0.200503    59A      0.203049    60A      0.205972  
      61A      0.205978    62A      0.208370    63A      0.208380  
      64A      0.212550    65A      0.212555    66A      0.217218  
      67A      0.217221    68A      0.220185    69A      0.222677  
      70A      0.222686    71A      0.223512    72A      0.226489  
      73A      0.226495    74A      0.228443    75A      0.235249  
      76A      0.237678    77A      0.238351    78A      0.238363  
      79A      0.243713    80A      0.243727    81A      0.245867  
      82A      0.246064    83A      0.246073    84A      0.249151  
      85A      0.249158    86A      0.249207    87A      0.256180  
      88A      0.260747    89A      0.261828    90A      0.264363  
      91A      0.265522    92A      0.265536    93A      0.268394  
      94A      0.272984    95A      0.272987    96A      0.276177  
      97A      0.279946    98A      0.284870    99A      0.284877  
     100A      0.286950   101A      0.286962   102A      0.288008  
     103A      0.288014   104A      0.288973   105A      0.288981  
     106A      0.292078   107A      0.292081   108A      0.295471  
     109A      0.297664   110A      0.304621   111A      0.304633  
     112A      0.306257   113A      0.309704   114A      0.309715  
     115A      0.315147   116A      0.318220   117A      0.319341  
     118A      0.319378   119A      0.320811   120A      0.324379  
     121A      0.324387   122A      0.325784   123A      0.330225  
     124A      0.330230   125A      0.333497   126A      0.333504  
     127A      0.336036   128A      0.336051   129A      0.338489  
     130A      0.345220   131A      0.345236   132A      0.349008  
     133A      0.349020   134A      0.352218   135A      0.352810  
     136A      0.353155   137A      0.353196   138A      0.357247  
     139A      0.359201   140A      0.359221   141A      0.361586  
     142A      0.362510   143A      0.362515   144A      0.365989  
     145A      0.365997   146A      0.372750   147A      0.378518  
     148A      0.382849   149A      0.385498   150A      0.391631  
     151A      0.391647   152A      0.396174   153A      0.396208  
     154A      0.396726   155A      0.398650   156A      0.398699  
     157A      0.401983   158A      0.407931   159A      0.407932  
     160A      0.408331   161A      0.415771   162A      0.415777  
     163A      0.417390   164A      0.419006   165A      0.419047  
     166A      0.419408   167A      0.425005   168A      0.428208  
     169A      0.436983   170A      0.436993   171A      0.439654  
     172A      0.439974   173A      0.443114   174A      0.446886  
     175A      0.449283   176A      0.450331   177A      0.450423  
     178A      0.452702   179A      0.452818   180A      0.453194  
     181A      0.453570   182A      0.453618   183A      0.456704  
     184A      0.456874   185A      0.456950   186A      0.468703  
     187A      0.468738   188A      0.470087   189A      0.472777  
     190A      0.472813   191A      0.474956   192A      0.475056  
     193A      0.476949   194A      0.481973   195A      0.481998  
     196A      0.487466   197A      0.487522   198A      0.496245  
     199A      0.496521   200A      0.496550   201A      0.498749  
     202A      0.498794   203A      0.503828   204A      0.509054  
     205A      0.515582   206A      0.516076   207A      0.516169  
     208A      0.517982   209A      0.518057   210A      0.522009  
     211A      0.523293   212A      0.523373   213A      0.525766  
     214A      0.525932   215A      0.525958   216A      0.526248  
     217A      0.531770   218A      0.531797   219A      0.533478  
     220A      0.533511   221A      0.534147   222A      0.536647  
     223A      0.539177   224A      0.539248   225A      0.539983  
     226A      0.546353   227A      0.555254   228A      0.555272  
     229A      0.560634   230A      0.560878   231A      0.562583  
     232A      0.568669   233A      0.568715   234A      0.571387  
     235A      0.571415   236A      0.571560   237A      0.572123  
     238A      0.572396   239A      0.572490   240A      0.576178  
     241A      0.576277   242A      0.576765   243A      0.583859  
     244A      0.589636   245A      0.589686   246A      0.595216  
     247A      0.595290   248A      0.597148   249A      0.605398  
     250A      0.605451   251A      0.609491   252A      0.610419  
     253A      0.610466   254A      0.610950   255A      0.612630  
     256A      0.612645   257A      0.614095   258A      0.617721  
     259A      0.617838   260A      0.619195   261A      0.619300  
     262A      0.629735   263A      0.638390   264A      0.638430  
     265A      0.644609   266A      0.644650   267A      0.644759  
     268A      0.644912   269A      0.647399   270A      0.653314  
     271A      0.653366   272A      0.655164   273A      0.655206  
     274A      0.657383   275A      0.657413   276A      0.658339  
     277A      0.660496   278A      0.663726   279A      0.669360  
     280A      0.669408   281A      0.672555   282A      0.683153  
     283A      0.683167   284A      0.689587   285A      0.689608  
     286A      0.691715   287A      0.692776   288A      0.692848  
     289A      0.692936   290A      0.699685   291A      0.699886  
     292A      0.700892   293A      0.702036   294A      0.702053  
     295A      0.704471   296A      0.704474   297A      0.708514  
     298A      0.719788   299A      0.730279   300A      0.730342  
     301A      0.731043   302A      0.731094   303A      0.734833  
     304A      0.734877   305A      0.739261   306A      0.739382  
     307A      0.740294   308A      0.740301   309A      0.749895  
     310A      0.756004   311A      0.756098   312A      0.756187  
     313A      0.757760   314A      0.762312   315A      0.762345  
     316A      0.765380   317A      0.767513   318A      0.767563  
     319A      0.772035   320A      0.772068   321A      0.774734  
     322A      0.786372   323A      0.786419   324A      0.786691  
     325A      0.793423   326A      0.795193   327A      0.796762  
     328A      0.796786   329A      0.801051   330A      0.801073  
     331A      0.806517   332A      0.806561   333A      0.818644  
     334A      0.818766   335A      0.824197   336A      0.825514  
     337A      0.825567   338A      0.828940   339A      0.829014  
     340A      0.833037   341A      0.839557   342A      0.839937  
     343A      0.844704   344A      0.849336   345A      0.849349  
     346A      0.850500   347A      0.855886   348A      0.865613  
     349A      0.865695   350A      0.869572   351A      0.869686  
     352A      0.877555   353A      0.880649   354A      0.880791  
     355A      0.884976   356A      0.884989   357A      0.887050  
     358A      0.888912   359A      0.888925   360A      0.889726  
     361A      0.890283   362A      0.895776   363A      0.899315  
     364A      0.903197   365A      0.903312   366A      0.903410  
     367A      0.906306   368A      0.906430   369A      0.915731  
     370A      0.917844   371A      0.917897   372A      0.927011  
     373A      0.927069   374A      0.937776   375A      0.938010  
     376A      0.954593   377A      0.962720   378A      0.962780  
     379A      0.967580   380A      0.972209   381A      0.976507  
     382A      0.976563   383A      0.979204   384A      0.982599  
     385A      0.982640   386A      0.995054   387A      0.995086  
     388A      0.996012   389A      1.003558   390A      1.003599  
     391A      1.019729   392A      1.019878   393A      1.023172  
     394A      1.035545   395A      1.035765   396A      1.036009  
     397A      1.053153   398A      1.053172   399A      1.065240  
     400A      1.065259   401A      1.069052   402A      1.070724  
     403A      1.070745   404A      1.072593   405A      1.077161  
     406A      1.078462   407A      1.078466   408A      1.089049  
     409A      1.116575   410A      1.116635   411A      1.151918  
     412A      1.151929   413A      1.159410   414A      1.160800  
     415A      1.165791   416A      1.165854   417A      1.168931  
     418A      1.169055   419A      1.180124   420A      1.180152  
     421A      1.186503   422A      1.186535   423A      1.193357  
     424A      1.197560   425A      1.197616   426A      1.202466  
     427A      1.248013   428A      1.253911   429A      1.261538  
     430A      1.261576   431A      1.268406   432A      1.268491  
     433A      1.272550   434A      1.272565   435A      1.301587  
     436A      1.301613   437A      1.327720   438A      1.327728  
     439A      1.330494   440A      1.344508   441A      1.345470  
     442A      1.367873   443A      1.407775   444A      1.407977  
     445A      1.408089   446A      1.412121   447A      1.412154  
     448A      1.419431   449A      1.431131   450A      1.431297  
     451A      1.438860   452A      1.453601   453A      1.459030  
     454A      1.474318   455A      1.474398   456A      1.494227  
     457A      1.494423   458A      1.540390   459A      1.566597  
     460A      1.566825   461A      1.572452   462A      1.572544  
     463A      1.593798   464A      1.593905   465A      1.601645  
     466A      1.603168   467A      1.603906   468A      1.653911  
     469A      1.664861   470A      1.665564   471A      1.667218  
     472A      1.667462   473A      1.686580   474A      1.687143  
     475A      1.715961   476A      1.717007   477A      1.728288  
     478A      1.760455   479A      1.760984   480A      1.761146  
     481A      1.762702   482A      1.771532   483A      1.775718  
     484A      1.776000   485A      1.787122   486A      1.799956  
     487A      1.800845   488A      1.819376   489A      1.820859  
     490A      1.821397   491A      1.843773   492A      1.845512  
     493A      1.846117   494A      1.849810   495A      1.852560  
     496A      1.853246   497A      1.855695   498A      1.856028  
     499A      1.870390   500A      1.880826   501A      1.880927  
     502A      1.881131   503A      1.890571   504A      1.890606  
     505A      1.899897   506A      1.903454   507A      1.904569  
     508A      1.921727   509A      1.921947   510A      1.927495  
     511A      1.928512   512A      1.930638   513A      1.930898  
     514A      1.931887   515A      1.931929   516A      1.941544  
     517A      1.941730   518A      1.941893   519A      1.942380  
     520A      1.949814   521A      1.949894   522A      1.964705  
     523A      1.965595   524A      1.975138   525A      1.978700  
     526A      1.985143   527A      1.988524   528A      1.988801  
     529A      1.991100   530A      1.991391   531A      1.997689  
     532A      2.006876   533A      2.006896   534A      2.015653  
     535A      2.016581   536A      2.016707   537A      2.025174  
     538A      2.025817   539A      2.030674   540A      2.031273  
     541A      2.031779   542A      2.043351   543A      2.045747  
     544A      2.046265   545A      2.049725   546A      2.053791  
     547A      2.053839   548A      2.066750   549A      2.066992  
     550A      2.075422   551A      2.077801   552A      2.080470  
     553A      2.081062   554A      2.091713   555A      2.091933  
     556A      2.092851   557A      2.094286   558A      2.094471  
     559A      2.097879   560A      2.099632   561A      2.099778  
     562A      2.103679   563A      2.107761   564A      2.107995  
     565A      2.111179   566A      2.125915   567A      2.126288  
     568A      2.128187   569A      2.128279   570A      2.144768  
     571A      2.152586   572A      2.163230   573A      2.163349  
     574A      2.177074   575A      2.180400   576A      2.180443  
     577A      2.180929   578A      2.181448   579A      2.185259  
     580A      2.185287   581A      2.188626   582A      2.200702  
     583A      2.200911   584A      2.207556   585A      2.210458  
     586A      2.210547   587A      2.212089   588A      2.229637  
     589A      2.229683   590A      2.231324   591A      2.232872  
     592A      2.232896   593A      2.238737   594A      2.241842  
     595A      2.241888   596A      2.243282   597A      2.243308  
     598A      2.243359   599A      2.247094   600A      2.248963  
     601A      2.249049   602A      2.252906   603A      2.253162  
     604A      2.254109   605A      2.254390   606A      2.256249  
     607A      2.256587   608A      2.256597   609A      2.261456  
     610A      2.262395   611A      2.262459   612A      2.271500  
     613A      2.271547   614A      2.272006   615A      2.273110  
     616A      2.273200   617A      2.278843   618A      2.283029  
     619A      2.285512   620A      2.285622   621A      2.291187  
     622A      2.291275   623A      2.296313   624A      2.296363  
     625A      2.303282   626A      2.303295   627A      2.305390  
     628A      2.305876   629A      2.326315   630A      2.326363  
     631A      2.330271   632A      2.335681   633A      2.345473  
     634A      2.347096   635A      2.347142   636A      2.355725  
     637A      2.355784   638A      2.361557   639A      2.361619  
     640A      2.362698   641A      2.370489   642A      2.370651  
     643A      2.375293   644A      2.375405   645A      2.379741  
     646A      2.383304   647A      2.383615   648A      2.384194  
     649A      2.384451   650A      2.392824   651A      2.392997  
     652A      2.394163   653A      2.399709   654A      2.399801  
     655A      2.407183   656A      2.407236   657A      2.411790  
     658A      2.418791   659A      2.418933   660A      2.419081  
     661A      2.422596   662A      2.422766   663A      2.435663  
     664A      2.442532   665A      2.442633   666A      2.444167  
     667A      2.455551   668A      2.460968   669A      2.464497  
     670A      2.464566   671A      2.467882   672A      2.467950  
     673A      2.470399   674A      2.470442   675A      2.475692  
     676A      2.478910   677A      2.479216   678A      2.482552  
     679A      2.482608   680A      2.482611   681A      2.486685  
     682A      2.486864   683A      2.487277   684A      2.488929  
     685A      2.503178   686A      2.503275   687A      2.514589  
     688A      2.514764   689A      2.514846   690A      2.520726  
     691A      2.526033   692A      2.532363   693A      2.532461  
     694A      2.543019   695A      2.543165   696A      2.563773  
     697A      2.563840   698A      2.565748   699A      2.568752  
     700A      2.568931   701A      2.573602   702A      2.573743  
     703A      2.574009   704A      2.582928   705A      2.583013  
     706A      2.584590   707A      2.587866   708A      2.588064  
     709A      2.596348   710A      2.605668   711A      2.605734  
     712A      2.613798   713A      2.613850   714A      2.614222  
     715A      2.614290   716A      2.625307   717A      2.630343  
     718A      2.642863   719A      2.646098   720A      2.646815  
     721A      2.653867   722A      2.653932   723A      2.663207  
     724A      2.663243   725A      2.663331   726A      2.665783  
     727A      2.669597   728A      2.669627   729A      2.677948  
     730A      2.678037   731A      2.680893   732A      2.685380  
     733A      2.705797   734A      2.705863   735A      2.715562  
     736A      2.715821   737A      2.718150   738A      2.719547  
     739A      2.719630   740A      2.723832   741A      2.730996  
     742A      2.731026   743A      2.732262   744A      2.736623  
     745A      2.736702   746A      2.751673   747A      2.752591  
     748A      2.752737   749A      2.756308   750A      2.758505  
     751A      2.758823   752A      2.772136   753A      2.778612  
     754A      2.778726   755A      2.785785   756A      2.785807  
     757A      2.793602   758A      2.793841   759A      2.801479  
     760A      2.802781   761A      2.803360   762A      2.808130  
     763A      2.808532   764A      2.808649   765A      2.816055  
     766A      2.816105   767A      2.820866   768A      2.831221  
     769A      2.835203   770A      2.835424   771A      2.838935  
     772A      2.847056   773A      2.847112   774A      2.857804  
[...]
     736A      1.529771   737A      1.533940   738A      1.552596  
     739A      1.571764   740A      1.571895   741A      1.590892  
     742A      1.591050   743A      1.598937   744A      1.603310  
     745A      1.603420   746A      1.616927   747A      1.623504  
     748A      1.623575   749A      1.631590   750A      1.631736  
     751A      1.635321   752A      1.635501   753A      1.643790  
     754A      1.644991   755A      1.647837   756A      1.648289  
     757A      1.648525   758A      1.657650   759A      1.661069  
     760A      1.661200   761A      1.667609   762A      1.670245  
     763A      1.670329   764A      1.674400   765A      1.674435  
     766A      1.678317   767A      1.682805   768A      1.683598  
     769A      1.683650   770A      1.697767   771A      1.697785  
     772A      1.698136   773A      1.698730   774A      1.710068  
     775A      1.710330   776A      1.716368   777A      1.716442  
     778A      1.725206   779A      1.731358   780A      1.731484  
     781A      1.743112   782A      1.751921   783A      1.752167  
     784A      1.757696   785A      1.757759   786A      1.761251  
     787A      1.772452   788A      1.772537   789A      1.774848  
     790A      1.787899   791A      1.787912   792A      1.808235  
     793A      1.808482   794A      1.811085   795A      1.816516  
     796A      1.822912   797A      1.823018   798A      1.835904  
     799A      1.843082   800A      1.845471   801A      1.845556  
     802A      1.850909   803A      1.851020   804A      1.853686  
     805A      1.856968   806A      1.864290   807A      1.866330  
     808A      1.869846   809A      1.869972   810A      1.876910  
     811A      1.876997   812A      1.880051   813A      1.881292  
     814A      1.881327   815A      1.892240   816A      1.892354  
     817A      1.893368   818A      1.893530   819A      1.903692  
     820A      1.903837   821A      1.915429   822A      1.916224  
     823A      1.916464   824A      1.920581   825A      1.920719  
     826A      1.922059   827A      1.926888   828A      1.926958  
     829A      1.934157   830A      1.941168   831A      1.943413  
     832A      1.944833   833A      1.944943   834A      1.947841  
     835A      1.947878   836A      1.954325   837A      1.954430  
     838A      1.958276   839A      1.975304   840A      1.975398  
     841A      1.975871   842A      1.994683   843A      1.997160  
     844A      1.997307   845A      1.997438   846A      1.999375  
     847A      1.999479   848A      2.003903   849A      2.004086  
     850A      2.010612   851A      2.020349   852A      2.020678  
     853A      2.022547   854A      2.029989   855A      2.030454  
     856A      2.030948   857A      2.031535   858A      2.048285  
     859A      2.049277   860A      2.053548   861A      2.053624  
     862A      2.054462   863A      2.054811   864A      2.068902  
     865A      2.069074   866A      2.070311   867A      2.072865  
     868A      2.082780   869A      2.083156   870A      2.086027  
     871A      2.086155   872A      2.091310   873A      2.095678  
     874A      2.097692   875A      2.098130   876A      2.098280  
     877A      2.100974   878A      2.102774   879A      2.104959  
     880A      2.105067   881A      2.114441   882A      2.114474  
     883A      2.117160   884A      2.117533   885A      2.117613  
     886A      2.120864   887A      2.120892   888A      2.122159  
     889A      2.123728   890A      2.123893   891A      2.131859  
     892A      2.132005   893A      2.134819   894A      2.139142  
     895A      2.139195   896A      2.141865   897A      2.146734  
     898A      2.146933   899A      2.148302   900A      2.148392  
     901A      2.170318   902A      2.171917   903A      2.171987  
     904A      2.177481   905A      2.178831   906A      2.179013  
     907A      2.181750   908A      2.181960   909A      2.193771  
     910A      2.194245   911A      2.202197   912A      2.202289  
     913A      2.208232   914A      2.219965   915A      2.226519  
     916A      2.226721   917A      2.231757   918A      2.232195  
     919A      2.232536   920A      2.234352   921A      2.234884  
     922A      2.235132   923A      2.245719   924A      2.245932  
     925A      2.248502   926A      2.249017   927A      2.249150  
     928A      2.264628   929A      2.264813   930A      2.268902  
     931A      2.269239   932A      2.269257   933A      2.274492  
     934A      2.274578   935A      2.281360   936A      2.289806  
     937A      2.301511   938A      2.307464   939A      2.319701  
     940A      2.319990   941A      2.331512   942A      2.332652  
     943A      2.348729   944A      2.349925   945A      2.352687  
     946A      2.353491   947A      2.354669   948A      2.357970  
     949A      2.358830   950A      2.374871   951A      2.374962  
     952A      2.377438   953A      2.378176   954A      2.416618  
     955A      2.424053   956A      2.424097   957A      2.424611  
     958A      2.436666   959A      2.441710   960A      2.448671  
     961A      2.449008   962A      2.471413   963A      2.471724  
     964A      2.471855   965A      2.491167   966A      2.491228  
     967A      2.499748   968A      2.505354   969A      2.524564  
     970A      2.528411   971A      2.528608   972A      2.532571  
     973A      2.544445   974A      2.551984   975A      2.552121  
     976A      2.555186   977A      2.556932   978A      2.556951  
     979A      2.573471   980A      2.573482   981A      2.578015  
     982A      2.578372   983A      2.588404   984A      2.588557  
     985A      2.589352   986A      2.594937   987A      2.595188  
     988A      2.609945   989A      2.623114   990A      2.624472  
     991A      2.624543   992A      2.635134   993A      2.635609  
     994A      2.643321   995A      2.643499   996A      2.651914  
     997A      2.652386   998A      2.660439   999A      2.673058  
    1000A      2.673652  1001A      2.683562  1002A      2.684560  
    1003A      2.694681  1004A      2.695475  1005A      2.703067  
    1006A      2.711950  1007A      2.712078  1008A      2.716419  
    1009A      2.716555  1010A      2.726643  1011A      2.727039  
    1012A      2.747398  1013A      2.747715  1014A      2.772916  
    1015A      2.773469  1016A      2.777814  1017A      2.795257  
    1018A      2.795308  1019A      2.828133  1020A      2.828903  
    1021A      2.835232  1022A      2.848339  1023A      2.856865  
    1024A      2.858748  1025A      2.875379  1026A      2.875589  
    1027A      2.899294  1028A      2.899572  1029A      2.918330  
    1030A      2.918360  1031A      2.927289  1032A      2.947065  
    1033A      2.947174  1034A      2.948505  1035A      2.948541  
    1036A      2.963655  1037A      3.011368  1038A      3.011920  
    1039A      3.014732  1040A      3.032247  1041A      3.032284  
    1042A      3.048481  1043A      3.065062  1044A      3.065087  
    1045A      3.087659  1046A      3.087894  1047A      3.122208  
    1048A      3.122461  1049A      3.139616  1050A      3.139978  
    1051A      3.141056  1052A      3.150490  1053A      3.150512  
    1054A      3.153685  1055A      3.153753  1056A      3.166639  
    1057A      3.166996  1058A      3.167989  1059A      3.168479  
    1060A      3.191930  1061A      3.194607  1062A      3.194812  
    1063A      3.194906  1064A      3.211456  1065A      3.237644  
    1066A      3.260339  1067A      3.287754  1068A      3.287848  
    1069A      3.287947  1070A      3.298835  1071A      3.299255  
    1072A      3.346237  1073A      3.423849  1074A      3.424029  
    1075A      3.492073  1076A      3.493658  1077A      3.536358  
    1078A      3.577144  1079A      3.610761  1080A      3.611546  
    1081A      3.616272  1082A      3.636826  1083A      3.637968  
    1084A      3.684170  1085A      3.714695  1086A      3.781981  
    1087A      3.810288  1088A      3.810897  1089A      3.873239  
    1090A      3.873299  1091A      3.916689  1092A      3.916721  
    1093A      3.979105  1094A      4.012618  1095A      4.152616  
    1096A      4.161864  1097A      4.284035  1098A      4.507979  
    1099A      4.508861  1100A      4.761203  1101A      5.124053  
    1102A      5.765710  1103A      5.774225  1104A      5.806221  
    1105A      5.806337  1106A      5.821800  1107A      5.821821  
    1108A      5.905544  1109A      5.907720  1110A      5.907878  
    1111A      6.067131  1112A      6.181490  1113A      6.181795  
    1114A      6.204787  1115A      6.291478  1116A      6.292983  
    1117A      6.377313  1118A      6.394476  1119A      6.394842  
    1120A      6.426150  1121A      6.426629  1122A      7.396868  
    1123A      7.459884  1124A      7.460226  1125A      7.549393  
    1126A      7.549777  1127A      7.630708  1128A      7.777565  
    1129A      7.777833  1130A      7.858758  1131A      8.256112  
    1132A      8.258820  1133A      8.480809  1134A     13.039626  
    1135A     42.967443  1136A     42.972490  1137A     42.972513  
    1138A     43.003894  

    Final Occupation by Irrep:
              A 
    DOCC [   171 ]
    NA   [   171 ]
    NB   [   171 ]

  @DF-RHF Final Energy: -2055.89560768149295

   => Energetics <=

    Nuclear Repulsion Energy =           6452.5568002797772351
    One-Electron Energy =              -15636.5188781190336158
    Two-Electron Energy =                7128.0664701577634332
    Total Energy =                      -2055.8956076814929474

Computation Completed


Properties will be evaluated at   0.000000,   0.000000,   0.000000 [a0]

Properties computed using the SCF density matrix


 Multipole Moments:

 ------------------------------------------------------------------------------------
     Multipole            Electronic (a.u.)      Nuclear  (a.u.)        Total (a.u.)
 ------------------------------------------------------------------------------------

 L = 1.  Multiply by 2.5417464519 to convert [e a0] to [Debye]
 Dipole X            :         -0.0000010            0.0000419            0.0000409
 Dipole Y            :          0.0000694           -0.0000426            0.0000269
 Dipole Z            :       -164.2546009          164.2493082           -0.0052928
 Magnitude           :                                                    0.0052930

 ------------------------------------------------------------------------------------

*** tstop() called on d-6-6-3 at Sat Jan 20 22:31:23 2024
Module time:
	user time   =    2652.10 seconds =      44.20 minutes
	system time =      60.18 seconds =       1.00 minutes
	total time  =        285 seconds =       4.75 minutes
Total time:
	user time   =    8264.84 seconds =     137.75 minutes
	system time =     191.26 seconds =       3.19 minutes
	total time  =        983 seconds =      16.38 minutes
  Constructing Basis Sets for SAPT...

   => Loading Basis Set <=

    Name: (JUN-CC-PVDZ AUX)
    Role: RIFIT
    Keyword: DF_BASIS_SAPT
    atoms 1     entry B          line    56 file /home/gridsan/tfroembgen/.conda/envs/psi4test/share/psi4/basis/jun-cc-pvdz-ri.gbs 
    atoms 2-5   entry F          line   232 file /home/gridsan/tfroembgen/.conda/envs/psi4test/share/psi4/basis/jun-cc-pvdz-ri.gbs 
    atoms 6-59  entry C          line   100 file /home/gridsan/tfroembgen/.conda/envs/psi4test/share/psi4/basis/jun-cc-pvdz-ri.gbs 
    atoms 60-77 entry H          line    30 file /home/gridsan/tfroembgen/.conda/envs/psi4test/share/psi4/basis/jun-cc-pvdz-ri.gbs 

   => Loading Basis Set <=

    Name: (JUN-CC-PVDZ AUX)
    Role: JKFIT
    Keyword: DF_BASIS_ELST
    atoms 1     entry B          line    90 file /home/gridsan/tfroembgen/.conda/envs/psi4test/share/psi4/basis/jun-cc-pvdz-jkfit.gbs 
    atoms 2-5   entry F          line   314 file /home/gridsan/tfroembgen/.conda/envs/psi4test/share/psi4/basis/jun-cc-pvdz-jkfit.gbs 
    atoms 6-59  entry C          line   146 file /home/gridsan/tfroembgen/.conda/envs/psi4test/share/psi4/basis/jun-cc-pvdz-jkfit.gbs 
    atoms 60-77 entry H          line    70 file /home/gridsan/tfroembgen/.conda/envs/psi4test/share/psi4/basis/jun-cc-pvdz-jkfit.gbs 


  //>>>>>>>>>>>>>>>>>>>>>>>>>>>>>>>>>>>//
  //               SSAPT0              //
  //<<<<<<<<<<<<<<<<<<<<<<<<<<<<<<<<<<<//


*** tstart() called on d-6-6-3
*** at Sat Jan 20 22:31:24 2024

        SAPT0  
    Ed Hohenstein
     6 June 2009

      Orbital Information
  --------------------------
    NSO        =      1152
    NMO        =      1138
    NRI        =      4087
    NRI (Elst) =      5075
    NOCC A     =        21
    NOCC B     =       171
    FOCC A     =         5
    FOCC B     =        54
    NVIR A     =      1117
    NVIR B     =       967

    Elst10,r            =    -0.604172477970 [Eh]
    Exch10              =     1.376522790737 [Eh]
    Exch10 (S^2)        =     1.229762108508 [Eh]

    Iter     Energy [mEh]          dE [mEh]         Residual      Time [s]
       1    -310.17421232     310.174212316     174.038583563           553
       2    -334.26516962      24.090957302      60.545245360           960
       3    -367.99553747      33.730367856      12.020962300          1501
       4    -368.05442456       0.058887082       3.388903412          1618
       5    -367.38170256      -0.672722000       0.942417838          1721
       6    -367.36061891      -0.021083647       0.288642988          1735
       7    -367.40649142       0.045872509       0.045750745          1749
       8    -367.40442693      -0.002064485       0.009261222          1763
       9    -367.40393349      -0.000493446       0.001380739          1775
      10    -367.40406236       0.000128874       0.000237165          1787
      11    -367.40405098      -0.000011378       0.000041921          1799
      12    -367.40405037      -0.000000613       0.000012870          1811
      13    -367.40405065       0.000000282       0.000003668          1823
      14    -367.40405082       0.000000166       0.000000840          1836

    CHF Iterations converged


    Iter     Energy [mEh]          dE [mEh]         Residual      Time [s]
       1    -400.14793068     400.147930682     148.895650809            66
       2    -412.05813662      11.910205942      56.712607692           307
       3    -450.66091176      38.602775136      12.270453442           348
       4    -451.69412873       1.033216967       4.295481660           377
       5    -450.72130885      -0.972819876       1.719531174           399
       6    -450.52278951      -0.198519345       0.639309832           419
       7    -450.64358900       0.120799496       0.245690481           440
       8    -450.67429555       0.030706553       0.110177757           458
       9    -450.66142163      -0.012873925       0.046482929           475
      10    -450.65623716      -0.005184470       0.017130325           501
      11    -450.65701866       0.000781499       0.007707868           520
      12    -450.65817853       0.001159874       0.006757777           538
      13    -450.65807103      -0.000107508       0.004240016           555
      14    -450.65756600      -0.000505024       0.001626254           575
      15    -450.65759595       0.000029944       0.000579247           593
      16    -450.65765694       0.000060991       0.000172413           609
      17    -450.65765482      -0.000002113       0.000066448           627
      18    -450.65765052      -0.000004304       0.000030471           645
      19    -450.65764922      -0.000001303       0.000014248           661
      20    -450.65765020       0.000000986       0.000007612           677
      21    -450.65765046       0.000000254       0.000003938           694
      22    -450.65765024      -0.000000219       0.000001910           713
      23    -450.65765018      -0.000000056       0.000001028           731
      24    -450.65765021       0.000000028       0.000000515           747

    CHF Iterations converged

    Ind20,r (A<-B)      =    -0.367404050817 [Eh]
    Ind20,r (B<-A)      =    -0.450657650209 [Eh]
    Ind20,r             =    -0.818061701026 [Eh]
    Exch-Ind20,r (A<-B) =     0.216344470882 [Eh]
    Exch-Ind20,r (B<-A) =     0.291522230064 [Eh]
    Exch-Ind20,r        =     0.507866700946 [Eh]
    Disp20              =    -0.176005952674 [Eh]
    Disp20 (SS)         =    -0.088002976337 [Eh]
    Disp20 (OS)         =    -0.088002976337 [Eh]
    Exch-Disp20         =     0.072327778596 [Eh]
    Exch-Disp20 (SS)    =     0.032621194153 [Eh]
    Exch-Disp20 (OS)    =     0.039706584443 [Eh]

    SAPT Results 
  --------------------------------------------------------------------------------------------------------
    Electrostatics               -604.17247797 [mEh]    -379.12395372 [kcal/mol]   -1586.25462237 [kJ/mol]
      Elst10,r                   -604.17247797 [mEh]    -379.12395372 [kcal/mol]   -1586.25462237 [kJ/mol]

    Exchange                     1376.52279074 [mEh]     863.78109206 [kcal/mol]    3614.06008917 [kJ/mol]
      Exch10                     1376.52279074 [mEh]     863.78109206 [kcal/mol]    3614.06008917 [kJ/mol]
      Exch10(S^2)                1229.76210851 [mEh]     771.68737358 [kcal/mol]    3228.73997106 [kJ/mol]

    Induction                      12.08230999 [mEh]       7.58176398 [kcal/mol]      31.72210051 [kJ/mol]
      Ind20,r                    -818.06170103 [mEh]    -513.34146753 [kcal/mol]   -2147.82070014 [kJ/mol]
      Exch-Ind20,r                507.86670095 [mEh]     318.69116626 [kcal/mol]    1333.40383963 [kJ/mol]
      delta HF,r (2)              322.27731007 [mEh]     202.23206525 [kcal/mol]     846.13896102 [kJ/mol]

    Dispersion                   -103.67817408 [mEh]     -65.05903646 [kcal/mol]    -272.20700854 [kJ/mol]
      Disp20                     -176.00595267 [mEh]    -110.44540274 [kcal/mol]    -462.10356508 [kJ/mol]
      Exch-Disp20                  72.32777860 [mEh]      45.38636629 [kcal/mol]     189.89655654 [kJ/mol]
      Disp20 (SS)                 -88.00297634 [mEh]     -55.22270137 [kcal/mol]    -231.05178254 [kJ/mol]
      Disp20 (OS)                 -88.00297634 [mEh]     -55.22270137 [kcal/mol]    -231.05178254 [kJ/mol]
      Exch-Disp20 (SS)             32.62119415 [mEh]      20.47010838 [kcal/mol]      85.64693345 [kJ/mol]
      Exch-Disp20 (OS)             39.70658444 [mEh]      24.91625791 [kcal/mol]     104.24962309 [kJ/mol]

  Total HF                        784.43262276 [mEh]     492.23890232 [kcal/mol]    2059.52756731 [kJ/mol]
  Total SAPT0                     680.75444868 [mEh]     427.17986586 [kcal/mol]    1787.32055877 [kJ/mol]

  Special recipe for scaled SAPT0 (see Manual):
    Electrostatics sSAPT0        -604.17247797 [mEh]    -379.12395372 [kcal/mol]   -1586.25462237 [kJ/mol]
    Exchange sSAPT0              1376.52279074 [mEh]     863.78109206 [kcal/mol]    3614.06008917 [kJ/mol]
    Induction sSAPT0              216.47245994 [mEh]     135.83851942 [kcal/mol]     568.34836527 [kJ/mol]
    Dispersion sSAPT0             -74.56997406 [mEh]     -46.79336518 [kcal/mol]    -195.78343993 [kJ/mol]
  Total sSAPT0                    914.25279865 [mEh]     573.70229258 [kcal/mol]    2400.37039214 [kJ/mol]
  --------------------------------------------------------------------------------------------------------

*** tstop() called on d-6-6-3 at Sat Jan 20 23:39:22 2024
Module time:
	user time   =    7794.18 seconds =     129.90 minutes
	system time =     701.35 seconds =      11.69 minutes
	total time  =       4078 seconds =      67.97 minutes
Total time:
	user time   =   16059.97 seconds =     267.67 minutes
	system time =     892.62 seconds =      14.88 minutes
	total time  =       5062 seconds =      84.37 minutes

    Psi4 stopped on: Saturday, 20 January 2024 11:39PM
    Psi4 wall time for execution: 1:24:23.19

*** Psi4 exiting successfully. Buy a developer a beer!
