
    -----------------------------------------------------------------------
          Psi4: An Open-Source Ab Initio Electronic Structure Package
                               Psi4 1.9 release

                         Git: Rev {} zzzzzzz 


    D. G. A. Smith, L. A. Burns, A. C. Simmonett, R. M. Parrish,
    M. C. Schieber, R. Galvelis, P. Kraus, H. Kruse, R. Di Remigio,
    A. Alenaizan, A. M. James, S. Lehtola, J. P. Misiewicz, M. Scheurer,
    R. A. Shaw, J. B. Schriber, Y. Xie, Z. L. Glick, D. A. Sirianni,
    J. S. O'Brien, J. M. Waldrop, A. Kumar, E. G. Hohenstein,
    B. P. Pritchard, B. R. Brooks, H. F. Schaefer III, A. Yu. Sokolov,
    K. Patkowski, A. E. DePrince III, U. Bozkaya, R. A. King,
    F. A. Evangelista, J. M. Turney, T. D. Crawford, C. D. Sherrill,
    J. Chem. Phys. 152(18) 184108 (2020). https://doi.org/10.1063/5.0006002

                            Additional Code Authors
    E. T. Seidl, C. L. Janssen, E. F. Valeev, M. L. Leininger,
    J. F. Gonthier, R. M. Richard, H. R. McAlexander, M. Saitow, X. Wang,
    P. Verma, M. H. Lechner, A. Jiang, S. Behnle, A. G. Heide,
    M. F. Herbst, and D. L. Poole

             Previous Authors, Complete List of Code Contributors,
                       and Citations for Specific Modules
    https://github.com/psi4/psi4/blob/master/codemeta.json
    https://github.com/psi4/psi4/graphs/contributors
    http://psicode.org/psi4manual/master/introduction.html#citing-psifour

    -----------------------------------------------------------------------


    Psi4 started on: Wednesday, 07 February 2024 07:53PM

    Process ID: 2051245
    Host:       n2cn1173
    PSIDATADIR: /opt/software/pc2/EB-SW/software/PSI4/1.9-foss-2022a/share/psi4
    Memory:     500.0 MiB
    Threads:    16
    
  ==> Input File <==

--------------------------------------------------------------------------
memory 80 GB # how much memory is available ! Depends on the nodes/cores !

molecule dimer {
# monomer A
-1 1    # Charge and multiplicity
B -0.000046  0.000337 3.099994
F -1.153597  0.000048 3.915641
F  1.153661 -0.000581 3.915641
F -0.000019 -1.153637 2.284360
F -0.000019  1.153978 2.284360
--
# monomer B
0 1     # Charge and multiplicity
C   -3.66844126402057      7.80375217008252      0.00190004133558
C   -4.84759871934653      7.13124183134024     -0.00046653359696
C   -4.89495929917518      5.69633040353158     -0.00103944469517
C   -3.65374067877320      4.98073034095895      0.00662099703436
C   -2.40942512149445      7.11398103667468      0.00209438359570
C   -2.42547734410473      5.68112195090346     -0.00491050527438
C   -1.19474401643570      7.78614419430947      0.00356656413763
C   0.03795902893699      7.09942164575698      0.00139585983271
C   0.03033258741920      5.66948955970466     -0.00408752508301
C   -1.20098450790502      4.96927034791531      0.00488220885047
C   1.27795782581485      7.77285944319479      0.00277170839332
C   2.48535808472416      7.08769688523756      0.00049722048857
C   2.48612868491717      5.65477081024076     -0.00644052849921
C   1.25408291964399      4.95607811366431      0.00518741308898
C   3.75171459140595      7.76391215098033      0.00062407186893
C   4.92356605618520      7.07878077698995     -0.00143240883900
C   4.95560727132542      5.64344746336949     -0.00159282164606
C   3.70680153420475      4.94121020833308      0.00349873852374
H   -3.65852113775815      8.89082741913536      0.00358502958574
H   -1.18921332975660      8.87412108735996      0.00753844057883
H   1.28429423888630      8.86083343548850      0.00693053253426
H   3.75354208679975      8.85103527897216      0.00214659618464
H   5.86995870320703      7.61379483465560     -0.00235777588134
H   -5.78823170750226      7.67630221293400     -0.00202638095293
C   -6.09197395869619      4.99326001364347     -0.00291168518608
C   -6.12866148031747      3.58258016879823     -0.00171050815740
C   -3.66457974004527      3.56418217974434     -0.00463560277484
C   -4.89429820469869      2.86108077590057      0.00453338221034
C   -2.43733499489796      2.84761165708481      0.00719617576166
C   -1.20922785759670      3.54788693497833     -0.00648285103018
C   1.24714157216223      3.53468075142962     -0.00729145743546
C   0.01517603956900      2.83311183930540      0.00439272578912
C   2.46764517244071      2.82128997725533      0.00449278391269
C   3.70254947457969      3.52466015442405     -0.00899517692985
C   6.14498038638375      4.92757236613191     -0.00282626685777
C   6.16658835886151      3.51658447594213     -0.00065971342101
C   4.92460995845939      2.80840792535402      0.00587903281610
H   7.08990550964105      5.46688776622306     -0.00658814770723
H   -7.03104175110130      5.54268795285765     -0.00714490013730
C   -7.33969804112295      2.85841153457957     -0.00333767559888
C   -7.36488195805880      1.47032337158330     -0.00157213747140
C   -4.90350460894690      1.44442681216000     -0.00628840166334
C   -6.13225715261081      0.73993935705394      0.00600164231964
C   -3.67687480051673      0.72669714267312      0.00433931473643
C   -2.44565658606518      1.42964113326212     -0.00597039546461
C   -1.22360068130162      0.71532450163492      0.00545886906656
C   0.00763786931376      1.41738314923765      0.00392452278437
C   1.23121980774686      0.70211669058719     -0.01490206287210
C   2.46082110053113      1.40329203612573      0.00460244601878
C   3.68443025419614      0.68719842821222      0.00377365974158
C   4.91870890153864      1.39173456118907     -0.00862816189375
C   7.36980207796101      2.77948220318441     -0.00242013321349
C   7.38016266612146      1.39121750785509     -0.00087345036788
C   6.13979953912259      0.67411862320065      0.00545489144369
H   -8.27919079934664      3.40711804112415     -0.00763522772059
H   8.31511347147953      3.31811809662368     -0.00663070901292
C   -8.59175593758115      0.72483255304480     -0.00123170985383
C   -8.59902460370342     -0.63263980622873      0.00089141472904
C   -6.13981313911873     -0.67413663715361     -0.00609792660607
C   -7.38018411213749     -1.39126618958160      0.00131813493501
C   -4.91868448025621     -1.39175501803000      0.00624257154343
C   -3.68443829568458     -0.68723731573599     -0.00478966852105
C   -2.46081704024768     -1.40334517882457      0.00575341766833
C   -1.23116201232071     -0.70217386488055     -0.00636696112346
C   -0.00756962538737     -1.41741884941102      0.00108956317991
C   1.22364771588843     -0.71527537726392      0.01109518512883
C   2.44567064933149     -1.42964328900682     -0.00065482763106
C   3.67686670284649     -0.72670743155550     -0.00479541202602
C   6.13224884641929     -0.73997883984993     -0.00632338623858
C   4.90351914550401     -1.44445752054090      0.00751768830159
C   8.59901484869081      0.63260386666793     -0.00101133422380
C   8.59174548810050     -0.72485086719319      0.00072504603735
C   7.36486276438985     -1.47033266560598      0.00049486934466
H   -9.52830597181814      1.27684744919284     -0.00270163681798
H   9.54141097460619      1.17457248844457     -0.00206336648518
C   -7.36983790976868     -2.77954514593389      0.00312634335708
C   -4.92459910905015     -2.80843725734101     -0.00460528907921
C   -6.16662249566744     -3.51665219282533      0.00169655107992
C   -3.70251035970491     -3.52468154912026      0.00571878010666
C   -2.46764698511392     -2.82132596280400     -0.00632585824990
C   -0.01513347410770     -2.83314164539971     -0.00604426974092
C   -1.24712184122656     -3.53473217556300      0.00551968366725
C   1.20924506964357     -3.54791467864352      0.00805871345849
C   2.43733602215464     -2.84764173817541     -0.00608104485234
C   4.89430234377080     -2.86112296828604     -0.00526030478103
C   3.66461525504104     -3.56421984553201      0.00761911515957
C   6.12863901474565     -3.58258405771778      0.00096495711699
C   7.33967266469532     -2.85841330737039      0.00248018319869
H   -9.54144911125902     -1.17456346666430      0.00226083090216
H   9.52826186807155     -1.27691907390448      0.00197485379837
H   -8.31516504384864     -3.31814985321231      0.00729857188773
H   8.27915514249207     -3.40714078989363      0.00681973918158
C   -6.14499418870218     -4.92764727278338      0.00302254913999
C   -3.70678334799751     -4.94126171411716     -0.00679841894792
C   -4.95559005800169     -5.64349397349412      0.00116871569699
C   -2.48612132622665     -5.65478557440947      0.00614125209662
C   -1.25405833548005     -4.95612205000132     -0.00503435388927
C   1.20101257386816     -4.96928038819302     -0.00385322963129
C   -0.03033667441341     -5.66952030313900      0.00398997003238
C   3.65375010132847     -4.98074377541453     -0.00309522988330
C   2.42549269587528     -5.68117463552727      0.00628170066869
C   6.09196561781097     -4.99325796338655      0.00325918379042
C   4.89497644461045     -5.69634842095790      0.00202298796027
H   -7.08989238804069     -5.46699984223871      0.00742531082125
H   7.03105520920009     -5.54265853633254      0.00683896355417
C   -4.92354532219813     -7.07882109967734      0.00061394679214
C   -2.48534208823777     -7.08772807792913     -0.00189594564379
C   -3.75168589177895     -7.76394715763627     -0.00170126671874
C   -0.03794895698805     -7.09946487446944     -0.00168022049625
C   -1.27795610040136     -7.77290438466689     -0.00366491325785
C   2.40944432072629     -7.11402201200282     -0.00081701968533
C   1.19474993715296     -7.78618536556242     -0.00296931056689
C   4.84762105249800     -7.13126211057943      0.00168979497423
C   3.66847160587561     -7.80378799294376     -0.00065863938960
H   -5.86994035041618     -7.61383059804164      0.00215798365757
H   5.78824962538815     -7.67633218931421      0.00281691445618
H   -3.75352693944918     -8.85107156923607     -0.00353718114765
H   -1.28430440589466     -8.86087539249706     -0.00809229711623
H   1.18922157469537     -8.87416062058945     -0.00706194725726
H   3.65854661482387     -8.89086063405326     -0.00231318081200

    units angstrom      # Angstroms are the default
    no_reorient         # Geometry fixed, default
    symmetry c1         # C1 symmetry, default
}

set {
    scf_type DF         # Density fitting, faster than exact integrals
    freeze_core True    # Freeze core electrons
    basis jun-cc-pVDZ   # Jun-cc-pVDZ basis set, recommended for sSAPT0 in https://doi.org/10.1063/1.4867135
}

energy('ssapt0')        # Compute sSAPT0 energy, includes also SAPT0
--------------------------------------------------------------------------

  Memory set to  74.506 GiB by Python driver.

Scratch directory: /tmp/
   => Loading Basis Set <=

    Name: JUN-CC-PVDZ
    Role: ORBITAL
    Keyword: BASIS
    atoms 1                                                   entry B          line   130 file /opt/software/pc2/EB-SW/software/PSI4/1.9-foss-2022a/share/psi4/basis/jun-cc-pvdz.gbs 
    atoms 2-5                                                 entry F          line   266 file /opt/software/pc2/EB-SW/software/PSI4/1.9-foss-2022a/share/psi4/basis/jun-cc-pvdz.gbs 
    atoms 6-23, 30-42, 45-59, 62-78, 81-93, 98-108, 111-119   entry C          line   164 file /opt/software/pc2/EB-SW/software/PSI4/1.9-foss-2022a/share/psi4/basis/jun-cc-pvdz.gbs 
    atoms 24-29, 43-44, 60-61, 79-80, 94-97, 109-110, 120-125 entry H          line    36 file /opt/software/pc2/EB-SW/software/PSI4/1.9-foss-2022a/share/psi4/basis/jun-cc-pvdz.gbs 

   => Loading Basis Set <=

    Name: JUN-CC-PVDZ
    Role: ORBITAL
    Keyword: BASIS
    atoms 1                                                   entry B          line   130 file /opt/software/pc2/EB-SW/software/PSI4/1.9-foss-2022a/share/psi4/basis/jun-cc-pvdz.gbs 
    atoms 2-5                                                 entry F          line   266 file /opt/software/pc2/EB-SW/software/PSI4/1.9-foss-2022a/share/psi4/basis/jun-cc-pvdz.gbs 
    atoms 6-23, 30-42, 45-59, 62-78, 81-93, 98-108, 111-119   entry C          line   164 file /opt/software/pc2/EB-SW/software/PSI4/1.9-foss-2022a/share/psi4/basis/jun-cc-pvdz.gbs 
    atoms 24-29, 43-44, 60-61, 79-80, 94-97, 109-110, 120-125 entry H          line    36 file /opt/software/pc2/EB-SW/software/PSI4/1.9-foss-2022a/share/psi4/basis/jun-cc-pvdz.gbs 


  //>>>>>>>>>>>>>>>>>>>>>>>>>>>>>>>>>>>//
  //              Dimer HF             //
  //<<<<<<<<<<<<<<<<<<<<<<<<<<<<<<<<<<<//

   => Libint2 <=

    Primary   basis highest AM E, G, H:  5, 4, 3
    Auxiliary basis highest AM E, G, H:  6, 5, 4
    Onebody   basis highest AM E, G, H:  6, 5, 4
    Solid Harmonics ordering:            gaussian

*** tstart() called on n2cn1173
*** at Wed Feb  7 19:53:58 2024

   => Loading Basis Set <=

    Name: JUN-CC-PVDZ
    Role: ORBITAL
    Keyword: BASIS
    atoms 1                                                   entry B          line   130 file /opt/software/pc2/EB-SW/software/PSI4/1.9-foss-2022a/share/psi4/basis/jun-cc-pvdz.gbs 
    atoms 2-5                                                 entry F          line   266 file /opt/software/pc2/EB-SW/software/PSI4/1.9-foss-2022a/share/psi4/basis/jun-cc-pvdz.gbs 
    atoms 6-23, 30-42, 45-59, 62-78, 81-93, 98-108, 111-119   entry C          line   164 file /opt/software/pc2/EB-SW/software/PSI4/1.9-foss-2022a/share/psi4/basis/jun-cc-pvdz.gbs 
    atoms 24-29, 43-44, 60-61, 79-80, 94-97, 109-110, 120-125 entry H          line    36 file /opt/software/pc2/EB-SW/software/PSI4/1.9-foss-2022a/share/psi4/basis/jun-cc-pvdz.gbs 


         ---------------------------------------------------------
                                   SCF
               by Justin Turney, Rob Parrish, Andy Simmonett
                          and Daniel G. A. Smith
                              RHF Reference
                       16 Threads,  76293 MiB Core
         ---------------------------------------------------------

  ==> Geometry <==

    Molecular point group: c1
    Full point group: C1

    Geometry (in Angstrom), charge = -1, multiplicity = 1:

       Center              X                  Y                   Z               Mass       
    ------------   -----------------  -----------------  -----------------  -----------------
         B           -0.000050191042     0.000351518223     2.886476785396    11.009305360000
         F           -1.153601191042     0.000062518223     3.702123785396    18.998403162730
         F            1.153656808958    -0.000566481777     3.702123785396    18.998403162730
         F           -0.000023191042    -1.153622481777     2.070842785396    18.998403162730
         F           -0.000023191042     1.153992518223     2.070842785396    18.998403162730
         C           -3.668445455062     7.803766688305    -0.211617173269    12.000000000000
         C           -4.847602910388     7.131256349563    -0.213983748201    12.000000000000
         C           -4.894963490217     5.696344921754    -0.214556659299    12.000000000000
         C           -3.653744869815     4.980744859182    -0.206896217570    12.000000000000
         C           -2.409429312536     7.113995554897    -0.211422831009    12.000000000000
         C           -2.425481535146     5.681136469126    -0.218427719879    12.000000000000
         C           -1.194748207477     7.786158712532    -0.209950650467    12.000000000000
         C            0.037954837895     7.099436163980    -0.212121354771    12.000000000000
         C            0.030328396378     5.669504077927    -0.217604739687    12.000000000000
         C           -1.200988698947     4.969284866138    -0.208635005754    12.000000000000
         C            1.277953634773     7.772873961417    -0.210745506211    12.000000000000
         C            2.485353893683     7.087711403460    -0.213019994116    12.000000000000
         C            2.486124493876     5.654785328463    -0.219957743103    12.000000000000
         C            1.254078728602     4.956092631887    -0.208329801515    12.000000000000
         C            3.751710400364     7.763926669203    -0.212893142735    12.000000000000
         C            4.923561865144     7.078795295213    -0.214949623443    12.000000000000
         C            4.955603080284     5.643461981592    -0.215110036250    12.000000000000
         C            3.706797343163     4.941224726556    -0.210018476080    12.000000000000
         H           -3.658525328800     8.890841937358    -0.209932185018     1.007825032230
         H           -1.189217520798     8.874135605583    -0.205978774025     1.007825032230
         H            1.284290047845     8.860847953711    -0.206586682070     1.007825032230
         H            3.753537895758     8.851049797195    -0.211370618420     1.007825032230
         H            5.869954512165     7.613809352878    -0.215874990486     1.007825032230
         H           -5.788235898544     7.676316731157    -0.215543595557     1.007825032230
         C           -6.091978149738     4.993274531866    -0.216428899790    12.000000000000
         C           -6.128665671359     3.582594687021    -0.215227722762    12.000000000000
         C           -3.664583931087     3.564196697967    -0.218152817379    12.000000000000
         C           -4.894302395740     2.861095294123    -0.208983832394    12.000000000000
         C           -2.437339185940     2.847626175307    -0.206321038843    12.000000000000
         C           -1.209232048638     3.547901453201    -0.220000065634    12.000000000000
         C            1.247137381121     3.534695269652    -0.220808672040    12.000000000000
         C            0.015171848527     2.833126357528    -0.209124488815    12.000000000000
         C            2.467640981399     2.821304495478    -0.209024430692    12.000000000000
         C            3.702545283538     3.524674672647    -0.222512391534    12.000000000000
         C            6.144976195342     4.927586884354    -0.216343481462    12.000000000000
         C            6.166584167820     3.516598994165    -0.214176928025    12.000000000000
         C            4.924605767418     2.808422443577    -0.207638181788    12.000000000000
         H            7.089901318599     5.466902284446    -0.220105362311     1.007825032230
         H           -7.031045942143     5.542702471080    -0.220662114742     1.007825032230
         C           -7.339702232165     2.858426052802    -0.216854890203    12.000000000000
         C           -7.364886149100     1.470337889806    -0.215089352076    12.000000000000
         C           -4.903508799989     1.444441330383    -0.219805616268    12.000000000000
         C           -6.132261343652     0.739953875277    -0.207515572285    12.000000000000
         C           -3.676878991558     0.726711660896    -0.209177899868    12.000000000000
         C           -2.445660777107     1.429655651485    -0.219487610069    12.000000000000
         C           -1.223604872343     0.715339019858    -0.208058345538    12.000000000000
         C            0.007633678272     1.417397667460    -0.209592691820    12.000000000000
         C            1.231215616705     0.702131208810    -0.228419277476    12.000000000000
         C            2.460816909489     1.403306554348    -0.208914768585    12.000000000000
         C            3.684426063155     0.687212946435    -0.209743554863    12.000000000000
         C            4.918704710497     1.391749079412    -0.222145376498    12.000000000000
         C            7.369797886919     2.779496721407    -0.215937347818    12.000000000000
         C            7.380158475080     1.391232026078    -0.214390664972    12.000000000000
         C            6.139795348081     0.674133141423    -0.208062323161    12.000000000000
         H           -8.279194990388     3.407132559347    -0.221152442325     1.007825032230
         H            8.315109280438     3.318132614846    -0.220147923617     1.007825032230
         C           -8.591760128623     0.724847071267    -0.214748924458    12.000000000000
         C           -8.599028794745    -0.632625288006    -0.212625799875    12.000000000000
         C           -6.139817330160    -0.674122118931    -0.219615141210    12.000000000000
         C           -7.380188303179    -1.391251671359    -0.212199079669    12.000000000000
         C           -4.918688671298    -1.391740499807    -0.207274643061    12.000000000000
         C           -3.684442486726    -0.687222797513    -0.218306883125    12.000000000000
         C           -2.460821231289    -1.403330660602    -0.207763796936    12.000000000000
         C           -1.231166203362    -0.702159346658    -0.219884175728    12.000000000000
         C           -0.007573816429    -1.417404331188    -0.212427651424    12.000000000000
         C            1.223643524847    -0.715260859041    -0.202422029475    12.000000000000
         C            2.445666458290    -1.429628770784    -0.214172042235    12.000000000000
         C            3.676862511805    -0.726692913333    -0.218312626630    12.000000000000
         C            6.132244655378    -0.739964321627    -0.219840600843    12.000000000000
         C            4.903514954462    -1.444443002318    -0.205999526303    12.000000000000
         C            8.599010657649     0.632618384891    -0.214528548828    12.000000000000
         C            8.591741297059    -0.724836348971    -0.212792168567    12.000000000000
         C            7.364858573348    -1.470318147383    -0.213022345260    12.000000000000
         H           -9.528310162860     1.276861967415    -0.216218851422     1.007825032230
         H            9.541406783565     1.174587006667    -0.215580581089     1.007825032230
         C           -7.369842100810    -2.779530627711    -0.210390871247    12.000000000000
         C           -4.924603300092    -2.808422739118    -0.218122503683    12.000000000000
         C           -6.166626686709    -3.516637674603    -0.211820663524    12.000000000000
         C           -3.702514550747    -3.524667030898    -0.207798434498    12.000000000000
         C           -2.467651176156    -2.821311444581    -0.219843072854    12.000000000000
         C           -0.015137665149    -2.833127127177    -0.219561484345    12.000000000000
         C           -1.247126032268    -3.534717657340    -0.207997530937    12.000000000000
         C            1.209240878602    -3.547900160421    -0.205458501146    12.000000000000
         C            2.437331831113    -2.847627219953    -0.219598259457    12.000000000000
         C            4.894298152729    -2.861108450063    -0.218777519385    12.000000000000
         C            3.664611063999    -3.564205327309    -0.205898099445    12.000000000000
         C            6.128634823704    -3.582569539495    -0.212552257487    12.000000000000
         C            7.339668473654    -2.858398789148    -0.211037031406    12.000000000000
         H           -9.541453302301    -1.174548948442    -0.211256383702     1.007825032230
         H            9.528257677030    -1.276904555682    -0.211542360806     1.007825032230
         H           -8.315169234890    -3.318135334990    -0.206218642716     1.007825032230
         H            8.279150951450    -3.407126271671    -0.206697475423     1.007825032230
         C           -6.144998379744    -4.927632754561    -0.210494665464    12.000000000000
         C           -3.706787539039    -4.941247195895    -0.220315633552    12.000000000000
         C           -4.955594249043    -5.643479455272    -0.212348498907    12.000000000000
         C           -2.486125517268    -5.654771056187    -0.207375962508    12.000000000000
         C           -1.254062526522    -4.956107531779    -0.218551568493    12.000000000000
         C            1.201008382827    -4.969265869970    -0.217370444235    12.000000000000
         C           -0.030340865455    -5.669505784916    -0.209527244572    12.000000000000
         C            3.653745910287    -4.980729257192    -0.216612444488    12.000000000000
         C            2.425488504834    -5.681160117305    -0.207235513936    12.000000000000
         C            6.091961426769    -4.993243445164    -0.210258030814    12.000000000000
         C            4.894972253569    -5.696333902735    -0.211494226644    12.000000000000
         H           -7.089896579082    -5.466985324016    -0.206091903783     1.007825032230
         H            7.031051018158    -5.542644018110    -0.206678251050     1.007825032230
         C           -4.923549513240    -7.078806581455    -0.212903267812    12.000000000000
         C           -2.485346279279    -7.087713559707    -0.215413160248    12.000000000000
         C           -3.751690082821    -7.763932639414    -0.215218481323    12.000000000000
         C           -0.037953148030    -7.099450356247    -0.215197435100    12.000000000000
         C           -1.277960291443    -7.772889866444    -0.217182127862    12.000000000000
         C            2.409440129685    -7.114007493780    -0.214334234290    12.000000000000
         C            1.194745746111    -7.786170847340    -0.216486525171    12.000000000000
         C            4.847616861456    -7.131247592357    -0.211827419630    12.000000000000
         C            3.668467414834    -7.803773474721    -0.214175853994    12.000000000000
         H           -5.869944541458    -7.613816079819    -0.211359230947     1.007825032230
         H            5.788245434347    -7.676317671092    -0.210700300148     1.007825032230
         H           -3.753531130491    -8.851057051013    -0.217054395752     1.007825032230
         H           -1.284308596936    -8.860860874274    -0.221609511720     1.007825032230
         H            1.189217383654    -8.874146102367    -0.220579161861     1.007825032230
         H            3.658542423782    -8.890846115831    -0.215830395416     1.007825032230

  Running in c1 symmetry.

  Rotational constants: A =      0.00068  B =      0.00068  C =      0.00035 [cm^-1]
  Rotational constants: A =     20.39802  B =     20.39446  C =     10.55117 [MHz]
  Nuclear repulsion = 17836.287640868195012

  Charge       = -1
  Multiplicity = 1
  Electrons    = 642
  Nalpha       = 321
  Nbeta        = 321

  ==> Algorithm <==

  SCF Algorithm Type is DF.
  DIIS enabled.
  MOM disabled.
  Fractional occupation disabled.
  Guess Type is SAD.
  Energy threshold   = 1.00e-08
  Density threshold  = 1.00e-08
  Integral threshold = 1.00e-12

  ==> Primary Basis <==

  Basis Set: JUN-CC-PVDZ
    Blend: JUN-CC-PVDZ
    Number of shells: 880
    Number of basis functions: 1938
    Number of Cartesian functions: 2039
    Spherical Harmonics?: true
    Max angular momentum: 2

   => Loading Basis Set <=

    Name: (JUN-CC-PVDZ AUX)
    Role: JKFIT
    Keyword: DF_BASIS_SCF
    atoms 1                                                   entry B          line    90 file /opt/software/pc2/EB-SW/software/PSI4/1.9-foss-2022a/share/psi4/basis/jun-cc-pvdz-jkfit.gbs 
    atoms 2-5                                                 entry F          line   314 file /opt/software/pc2/EB-SW/software/PSI4/1.9-foss-2022a/share/psi4/basis/jun-cc-pvdz-jkfit.gbs 
    atoms 6-23, 30-42, 45-59, 62-78, 81-93, 98-108, 111-119   entry C          line   146 file /opt/software/pc2/EB-SW/software/PSI4/1.9-foss-2022a/share/psi4/basis/jun-cc-pvdz-jkfit.gbs 
    atoms 24-29, 43-44, 60-61, 79-80, 94-97, 109-110, 120-125 entry H          line    70 file /opt/software/pc2/EB-SW/software/PSI4/1.9-foss-2022a/share/psi4/basis/jun-cc-pvdz-jkfit.gbs 

  ==> Integral Setup <==

  ==> DiskDFJK: Density-Fitted J/K Matrices <==

    J tasked:                  Yes
    K tasked:                  Yes
    wK tasked:                  No
    OpenMP threads:             16
    Integrals threads:          16
    Memory [MiB]:            57220
    Algorithm:                Disk
    Integral Cache:           SAVE
    Schwarz Cutoff:          1E-12
    Fitting Condition:       1E-10

   => Auxiliary Basis Set <=

  Basis Set: (JUN-CC-PVDZ AUX)
    Blend: JUN-CC-PVDZ-JKFIT
    Number of shells: 2943
    Number of basis functions: 8531
    Number of Cartesian functions: 9791
    Spherical Harmonics?: true
    Max angular momentum: 3

  Minimum eigenvalue in the overlap matrix is 6.2476976767E-11.
  Reciprocal condition number of the overlap matrix is 2.5565409386E-12.
    Using canonical orthogonalization.
  Overall, 40 of 1938 possible MOs eliminated.


  ==> Pre-Iterations <==

  SCF Guess: Superposition of Atomic Densities via on-the-fly atomic UHF (no occupation information).

   -------------------------
    Irrep   Nso     Nmo    
   -------------------------
     A       1938    1898 
   -------------------------
    Total    1938    1898
   -------------------------

  ==> Iterations <==

                           Total Energy        Delta E     RMS |[F,P]|

   @DF-RHF iter SAD: -4085.47629025415790   -4.08548e+03   0.00000e+00 
   @DF-RHF iter   1: -4071.46566870329161    1.40106e+01   7.91866e-04 DIIS/ADIIS
   @DF-RHF iter   2: -4072.87480176053032   -1.40913e+00   3.13750e-04 DIIS/ADIIS
   @DF-RHF iter   3: -4073.04811213594121   -1.73310e-01   1.13846e-04 DIIS/ADIIS
   @DF-RHF iter   4: -4073.07400043944972   -2.58883e-02   5.02029e-05 DIIS
   @DF-RHF iter   5: -4073.07997487389639   -5.97443e-03   1.45457e-05 DIIS
   @DF-RHF iter   6: -4073.08064631802608   -6.71444e-04   5.06825e-06 DIIS
   @DF-RHF iter   7: -4073.08084842243579   -2.02104e-04   2.74057e-06 DIIS
   @DF-RHF iter   8: -4073.08092265024425   -7.42278e-05   1.28789e-06 DIIS
   @DF-RHF iter   9: -4073.08094654882643   -2.38986e-05   4.85349e-07 DIIS
   @DF-RHF iter  10: -4073.08094823209422   -1.68327e-06   1.90227e-07 DIIS
   @DF-RHF iter  11: -4073.08094849448935   -2.62395e-07   7.15403e-08 DIIS
   @DF-RHF iter  12: -4073.08094854088449   -4.63951e-08   4.06244e-08 DIIS
   @DF-RHF iter  13: -4073.08094855517538   -1.42909e-08   1.64261e-08 DIIS
   @DF-RHF iter  14: -4073.08094855744093   -2.26555e-09   9.08582e-09 DIIS
  Energy and wave function converged.


  ==> Post-Iterations <==

    Orbital Energies [Eh]
    ---------------------

    Doubly Occupied:                                                      

       1A    -26.115692     2A    -26.115436     3A    -26.098768  
       4A    -26.098720     5A    -11.194919     6A    -11.194910  
       7A    -11.194902     8A    -11.194890     9A    -11.194744  
      10A    -11.194740    11A    -11.194739    12A    -11.194732  
      13A    -11.194700    14A    -11.194693    15A    -11.194686  
      16A    -11.194681    17A    -11.193782    18A    -11.193778  
      19A    -11.193770    20A    -11.193764    21A    -11.193645  
      22A    -11.193627    23A    -11.192069    24A    -11.192059  
      25A    -11.191939    26A    -11.191938    27A    -11.191934  
      28A    -11.191931    29A    -11.190621    30A    -11.190611  
      31A    -11.190485    32A    -11.190483    33A    -11.190482  
      34A    -11.190475    35A    -11.190287    36A    -11.190267  
      37A    -11.190102    38A    -11.190082    39A    -11.189986  
      40A    -11.189945    41A    -11.189935    42A    -11.189874  
      43A    -11.189778    44A    -11.189728    45A    -11.189653  
      46A    -11.189620    47A    -11.189262    48A    -11.189234  
      49A    -11.189111    50A    -11.189090    51A    -11.188775  
      52A    -11.188738    53A    -11.188516    54A    -11.188492  
      55A    -11.188250    56A    -11.188212    57A    -11.188167  
      58A    -11.188127    59A    -11.187974    60A    -11.187954  
      61A    -11.187892    62A    -11.187873    63A    -11.187822  
      64A    -11.187806    65A    -11.186851    66A    -11.186822  
      67A    -11.186747    68A    -11.186716    69A    -11.186580  
      70A    -11.186558    71A    -11.186534    72A    -11.186490  
      73A    -11.185949    74A    -11.185930    75A    -11.185918  
      76A    -11.185888    77A    -11.185210    78A    -11.185195  
      79A    -11.184169    80A    -11.184150    81A    -11.184068  
      82A    -11.184054    83A    -11.184000    84A    -11.183967  
      85A    -11.182764    86A    -11.182731    87A    -11.182724  
      88A    -11.182707    89A    -11.180659    90A    -11.180637  
      91A    -11.180495    92A    -11.180463    93A    -11.178589  
      94A    -11.178422    95A    -11.176846    96A    -11.176763  
      97A    -11.175401    98A    -11.175185    99A    -11.174279  
     100A    -11.174147   101A     -7.579878   102A     -1.457578  
     103A     -1.408048   104A     -1.393446   105A     -1.382711  
     106A     -1.176053   107A     -1.165685   108A     -1.165271  
     109A     -1.149356   110A     -1.149204   111A     -1.138414  
     112A     -1.131732   113A     -1.125301   114A     -1.113414  
     115A     -1.112743   116A     -1.104925   117A     -1.104814  
     118A     -1.082245   119A     -1.082048   120A     -1.077917  
     121A     -1.076264   122A     -1.076256   123A     -1.057263  
     124A     -1.044447   125A     -1.043796   126A     -1.041796  
     127A     -1.038667   128A     -1.038329   129A     -1.017484  
     130A     -1.017247   131A     -1.008647   132A     -1.008588  
     133A     -0.995421   134A     -0.995318   135A     -0.991189  
     136A     -0.976725   137A     -0.976693   138A     -0.970359  
     139A     -0.970334   140A     -0.969866   141A     -0.952445  
     142A     -0.945325   143A     -0.945192   144A     -0.937799  
     145A     -0.935606   146A     -0.932587   147A     -0.928271  
     148A     -0.928127   149A     -0.923429   150A     -0.899222  
     151A     -0.899209   152A     -0.886449   153A     -0.886344  
     154A     -0.838494   155A     -0.838452   156A     -0.831912  
     157A     -0.831864   158A     -0.828848   159A     -0.817919  
     160A     -0.817886   161A     -0.817559   162A     -0.816387  
     163A     -0.816310   164A     -0.803739   165A     -0.803419  
     166A     -0.783311   167A     -0.775692   168A     -0.775574  
     169A     -0.771995   170A     -0.771539   171A     -0.764755  
     172A     -0.764638   173A     -0.760509   174A     -0.760505  
     175A     -0.717510   176A     -0.717478   177A     -0.711458  
     178A     -0.711409   179A     -0.709837   180A     -0.709759  
     181A     -0.709393   182A     -0.697297   183A     -0.687672  
     184A     -0.678032   185A     -0.666124   186A     -0.657187  
     187A     -0.657105   188A     -0.654664   189A     -0.654623  
     190A     -0.654298   191A     -0.650674   192A     -0.644606  
     193A     -0.641812   194A     -0.641477   195A     -0.630420  
     196A     -0.630407   197A     -0.617666   198A     -0.617560  
     199A     -0.613122   200A     -0.612913   201A     -0.612854  
     202A     -0.608645   203A     -0.586228   204A     -0.584595  
     205A     -0.581572   206A     -0.581400   207A     -0.581381  
     208A     -0.577683   209A     -0.577526   210A     -0.571800  
     211A     -0.571274   212A     -0.570893   213A     -0.570182  
     214A     -0.568933   215A     -0.568256   216A     -0.565016  
     217A     -0.564805   218A     -0.559068   219A     -0.547143  
     220A     -0.547058   221A     -0.542425   222A     -0.540396  
     223A     -0.540374   224A     -0.528253   225A     -0.527709  
     226A     -0.527509   227A     -0.527301   228A     -0.526929  
     229A     -0.526856   230A     -0.525823   231A     -0.525634  
     232A     -0.524543   233A     -0.520288   234A     -0.520147  
     235A     -0.518006   236A     -0.513779   237A     -0.513278  
     238A     -0.511657   239A     -0.511575   240A     -0.505149  
     241A     -0.504954   242A     -0.504717   243A     -0.498335  
     244A     -0.498258   245A     -0.494557   246A     -0.494480  
     247A     -0.494002   248A     -0.492572   249A     -0.491420  
     250A     -0.487382   251A     -0.487074   252A     -0.483393  
     253A     -0.481991   254A     -0.481966   255A     -0.476647  
     256A     -0.474615   257A     -0.464815   258A     -0.464765  
     259A     -0.464428   260A     -0.461143   261A     -0.459422  
     262A     -0.459121   263A     -0.454564   264A     -0.453124  
     265A     -0.449719   266A     -0.447354   267A     -0.447171  
     268A     -0.447089   269A     -0.446048   270A     -0.445571  
     271A     -0.441603   272A     -0.441444   273A     -0.433993  
     274A     -0.428139   275A     -0.427649   276A     -0.425486  
     277A     -0.425157   278A     -0.420055   279A     -0.419845  
     280A     -0.418701   281A     -0.413305   282A     -0.409789  
     283A     -0.409513   284A     -0.404645   285A     -0.399444  
     286A     -0.397133   287A     -0.395551   288A     -0.395373  
     289A     -0.387958   290A     -0.371340   291A     -0.371127  
     292A     -0.368315   293A     -0.368014   294A     -0.364754  
     295A     -0.364711   296A     -0.358762   297A     -0.336527  
     298A     -0.336036   299A     -0.318658   300A     -0.317949  
     301A     -0.313374   302A     -0.313301   303A     -0.304758  
     304A     -0.284259   305A     -0.283743   306A     -0.280153  
     307A     -0.265917   308A     -0.265839   309A     -0.261026  
     310A     -0.255675   311A     -0.248148   312A     -0.234628  
     313A     -0.230651   314A     -0.228095   315A     -0.227222  
     316A     -0.216557   317A     -0.191250   318A     -0.179606  
     319A     -0.174863   320A     -0.134191   321A     -0.133765  

    Virtual:                                                              

     322A      0.058175   323A      0.058765   324A      0.095190  
     325A      0.095267   326A      0.095817   327A      0.097662  
     328A      0.097884   329A      0.102921   330A      0.103905  
     331A      0.105417   332A      0.107544   333A      0.108344  
     334A      0.110926   335A      0.110956   336A      0.122260  
     337A      0.122279   338A      0.131216   339A      0.132315  
     340A      0.136195   341A      0.138099   342A      0.138297  
     343A      0.139253   344A      0.140278   345A      0.141813  
     346A      0.141938   347A      0.142278   348A      0.142396  
     349A      0.143728   350A      0.143865   351A      0.143996  
     352A      0.149668   353A      0.149921   354A      0.150138  
     355A      0.150328   356A      0.150384   357A      0.151394  
     358A      0.158366   359A      0.159918   360A      0.162647  
     361A      0.162995   362A      0.163199   363A      0.164245  
     364A      0.165076   365A      0.165746   366A      0.170731  
     367A      0.172171   368A      0.172373   369A      0.172470  
     370A      0.174480   371A      0.175815   372A      0.176122  
     373A      0.176308   374A      0.176704   375A      0.177263  
     376A      0.178485   377A      0.179493   378A      0.180420  
     379A      0.180464   380A      0.188592   381A      0.188638  
     382A      0.190573   383A      0.196187   384A      0.196980  
     385A      0.197082   386A      0.199020   387A      0.199040  
     388A      0.204029   389A      0.204358   390A      0.205483  
     391A      0.205521   392A      0.205889   393A      0.214144  
     394A      0.215416   395A      0.215655   396A      0.215938  
     397A      0.216658   398A      0.218595   399A      0.220378  
     400A      0.221969   401A      0.222492   402A      0.223826  
     403A      0.224045   404A      0.224072   405A      0.224663  
     406A      0.226543   407A      0.226779   408A      0.228218  
     409A      0.228501   410A      0.229203   411A      0.230789  
     412A      0.233895   413A      0.235276   414A      0.240112  
     415A      0.240206   416A      0.242022   417A      0.243054  
     418A      0.243641   419A      0.243757   420A      0.244165  
     421A      0.244432   422A      0.250848   423A      0.252320  
     424A      0.252666   425A      0.253188   426A      0.253997  
     427A      0.257533   428A      0.258210   429A      0.258618  
     430A      0.261126   431A      0.261280   432A      0.261847  
     433A      0.262806   434A      0.263565   435A      0.264197  
     436A      0.269909   437A      0.270073   438A      0.272628  
     439A      0.272814   440A      0.272914   441A      0.273702  
     442A      0.273882   443A      0.274168   444A      0.274369  
     445A      0.274893   446A      0.275919   447A      0.276241  
     448A      0.276467   449A      0.277004   450A      0.278534  
     451A      0.278785   452A      0.280251   453A      0.280400  
     454A      0.284854   455A      0.285503   456A      0.290581  
     457A      0.291260   458A      0.292039   459A      0.292439  
     460A      0.292674   461A      0.292730   462A      0.293797  
     463A      0.294116   464A      0.295183   465A      0.296298  
     466A      0.296688   467A      0.299024   468A      0.300079  
     469A      0.303484   470A      0.304896   471A      0.306110  
     472A      0.308223   473A      0.309347   474A      0.310593  
     475A      0.314249   476A      0.315462   477A      0.316303  
     478A      0.316411   479A      0.319480   480A      0.319709  
     481A      0.321078   482A      0.321273   483A      0.322255  
     484A      0.322346   485A      0.324245   486A      0.325761  
     487A      0.327970   488A      0.328224   489A      0.329012  
     490A      0.330712   491A      0.330879   492A      0.333398  
     493A      0.338935   494A      0.338994   495A      0.339433  
     496A      0.341665   497A      0.342080   498A      0.342960  
     499A      0.343483   500A      0.343494   501A      0.344109  
     502A      0.345065   503A      0.345595   504A      0.347072  
     505A      0.348297   506A      0.349816   507A      0.350609  
     508A      0.351328   509A      0.353426   510A      0.354710  
     511A      0.358954   512A      0.359742   513A      0.360569  
     514A      0.360709   515A      0.363306   516A      0.366111  
     517A      0.366560   518A      0.366756   519A      0.367428  
     520A      0.368661   521A      0.368755   522A      0.369905  
     523A      0.370433   524A      0.371442   525A      0.372769  
     526A      0.373499   527A      0.373920   528A      0.375372  
     529A      0.375410   530A      0.375491   531A      0.378202  
     532A      0.379171   533A      0.379247   534A      0.380735  
     535A      0.381908   536A      0.382911   537A      0.385378  
     538A      0.386499   539A      0.386946   540A      0.388618  
     541A      0.389601   542A      0.389815   543A      0.390595  
     544A      0.391375   545A      0.392175   546A      0.393377  
     547A      0.394655   548A      0.396562   549A      0.396773  
     550A      0.396994   551A      0.397468   552A      0.398813  
     553A      0.399715   554A      0.401874   555A      0.403075  
     556A      0.403128   557A      0.404258   558A      0.407229  
     559A      0.407674   560A      0.408110   561A      0.409049  
     562A      0.409371   563A      0.416001   564A      0.416446  
     565A      0.417420   566A      0.418518   567A      0.420618  
     568A      0.423146   569A      0.423980   570A      0.424453  
     571A      0.425866   572A      0.426521   573A      0.427019  
     574A      0.429564   575A      0.431598   576A      0.431988  
     577A      0.434506   578A      0.435703   579A      0.437985  
     580A      0.438269   581A      0.438802   582A      0.439501  
     583A      0.440063   584A      0.440966   585A      0.444243  
     586A      0.445124   587A      0.445644   588A      0.446889  
     589A      0.447533   590A      0.450119   591A      0.450715  
     592A      0.454939   593A      0.456396   594A      0.457075  
     595A      0.457684   596A      0.458411   597A      0.458763  
     598A      0.459253   599A      0.459809   600A      0.460326  
     601A      0.460711   602A      0.461239   603A      0.463298  
     604A      0.463397   605A      0.464936   606A      0.465150  
     607A      0.465838   608A      0.466524   609A      0.467023  
     610A      0.467104   611A      0.471194   612A      0.471742  
     613A      0.471872   614A      0.472796   615A      0.472941  
     616A      0.473378   617A      0.474288   618A      0.474731  
     619A      0.475417   620A      0.476158   621A      0.477111  
     622A      0.477338   623A      0.477486   624A      0.477745  
     625A      0.478223   626A      0.478457   627A      0.482580  
     628A      0.482703   629A      0.483226   630A      0.485042  
     631A      0.485851   632A      0.486221   633A      0.486404  
     634A      0.488738   635A      0.490015   636A      0.490358  
     637A      0.491626   638A      0.492784   639A      0.494034  
     640A      0.498235   641A      0.498328   642A      0.499028  
     643A      0.500199   644A      0.501172   645A      0.501606  
     646A      0.502223   647A      0.502653   648A      0.504164  
     649A      0.504553   650A      0.505293   651A      0.505419  
     652A      0.505676   653A      0.506068   654A      0.506895  
     655A      0.507268   656A      0.510348   657A      0.511982  
     658A      0.513921   659A      0.516583   660A      0.517212  
     661A      0.517490   662A      0.518818   663A      0.519382  
     664A      0.519567   665A      0.519778   666A      0.520358  
     667A      0.521783   668A      0.522450   669A      0.522803  
     670A      0.524083   671A      0.525865   672A      0.525909  
     673A      0.527438   674A      0.528806   675A      0.530292  
     676A      0.531811   677A      0.532025   678A      0.534485  
     679A      0.536887   680A      0.537674   681A      0.539156  
     682A      0.539739   683A      0.540624   684A      0.541032  
     685A      0.543232   686A      0.543874   687A      0.544344  
     688A      0.545393   689A      0.546282   690A      0.546646  
     691A      0.548235   692A      0.549020   693A      0.550271  
     694A      0.550649   695A      0.551147   696A      0.552167  
     697A      0.552459   698A      0.552858   699A      0.555072  
     700A      0.557359   701A      0.558128   702A      0.558346  
     703A      0.558703   704A      0.561631   705A      0.563207  
     706A      0.563759   707A      0.564019   708A      0.565376  
     709A      0.566516   710A      0.567405   711A      0.567910  
     712A      0.567954   713A      0.568945   714A      0.570108  
     715A      0.572257   716A      0.572923   717A      0.574633  
     718A      0.577138   719A      0.577972   720A      0.579195  
     721A      0.580466   722A      0.582569   723A      0.584410  
     724A      0.584591   725A      0.584669   726A      0.586070  
     727A      0.586823   728A      0.587361   729A      0.590969  
     730A      0.591990   731A      0.592799   732A      0.594354  
     733A      0.595481   734A      0.597270   735A      0.600515  
     736A      0.601389   737A      0.602545   738A      0.603270  
     739A      0.608688   740A      0.609600   741A      0.611404  
     742A      0.612742   743A      0.614908   744A      0.616110  
     745A      0.619313   746A      0.622197   747A      0.623537  
     748A      0.624991   749A      0.627500   750A      0.627739  
     751A      0.628809   752A      0.629311   753A      0.631085  
     754A      0.631335   755A      0.632608   756A      0.637091  
     757A      0.638315   758A      0.639476   759A      0.639883  
     760A      0.641537   761A      0.641990   762A      0.642389  
     763A      0.645280   764A      0.647308   765A      0.648764  
     766A      0.649799   767A      0.651130   768A      0.652557  
     769A      0.653347   770A      0.654301   771A      0.654963  
     772A      0.658509   773A      0.663043   774A      0.665496  
     775A      0.668738   776A      0.669273   777A      0.671272  
     778A      0.672373   779A      0.673345   780A      0.673962  
     781A      0.675168   782A      0.677278   783A      0.677523  
     784A      0.680467   785A      0.682952   786A      0.685751  
     787A      0.685884   788A      0.686280   789A      0.687681  
     790A      0.688328   791A      0.691779   792A      0.698977  
     793A      0.701901   794A      0.703289   795A      0.705890  
     796A      0.708622   797A      0.710314   798A      0.714028  
     799A      0.714910   800A      0.715285   801A      0.717543  
     802A      0.722065   803A      0.724528   804A      0.725912  
     805A      0.727863   806A      0.728137   807A      0.730836  
     808A      0.733380   809A      0.734074   810A      0.735841  
     811A      0.736837   812A      0.743951   813A      0.744298  
     814A      0.747301   815A      0.748841   816A      0.749935  
     817A      0.754264   818A      0.755392   819A      0.758963  
     820A      0.759223   821A      0.759676   822A      0.762056  
     823A      0.762499   824A      0.765523   825A      0.767198  
     826A      0.767854   827A      0.768114   828A      0.772285  
     829A      0.776384   830A      0.778143   831A      0.781644  
     832A      0.786935   833A      0.797525   834A      0.800238  
     835A      0.801798   836A      0.803422   837A      0.807245  
     838A      0.809629   839A      0.811203   840A      0.814025  
     841A      0.814946   842A      0.817339   843A      0.819651  
     844A      0.822887   845A      0.824617   846A      0.826334  
     847A      0.831481   848A      0.841531   849A      0.844891  
     850A      0.846309   851A      0.852881   852A      0.856521  
     853A      0.857321   854A      0.858902   855A      0.865360  
     856A      0.866216   857A      0.867744   858A      0.868262  
     859A      0.869523   860A      0.870735   861A      0.871854  
     862A      0.872705   863A      0.877610   864A      0.881346  
     865A      0.882025   866A      0.882649   867A      0.882994  
     868A      0.883866   869A      0.885425   870A      0.889697  
     871A      0.893786   872A      0.895170   873A      0.896292  
     874A      0.900161   875A      0.902430   876A      0.903403  
     877A      0.903876   878A      0.906947   879A      0.910871  
     880A      0.912783   881A      0.913384   882A      0.914610  
     883A      0.918014   884A      0.919055   885A      0.922234  
     886A      0.923211   887A      0.925995   888A      0.928086  
     889A      0.930352   890A      0.930708   891A      0.932405  
     892A      0.933147   893A      0.933232   894A      0.934789  
     895A      0.937243   896A      0.939110   897A      0.940753  
     898A      0.941508   899A      0.943745   900A      0.945572  
     901A      0.946594   902A      0.946849   903A      0.947539  
     904A      0.949975   905A      0.952962   906A      0.954991  
     907A      0.955250   908A      0.956896   909A      0.962706  
     910A      0.963444   911A      0.963702   912A      0.965060  
     913A      0.965561   914A      0.967563   915A      0.972365  
     916A      0.973381   917A      0.975322   918A      0.977914  
     919A      0.980096   920A      0.981003   921A      0.982940  
     922A      0.983736   923A      0.985075   924A      0.986238  
     925A      0.987279   926A      0.989649   927A      0.990594  
     928A      0.990993   929A      0.995946   930A      0.996504  
     931A      0.998599   932A      1.000469   933A      1.001633  
     934A      1.002496   935A      1.004366   936A      1.005050  
     937A      1.006733   938A      1.007786   939A      1.010920  
     940A      1.011221   941A      1.012552   942A      1.013670  
     943A      1.017693   944A      1.018557   945A      1.019320  
     946A      1.019884   947A      1.020231   948A      1.021233  
     949A      1.022579   950A      1.023318   951A      1.023914  
     952A      1.026454   953A      1.028166   954A      1.028730  
     955A      1.030809   956A      1.032707   957A      1.033640  
     958A      1.041716   959A      1.042974   960A      1.047702  
     961A      1.050691   962A      1.052091   963A      1.056188  
     964A      1.058128   965A      1.059751   966A      1.061956  
     967A      1.065066   968A      1.067381   969A      1.068626  
     970A      1.070007   971A      1.072022   972A      1.072801  
     973A      1.073460   974A      1.073931   975A      1.075164  
     976A      1.077300   977A      1.078885   978A      1.082100  
     979A      1.082922   980A      1.083770   981A      1.088636  
     982A      1.089344   983A      1.091253   984A      1.093684  
     985A      1.094003   986A      1.095337   987A      1.095773  
     988A      1.099049   989A      1.104044   990A      1.106013  
     991A      1.113081   992A      1.114161   993A      1.114718  
     994A      1.115785   995A      1.116500   996A      1.116672  
     997A      1.117307   998A      1.118483   999A      1.119645  
    1000A      1.120663  1001A      1.121717  1002A      1.122904  
    1003A      1.125339  1004A      1.126382  1005A      1.129020  
    1006A      1.130443  1007A      1.131058  1008A      1.131494  
    1009A      1.132504  1010A      1.133257  1011A      1.135209  
    1012A      1.135510  1013A      1.139071  1014A      1.139398  
    1015A      1.139566  1016A      1.140926  1017A      1.141242  
    1018A      1.141928  1019A      1.142130  1020A      1.143271  
    1021A      1.145393  1022A      1.145718  1023A      1.147594  
    1024A      1.147882  1025A      1.148819  1026A      1.149896  
    1027A      1.150238  1028A      1.151066  1029A      1.151764  
    1030A      1.151917  1031A      1.152538  1032A      1.153477  
    1033A      1.153596  1034A      1.154319  1035A      1.155100  
    1036A      1.156764  1037A      1.158273  1038A      1.158775  
    1039A      1.160517  1040A      1.162471  1041A      1.163936  
    1042A      1.167028  1043A      1.168610  1044A      1.169950  
    1045A      1.171376  1046A      1.173246  1047A      1.174557  
    1048A      1.175374  1049A      1.175880  1050A      1.176247  
    1051A      1.179236  1052A      1.181932  1053A      1.182987  
    1054A      1.185406  1055A      1.186015  1056A      1.186816  
    1057A      1.188741  1058A      1.189514  1059A      1.191994  
    1060A      1.194646  1061A      1.195614  1062A      1.195801  
    1063A      1.197110  1064A      1.202166  1065A      1.202505  
    1066A      1.205217  1067A      1.207131  1068A      1.208514  
    1069A      1.209486  1070A      1.211220  1071A      1.212602  
    1072A      1.215398  1073A      1.217270  1074A      1.220108  
    1075A      1.221668  1076A      1.222278  1077A      1.223932  
    1078A      1.225541  1079A      1.226164  1080A      1.227718  
    1081A      1.230058  1082A      1.231105  1083A      1.232359  
    1084A      1.235673  1085A      1.238237  1086A      1.239299  
    1087A      1.240582  1088A      1.241666  1089A      1.242848  
    1090A      1.244465  1091A      1.245101  1092A      1.250946  
    1093A      1.252469  1094A      1.253740  1095A      1.257440  
    1096A      1.258095  1097A      1.259002  1098A      1.260033  
    1099A      1.262247  1100A      1.263442  1101A      1.267556  
    1102A      1.270471  1103A      1.274632  1104A      1.275142  
    1105A      1.276488  1106A      1.277023  1107A      1.278636  
    1108A      1.280227  1109A      1.280570  1110A      1.282780  
    1111A      1.283628  1112A      1.285609  1113A      1.286418  
    1114A      1.287637  1115A      1.289157  1116A      1.290832  
    1117A      1.293699  1118A      1.295170  1119A      1.297548  
    1120A      1.304142  1121A      1.304685  1122A      1.315127  
    1123A      1.318417  1124A      1.321133  1125A      1.321686  
    1126A      1.323766  1127A      1.324086  1128A      1.326504  
    1129A      1.327624  1130A      1.328502  1131A      1.331951  
    1132A      1.335303  1133A      1.335961  1134A      1.336972  
    1135A      1.338750  1136A      1.339874  1137A      1.347963  
    1138A      1.348852  1139A      1.352265  1140A      1.354033  
    1141A      1.356293  1142A      1.359920  1143A      1.361509  
    1144A      1.362524  1145A      1.363668  1146A      1.365746  
    1147A      1.367496  1148A      1.370500  1149A      1.372167  
    1150A      1.373385  1151A      1.374831  1152A      1.380976  
    1153A      1.381820  1154A      1.382989  1155A      1.383755  
    1156A      1.385776  1157A      1.387084  1158A      1.387539  
    1159A      1.388023  1160A      1.390145  1161A      1.391929  
    1162A      1.393778  1163A      1.397043  1164A      1.397128  
    1165A      1.399204  1166A      1.401180  1167A      1.402344  
    1168A      1.404135  1169A      1.407453  1170A      1.409619  
    1171A      1.411024  1172A      1.411206  1173A      1.414857  
    1174A      1.426210  1175A      1.426381  1176A      1.427254  
    1177A      1.429615  1178A      1.430619  1179A      1.431203  
    1180A      1.431491  1181A      1.432144  1182A      1.434127  
    1183A      1.442243  1184A      1.443535  1185A      1.443967  
    1186A      1.444845  1187A      1.448014  1188A      1.453913  
    1189A      1.454736  1190A      1.455607  1191A      1.456665  
    1192A      1.459455  1193A      1.459890  1194A      1.461354  
    1195A      1.466101  1196A      1.473333  1197A      1.474790  
    1198A      1.475926  1199A      1.476319  1200A      1.477914  
    1201A      1.478291  1202A      1.479329  1203A      1.480332  
    1204A      1.480773  1205A      1.486780  1206A      1.488207  
    1207A      1.490789  1208A      1.491451  1209A      1.492098  
    1210A      1.497922  1211A      1.500241  1212A      1.501289  
    1213A      1.502747  1214A      1.503759  1215A      1.504585  
    1216A      1.507683  1217A      1.511672  1218A      1.512519  
    1219A      1.513089  1220A      1.513319  1221A      1.514951  
    1222A      1.520589  1223A      1.522299  1224A      1.523722  
    1225A      1.524919  1226A      1.527578  1227A      1.529323  
    1228A      1.532245  1229A      1.535440  1230A      1.537693  
    1231A      1.539742  1232A      1.542063  1233A      1.545869  
    1234A      1.548105  1235A      1.553354  1236A      1.553598  
    1237A      1.554721  1238A      1.556257  1239A      1.558653  
    1240A      1.563413  1241A      1.567141  1242A      1.569197  
    1243A      1.572075  1244A      1.572886  1245A      1.577893  
    1246A      1.582785  1247A      1.588569  1248A      1.589744  
    1249A      1.592165  1250A      1.606835  1251A      1.607592  
    1252A      1.610933  1253A      1.620304  1254A      1.620735  
    1255A      1.626395  1256A      1.649927  1257A      1.653418  
    1258A      1.658502  1259A      1.663712  1260A      1.673703  
    1261A      1.676043  1262A      1.677472  1263A      1.678736  
    1264A      1.680194  1265A      1.681707  1266A      1.683742  
    1267A      1.684223  1268A      1.686603  1269A      1.687882  
    1270A      1.688650  1271A      1.688789  1272A      1.689970  
    1273A      1.691169  1274A      1.692753  1275A      1.693601  
    1276A      1.694343  1277A      1.697520  1278A      1.698317  
    1279A      1.699742  1280A      1.702603  1281A      1.703441  
    1282A      1.704532  1283A      1.705249  1284A      1.706908  
    1285A      1.708675  1286A      1.709870  1287A      1.711277  
    1288A      1.711998  1289A      1.712917  1290A      1.714720  
    1291A      1.717729  1292A      1.718045  1293A      1.719546  
    1294A      1.721537  1295A      1.721781  1296A      1.723220  
    1297A      1.725927  1298A      1.726940  1299A      1.728621  
    1300A      1.728897  1301A      1.731739  1302A      1.732622  
    1303A      1.734330  1304A      1.740021  1305A      1.740296  
    1306A      1.740909  1307A      1.741960  1308A      1.743421  
    1309A      1.745504  1310A      1.747272  1311A      1.750274  
    1312A      1.750865  1313A      1.752182  1314A      1.757463  
    1315A      1.760468  1316A      1.761442  1317A      1.763411  
    1318A      1.764280  1319A      1.768392  1320A      1.770505  
    1321A      1.772282  1322A      1.773244  1323A      1.781939  
    1324A      1.782370  1325A      1.784076  1326A      1.784565  
    1327A      1.785591  1328A      1.786188  1329A      1.793031  
    1330A      1.794403  1331A      1.794729  1332A      1.797347  
    1333A      1.797912  1334A      1.798157  1335A      1.799535  
    1336A      1.804528  1337A      1.811537  1338A      1.819370  
    1339A      1.820412  1340A      1.821713  1341A      1.823095  
    1342A      1.835507  1343A      1.836908  1344A      1.840525  
    1345A      1.847168  1346A      1.849186  1347A      1.850504  
    1348A      1.853623  1349A      1.857401  1350A      1.877917  
    1351A      1.878583  1352A      1.885827  1353A      1.891666  
    1354A      1.894458  1355A      1.895905  1356A      1.896111  
    1357A      1.898349  1358A      1.900228  1359A      1.900851  
    1360A      1.902199  1361A      1.903091  1362A      1.903765  
    1363A      1.912642  1364A      1.915596  1365A      1.917573  
    1366A      1.920011  1367A      1.920941  1368A      1.921912  
    1369A      1.922361  1370A      1.929686  1371A      1.931637  
    1372A      1.932138  1373A      1.935055  1374A      1.935345  
    1375A      1.936836  1376A      1.938963  1377A      1.940563  
    1378A      1.941988  1379A      1.942263  1380A      1.942600  
    1381A      1.943221  1382A      1.948100  1383A      1.948918  
    1384A      1.950167  1385A      1.953288  1386A      1.954600  
    1387A      1.955280  1388A      1.958825  1389A      1.960895  
    1390A      1.961560  1391A      1.962211  1392A      1.964644  
    1393A      1.971128  1394A      1.972505  1395A      1.974924  
    1396A      1.975978  1397A      1.977843  1398A      1.985209  
    1399A      1.989280  1400A      1.990734  1401A      1.992862  
    1402A      1.995283  1403A      1.995833  1404A      1.999033  
    1405A      2.000105  1406A      2.000921  1407A      2.002726  
    1408A      2.003194  1409A      2.008433  1410A      2.009820  
    1411A      2.011705  1412A      2.013005  1413A      2.014197  
    1414A      2.014355  1415A      2.016275  1416A      2.018460  
    1417A      2.020223  1418A      2.024068  1419A      2.026556  
    1420A      2.027316  1421A      2.029436  1422A      2.031493  
    1423A      2.032633  1424A      2.035282  1425A      2.037109  
    1426A      2.037987  1427A      2.039855  1428A      2.040995  
    1429A      2.043351  1430A      2.046167  1431A      2.048707  
    1432A      2.053411  1433A      2.054063  1434A      2.057805  
    1435A      2.059346  1436A      2.059567  1437A      2.063076  
    1438A      2.064800  1439A      2.066602  1440A      2.068126  
    1441A      2.070669  1442A      2.072490  1443A      2.074913  
    1444A      2.077781  1445A      2.083118  1446A      2.084672  
    1447A      2.086111  1448A      2.087633  1449A      2.089956  
    1450A      2.091027  1451A      2.092012  1452A      2.092218  
    1453A      2.092520  1454A      2.093416  1455A      2.095575  
    1456A      2.098844  1457A      2.101416  1458A      2.102307  
    1459A      2.104044  1460A      2.105434  1461A      2.106229  
    1462A      2.106776  1463A      2.107764  1464A      2.108242  
    1465A      2.113695  1466A      2.119665  1467A      2.121017  
    1468A      2.122547  1469A      2.126803  1470A      2.129170  
    1471A      2.129400  1472A      2.131459  1473A      2.135711  
    1474A      2.136095  1475A      2.137362  1476A      2.137879  
    1477A      2.140104  1478A      2.141451  1479A      2.145107  
    1480A      2.148084  1481A      2.149421  1482A      2.151106  
    1483A      2.152129  1484A      2.153217  1485A      2.154712  
    1486A      2.155225  1487A      2.155882  1488A      2.156323  
    1489A      2.157439  1490A      2.157985  1491A      2.158902  
    1492A      2.159201  1493A      2.159798  1494A      2.160768  
    1495A      2.161849  1496A      2.163342  1497A      2.166544  
    1498A      2.169261  1499A      2.170589  1500A      2.171135  
    1501A      2.172608  1502A      2.175153  1503A      2.178716  
    1504A      2.181465  1505A      2.181854  1506A      2.183950  
    1507A      2.184607  1508A      2.186063  1509A      2.186491  
    1510A      2.186790  1511A      2.187490  1512A      2.189533  
    1513A      2.190828  1514A      2.192867  1515A      2.195026  
    1516A      2.195586  1517A      2.196273  1518A      2.198630  
    1519A      2.200094  1520A      2.200607  1521A      2.202025  
    1522A      2.204703  1523A      2.207442  1524A      2.209224  
    1525A      2.210108  1526A      2.212215  1527A      2.213568  
    1528A      2.215353  1529A      2.215822  1530A      2.217004  
    1531A      2.219368  1532A      2.221152  1533A      2.225368  
    1534A      2.227736  1535A      2.228538  1536A      2.229509  
    1537A      2.231347  1538A      2.231991  1539A      2.233717  
    1540A      2.235051  1541A      2.237876  1542A      2.238757  
    1543A      2.239616  1544A      2.244622  1545A      2.248572  
    1546A      2.251428  1547A      2.251546  1548A      2.252827  
    1549A      2.254107  1550A      2.259413  1551A      2.263329  
    1552A      2.264322  1553A      2.267076  1554A      2.267737  
    1555A      2.269495  1556A      2.269646  1557A      2.270908  
    1558A      2.271570  1559A      2.272191  1560A      2.273535  
    1561A      2.277807  1562A      2.278784  1563A      2.281355  
    1564A      2.281625  1565A      2.287305  1566A      2.289385  
    1567A      2.290412  1568A      2.292199  1569A      2.293384  
    1570A      2.294839  1571A      2.296144  1572A      2.297414  
    1573A      2.298032  1574A      2.299612  1575A      2.300441  
    1576A      2.301524  1577A      2.303371  1578A      2.304920  
    1579A      2.308034  1580A      2.310499  1581A      2.313591  
    1582A      2.314229  1583A      2.314844  1584A      2.317396  
    1585A      2.320193  1586A      2.325226  1587A      2.330489  
    1588A      2.334465  1589A      2.338072  1590A      2.338223  
    1591A      2.340802  1592A      2.343824  1593A      2.350096  
    1594A      2.351039  1595A      2.352312  1596A      2.353220  
    1597A      2.358272  1598A      2.361444  1599A      2.363833  
    1600A      2.364522  1601A      2.369873  1602A      2.372096  
    1603A      2.373868  1604A      2.375460  1605A      2.392995  
    1606A      2.394802  1607A      2.396122  1608A      2.398757  
    1609A      2.399212  1610A      2.399536  1611A      2.401557  
    1612A      2.406052  1613A      2.406978  1614A      2.407721  
    1615A      2.408020  1616A      2.410261  1617A      2.412453  
    1618A      2.413864  1619A      2.414207  1620A      2.415252  
    1621A      2.416163  1622A      2.417356  1623A      2.425233  
    1624A      2.427378  1625A      2.436990  1626A      2.440728  
    1627A      2.451252  1628A      2.454220  1629A      2.458181  
    1630A      2.462714  1631A      2.465027  1632A      2.466179  
    1633A      2.477263  1634A      2.481623  1635A      2.485074  
    1636A      2.488409  1637A      2.495058  1638A      2.497623  
    1639A      2.498769  1640A      2.507796  1641A      2.513741  
    1642A      2.517070  1643A      2.526040  1644A      2.529732  
    1645A      2.533384  1646A      2.535706  1647A      2.536489  
    1648A      2.538259  1649A      2.540791  1650A      2.541628  
    1651A      2.548209  1652A      2.559433  1653A      2.559677  
    1654A      2.568945  1655A      2.574201  1656A      2.575206  
    1657A      2.578245  1658A      2.586899  1659A      2.592406  
    1660A      2.598464  1661A      2.610294  1662A      2.611747  
    1663A      2.612722  1664A      2.613139  1665A      2.614932  
    1666A      2.615911  1667A      2.620138  1668A      2.624812  
    1669A      2.631355  1670A      2.632304  1671A      2.633437  
    1672A      2.634420  1673A      2.637886  1674A      2.640389  
    1675A      2.646446  1676A      2.648822  1677A      2.650351  
    1678A      2.652129  1679A      2.654414  1680A      2.654462  
    1681A      2.655629  1682A      2.658291  1683A      2.662232  
    1684A      2.671165  1685A      2.671736  1686A      2.675140  
    1687A      2.682507  1688A      2.682770  1689A      2.684387  
    1690A      2.685444  1691A      2.688459  1692A      2.692216  
    1693A      2.704203  1694A      2.711549  1695A      2.714909  
    1696A      2.716553  1697A      2.717649  1698A      2.718587  
    1699A      2.719791  1700A      2.722640  1701A      2.723981  
    1702A      2.725508  1703A      2.728721  1704A      2.736444  
    1705A      2.738350  1706A      2.740497  1707A      2.741565  
    1708A      2.742450  1709A      2.746150  1710A      2.748536  
    1711A      2.750222  1712A      2.758017  1713A      2.761196  
    1714A      2.761910  1715A      2.762291  1716A      2.762618  
    1717A      2.764773  1718A      2.766361  1719A      2.767761  
    1720A      2.775708  1721A      2.790069  1722A      2.790320  
    1723A      2.797111  1724A      2.798240  1725A      2.798469  
    1726A      2.801585  1727A      2.804009  1728A      2.825107  
    1729A      2.840871  1730A      2.846545  1731A      2.852750  
    1732A      2.855231  1733A      2.857693  1734A      2.865572  
    1735A      2.873090  1736A      2.873806  1737A      2.874864  
    1738A      2.875470  1739A      2.882480  1740A      2.887497  
    1741A      2.888671  1742A      2.890521  1743A      2.891761  
    1744A      2.894157  1745A      2.898366  1746A      2.905080  
    1747A      2.912568  1748A      2.914336  1749A      2.915207  
    1750A      2.916369  1751A      2.920210  1752A      2.930969  
    1753A      2.938096  1754A      2.938910  1755A      2.941110  
    1756A      2.942952  1757A      2.946256  1758A      2.967821  
    1759A      2.973805  1760A      2.974559  1761A      2.984433  
    1762A      2.984905  1763A      2.992476  1764A      2.995037  
    1765A      2.999026  1766A      3.003853  1767A      3.008681  
    1768A      3.030341  1769A      3.033429  1770A      3.033647  
    1771A      3.044144  1772A      3.060594  1773A      3.066661  
    1774A      3.085443  1775A      3.100001  1776A      3.102984  
    1777A      3.107679  1778A      3.110802  1779A      3.119869  
    1780A      3.121623  1781A      3.128029  1782A      3.129781  
    1783A      3.131121  1784A      3.131871  1785A      3.144179  
    1786A      3.176647  1787A      3.177767  1788A      3.181132  
    1789A      3.192712  1790A      3.198829  1791A      3.199037  
    1792A      3.208842  1793A      3.209264  1794A      3.210024  
    1795A      3.211140  1796A      3.219431  1797A      3.220247  
    1798A      3.220906  1799A      3.221599  1800A      3.223141  
    1801A      3.228058  1802A      3.239259  1803A      3.243151  
    1804A      3.245876  1805A      3.248427  1806A      3.259742  
    1807A      3.260622  1808A      3.286252  1809A      3.323826  
    1810A      3.327201  1811A      3.329679  1812A      3.330325  
    1813A      3.333199  1814A      3.334094  1815A      3.337714  
    1816A      3.343292  1817A      3.344245  1818A      3.344988  
    1819A      3.358361  1820A      3.361524  1821A      3.370073  
    1822A      3.382872  1823A      3.386996  1824A      3.394037  
    1825A      3.436245  1826A      3.436682  1827A      3.465898  
    1828A      3.484901  1829A      3.495658  1830A      3.524644  
    1831A      3.530871  1832A      3.536393  1833A      3.539890  
    1834A      3.543620  1835A      3.545809  1836A      3.554513  
    1837A      3.555276  1838A      3.559605  1839A      3.565718  
    1840A      3.585431  1841A      3.595452  1842A      3.600347  
    1843A      3.627732  1844A      3.648663  1845A      3.654462  
    1846A      3.658869  1847A      3.660612  1848A      3.690038  
    1849A      3.718919  1850A      3.739538  1851A      3.744948  
    1852A      3.760750  1853A      3.785740  1854A      3.825866  
    1855A      3.830533  1856A      3.834889  1857A      3.846344  
    1858A      3.847602  1859A      3.859142  1860A      3.915179  
    1861A      3.920906  1862A      3.943785  1863A      3.949976  
    1864A      3.990236  1865A      3.994308  1866A      4.015941  
    1867A      4.019986  1868A      4.020509  1869A      4.036665  
    1870A      4.040918  1871A      4.048395  1872A      4.075917  
    1873A      4.100167  1874A      4.103615  1875A      4.144778  
    1876A      4.161240  1877A      4.164619  1878A      4.180052  
    1879A      4.183162  1880A      4.184362  1881A      4.221236  
    1882A      4.232726  1883A      4.242633  1884A      4.257233  
    1885A      4.287962  1886A      4.311053  1887A      4.403063  
    1888A      4.419953  1889A      4.453768  1890A      4.476568  
    1891A      4.555224  1892A      4.579972  1893A      4.648697  
    1894A      4.656278  1895A      4.658828  1896A      4.723026  
    1897A      4.757662  1898A      4.765047  

    Final Occupation by Irrep:
              A 
    DOCC [   321 ]
    NA   [   321 ]
    NB   [   321 ]

  @DF-RHF Final Energy: -4073.08094855744093

   => Energetics <=

    Nuclear Repulsion Energy =          17836.2876408681950124
    One-Electron Energy =              -41162.8324181191055686
    Two-Electron Energy =               19253.4638286934714415
    Total Energy =                      -4073.0809485574391147

Computation Completed


Properties will be evaluated at   0.000000,   0.000000,   0.000000 [a0]

Properties computed using the SCF density matrix


 Multipole Moments:

 ------------------------------------------------------------------------------------
     Multipole            Electronic (a.u.)      Nuclear  (a.u.)        Total (a.u.)
 ------------------------------------------------------------------------------------

 L = 1.  Multiply by 2.5417464519 to convert [e a0] to [Debye]
 Dipole X            :          0.0016957           -0.0001188            0.0015769
 Dipole Y            :          0.0013817           -0.0002727            0.0011090
 Dipole Z            :         14.7572477          -18.4489268           -3.6916791
 Magnitude           :                                                    3.6916796

 ------------------------------------------------------------------------------------

*** tstop() called on n2cn1173 at Wed Feb  7 20:48:04 2024
Module time:
	user time   =   23754.09 seconds =     395.90 minutes
	system time =    1356.28 seconds =      22.60 minutes
	total time  =       3246 seconds =      54.10 minutes
Total time:
	user time   =   23754.09 seconds =     395.90 minutes
	system time =    1356.28 seconds =      22.60 minutes
	total time  =       3246 seconds =      54.10 minutes

  //>>>>>>>>>>>>>>>>>>>>>>>>>>>>>>>>>>>//
  //            Monomer A HF           //
  //<<<<<<<<<<<<<<<<<<<<<<<<<<<<<<<<<<<//

   => Libint2 <=

    Primary   basis highest AM E, G, H:  5, 4, 3
    Auxiliary basis highest AM E, G, H:  6, 5, 4
    Onebody   basis highest AM E, G, H:  6, 5, 4
    Solid Harmonics ordering:            gaussian

*** tstart() called on n2cn1173
*** at Wed Feb  7 20:48:04 2024

   => Loading Basis Set <=

    Name: JUN-CC-PVDZ
    Role: ORBITAL
    Keyword: BASIS
    atoms 1                                                   entry B          line   130 file /opt/software/pc2/EB-SW/software/PSI4/1.9-foss-2022a/share/psi4/basis/jun-cc-pvdz.gbs 
    atoms 2-5                                                 entry F          line   266 file /opt/software/pc2/EB-SW/software/PSI4/1.9-foss-2022a/share/psi4/basis/jun-cc-pvdz.gbs 
    atoms 6-23, 30-42, 45-59, 62-78, 81-93, 98-108, 111-119   entry C          line   164 file /opt/software/pc2/EB-SW/software/PSI4/1.9-foss-2022a/share/psi4/basis/jun-cc-pvdz.gbs 
    atoms 24-29, 43-44, 60-61, 79-80, 94-97, 109-110, 120-125 entry H          line    36 file /opt/software/pc2/EB-SW/software/PSI4/1.9-foss-2022a/share/psi4/basis/jun-cc-pvdz.gbs 


         ---------------------------------------------------------
                                   SCF
               by Justin Turney, Rob Parrish, Andy Simmonett
                          and Daniel G. A. Smith
                              RHF Reference
                       16 Threads,  76293 MiB Core
         ---------------------------------------------------------

  ==> Geometry <==

    Molecular point group: c1
    Full point group: C1

    Geometry (in Angstrom), charge = -1, multiplicity = 1:

       Center              X                  Y                   Z               Mass       
    ------------   -----------------  -----------------  -----------------  -----------------
         B           -0.000050191042     0.000351518223     2.886476785396    11.009305360000
         F           -1.153601191042     0.000062518223     3.702123785396    18.998403162730
         F            1.153656808958    -0.000566481777     3.702123785396    18.998403162730
         F           -0.000023191042    -1.153622481777     2.070842785396    18.998403162730
         F           -0.000023191042     1.153992518223     2.070842785396    18.998403162730
      Gh(C)          -3.668445455062     7.803766688305    -0.211617173269    12.000000000000
      Gh(C)          -4.847602910388     7.131256349563    -0.213983748201    12.000000000000
      Gh(C)          -4.894963490217     5.696344921754    -0.214556659299    12.000000000000
      Gh(C)          -3.653744869815     4.980744859182    -0.206896217570    12.000000000000
      Gh(C)          -2.409429312536     7.113995554897    -0.211422831009    12.000000000000
      Gh(C)          -2.425481535146     5.681136469126    -0.218427719879    12.000000000000
      Gh(C)          -1.194748207477     7.786158712532    -0.209950650467    12.000000000000
      Gh(C)           0.037954837895     7.099436163980    -0.212121354771    12.000000000000
      Gh(C)           0.030328396378     5.669504077927    -0.217604739687    12.000000000000
      Gh(C)          -1.200988698947     4.969284866138    -0.208635005754    12.000000000000
      Gh(C)           1.277953634773     7.772873961417    -0.210745506211    12.000000000000
      Gh(C)           2.485353893683     7.087711403460    -0.213019994116    12.000000000000
      Gh(C)           2.486124493876     5.654785328463    -0.219957743103    12.000000000000
      Gh(C)           1.254078728602     4.956092631887    -0.208329801515    12.000000000000
      Gh(C)           3.751710400364     7.763926669203    -0.212893142735    12.000000000000
      Gh(C)           4.923561865144     7.078795295213    -0.214949623443    12.000000000000
      Gh(C)           4.955603080284     5.643461981592    -0.215110036250    12.000000000000
      Gh(C)           3.706797343163     4.941224726556    -0.210018476080    12.000000000000
      Gh(H)          -3.658525328800     8.890841937358    -0.209932185018     1.007825032230
      Gh(H)          -1.189217520798     8.874135605583    -0.205978774025     1.007825032230
      Gh(H)           1.284290047845     8.860847953711    -0.206586682070     1.007825032230
      Gh(H)           3.753537895758     8.851049797195    -0.211370618420     1.007825032230
      Gh(H)           5.869954512165     7.613809352878    -0.215874990486     1.007825032230
      Gh(H)          -5.788235898544     7.676316731157    -0.215543595557     1.007825032230
      Gh(C)          -6.091978149738     4.993274531866    -0.216428899790    12.000000000000
[...]
    1513A      2.143521  1514A      2.144422  1515A      2.144772  
    1516A      2.146345  1517A      2.149388  1518A      2.155862  
    1519A      2.159008  1520A      2.159194  1521A      2.160911  
    1522A      2.161585  1523A      2.162397  1524A      2.163441  
    1525A      2.164201  1526A      2.164631  1527A      2.168659  
    1528A      2.170395  1529A      2.172649  1530A      2.175746  
    1531A      2.179156  1532A      2.181374  1533A      2.183048  
    1534A      2.183736  1535A      2.189510  1536A      2.192920  
    1537A      2.193852  1538A      2.195515  1539A      2.196580  
    1540A      2.197873  1541A      2.201451  1542A      2.202804  
    1543A      2.203235  1544A      2.204761  1545A      2.206294  
    1546A      2.206779  1547A      2.207602  1548A      2.211523  
    1549A      2.214290  1550A      2.215837  1551A      2.220214  
    1552A      2.220525  1553A      2.222794  1554A      2.223929  
    1555A      2.227244  1556A      2.227714  1557A      2.229001  
    1558A      2.230541  1559A      2.232113  1560A      2.232496  
    1561A      2.233427  1562A      2.235460  1563A      2.239033  
    1564A      2.242117  1565A      2.246185  1566A      2.247518  
    1567A      2.249214  1568A      2.250804  1569A      2.257322  
    1570A      2.260242  1571A      2.265366  1572A      2.270001  
    1573A      2.271063  1574A      2.271662  1575A      2.275322  
    1576A      2.276719  1577A      2.280422  1578A      2.284107  
    1579A      2.287767  1580A      2.293490  1581A      2.293535  
    1582A      2.297248  1583A      2.297589  1584A      2.299758  
    1585A      2.304821  1586A      2.307695  1587A      2.315191  
    1588A      2.323054  1589A      2.325590  1590A      2.327908  
    1591A      2.329497  1592A      2.330522  1593A      2.330791  
    1594A      2.332693  1595A      2.335499  1596A      2.335633  
    1597A      2.337106  1598A      2.339267  1599A      2.341443  
    1600A      2.342471  1601A      2.343179  1602A      2.344630  
    1603A      2.346471  1604A      2.346781  1605A      2.347758  
    1606A      2.350972  1607A      2.352647  1608A      2.373735  
    1609A      2.375121  1610A      2.384030  1611A      2.384409  
    1612A      2.389460  1613A      2.392934  1614A      2.402592  
    1615A      2.408226  1616A      2.417776  1617A      2.420167  
    1618A      2.422612  1619A      2.426272  1620A      2.428001  
    1621A      2.438839  1622A      2.443943  1623A      2.444291  
    1624A      2.453292  1625A      2.457100  1626A      2.465284  
    1627A      2.466409  1628A      2.468450  1629A      2.468698  
    1630A      2.472041  1631A      2.472420  1632A      2.481509  
    1633A      2.491822  1634A      2.492344  1635A      2.502727  
    1636A      2.506405  1637A      2.508374  1638A      2.512460  
    1639A      2.513162  1640A      2.517777  1641A      2.540368  
    1642A      2.541267  1643A      2.541439  1644A      2.543293  
    1645A      2.546725  1646A      2.548148  1647A      2.549363  
    1648A      2.552241  1649A      2.553283  1650A      2.556812  
    1651A      2.557096  1652A      2.562058  1653A      2.564328  
    1654A      2.571739  1655A      2.571863  1656A      2.582645  
    1657A      2.585699  1658A      2.585832  1659A      2.586790  
    1660A      2.588003  1661A      2.589699  1662A      2.593001  
    1663A      2.593299  1664A      2.594355  1665A      2.602860  
    1666A      2.604631  1667A      2.613431  1668A      2.614503  
    1669A      2.615061  1670A      2.615515  1671A      2.616487  
    1672A      2.620396  1673A      2.634407  1674A      2.641746  
    1675A      2.642745  1676A      2.646380  1677A      2.647606  
    1678A      2.649852  1679A      2.651075  1680A      2.651987  
    1681A      2.653882  1682A      2.656516  1683A      2.657875  
    1684A      2.666294  1685A      2.669397  1686A      2.670434  
    1687A      2.671713  1688A      2.671919  1689A      2.674342  
    1690A      2.680208  1691A      2.681853  1692A      2.687185  
    1693A      2.689717  1694A      2.691448  1695A      2.691747  
    1696A      2.692987  1697A      2.694220  1698A      2.695278  
    1699A      2.697479  1700A      2.703565  1701A      2.711539  
    1702A      2.724173  1703A      2.728640  1704A      2.730974  
    1705A      2.731235  1706A      2.731900  1707A      2.733124  
    1708A      2.754513  1709A      2.765652  1710A      2.773872  
    1711A      2.779996  1712A      2.781338  1713A      2.783786  
    1714A      2.790868  1715A      2.799947  1716A      2.800808  
    1717A      2.802377  1718A      2.802405  1719A      2.807028  
    1720A      2.813698  1721A      2.815158  1722A      2.815349  
    1723A      2.817252  1724A      2.818578  1725A      2.826036  
    1726A      2.831492  1727A      2.835679  1728A      2.841968  
    1729A      2.842955  1730A      2.845519  1731A      2.847267  
    1732A      2.848243  1733A      2.859311  1734A      2.865618  
    1735A      2.865834  1736A      2.871373  1737A      2.871623  
    1738A      2.876616  1739A      2.886968  1740A      2.896147  
    1741A      2.897111  1742A      2.918050  1743A      2.918256  
    1744A      2.926559  1745A      2.928509  1746A      2.931764  
    1747A      2.934517  1748A      2.935426  1749A      2.952895  
    1750A      2.964581  1751A      2.966570  1752A      2.966717  
    1753A      2.976377  1754A      2.992381  1755A      3.004937  
    1756A      3.008353  1757A      3.030345  1758A      3.034634  
    1759A      3.040704  1760A      3.045676  1761A      3.047465  
    1762A      3.053469  1763A      3.055130  1764A      3.058037  
    1765A      3.059325  1766A      3.068912  1767A      3.073716  
    1768A      3.109913  1769A      3.111982  1770A      3.114263  
    1771A      3.123903  1772A      3.129469  1773A      3.130259  
    1774A      3.140269  1775A      3.142336  1776A      3.143335  
    1777A      3.144359  1778A      3.150673  1779A      3.151584  
    1780A      3.154238  1781A      3.155220  1782A      3.156613  
    1783A      3.162253  1784A      3.169761  1785A      3.173297  
    1786A      3.178994  1787A      3.181838  1788A      3.193617  
    1789A      3.196121  1790A      3.222761  1791A      3.261848  
    1792A      3.262660  1793A      3.263854  1794A      3.264103  
    1795A      3.264651  1796A      3.266844  1797A      3.273750  
    1798A      3.276509  1799A      3.277259  1800A      3.278002  
    1801A      3.298284  1802A      3.302381  1803A      3.311124  
    1804A      3.314682  1805A      3.362717  1806A      3.363234  
    1807A      3.399615  1808A      3.419603  1809A      3.447834  
    1810A      3.455002  1811A      3.460535  1812A      3.464135  
    1813A      3.466952  1814A      3.469574  1815A      3.477408  
    1816A      3.479044  1817A      3.481340  1818A      3.486514  
    1819A      3.502903  1820A      3.512456  1821A      3.519983  
    1822A      3.550073  1823A      3.571835  1824A      3.580241  
    1825A      3.584624  1826A      3.591038  1827A      3.632463  
    1828A      3.644792  1829A      3.668588  1830A      3.673020  
    1831A      3.685661  1832A      3.711597  1833A      3.758281  
    1834A      3.761901  1835A      3.770259  1836A      3.776677  
    1837A      3.778916  1838A      3.836145  1839A      3.845902  
    1840A      3.852694  1841A      3.873355  1842A      3.881986  
    1843A      3.920909  1844A      3.925539  1845A      3.948984  
    1846A      3.949829  1847A      3.953256  1848A      3.968328  
    1849A      3.973629  1850A      3.984443  1851A      4.024714  
    1852A      4.027351  1853A      4.029413  1854A      4.102638  
    1855A      4.263836  1856A      4.331322  1857A      4.392149  
    1858A      4.446199  1859A      4.505429  1860A      4.648360  
    1861A      4.698091  1862A      5.761075  1863A      5.763205  
    1864A      5.772763  1865A      5.780702  1866A      5.786639  
    1867A      5.793314  1868A      5.822122  1869A      5.844199  
    1870A      5.847052  1871A      5.858013  1872A      5.875679  
    1873A      6.041802  1874A      6.052373  1875A      6.072462  
    1876A      6.223369  1877A      6.338890  1878A      6.343625  
    1879A      6.399632  1880A      6.401743  1881A      6.404688  
    1882A      7.286788  1883A      7.336449  1884A      7.366937  
    1885A      7.375090  1886A      7.536151  1887A      7.571727  
    1888A      7.604582  1889A      7.630345  1890A      7.647823  
    1891A      7.664842  1892A      7.858700  1893A      7.931603  
    1894A     12.846121  1895A     42.935809  1896A     42.963897  
    1897A     42.992412  1898A     42.996368  

    Final Occupation by Irrep:
              A 
    DOCC [   300 ]
    NA   [   300 ]
    NB   [   300 ]

  @DF-RHF Final Energy: -3650.34011218969817

   => Energetics <=

    Nuclear Repulsion Energy =          15611.4211649754324753
    One-Electron Energy =              -36072.1502680008852622
    Two-Electron Energy =               16810.3889908357559761
    Total Energy =                      -3650.3401121896968107

Computation Completed


Properties will be evaluated at   0.000000,   0.000000,   0.000000 [a0]

Properties computed using the SCF density matrix


 Multipole Moments:

 ------------------------------------------------------------------------------------
     Multipole            Electronic (a.u.)      Nuclear  (a.u.)        Total (a.u.)
 ------------------------------------------------------------------------------------

 L = 1.  Multiply by 2.5417464519 to convert [e a0] to [Debye]
 Dipole X            :          0.0002752            0.0001983            0.0004735
 Dipole Y            :          0.0014128           -0.0013163            0.0000965
 Dipole Z            :        242.0898288         -242.0900433           -0.0002145
 Magnitude           :                                                    0.0005287

 ------------------------------------------------------------------------------------

*** tstop() called on n2cn1173 at Wed Feb  7 21:34:32 2024
Module time:
	user time   =   17032.25 seconds =     283.87 minutes
	system time =     989.32 seconds =      16.49 minutes
	total time  =       1909 seconds =      31.82 minutes
Total time:
	user time   =   44840.60 seconds =     747.34 minutes
	system time =    2656.84 seconds =      44.28 minutes
	total time  =       6034 seconds =     100.57 minutes
  Constructing Basis Sets for SAPT...

   => Loading Basis Set <=

    Name: (JUN-CC-PVDZ AUX)
    Role: RIFIT
    Keyword: DF_BASIS_SAPT
    atoms 1                                                   entry B          line    56 file /opt/software/pc2/EB-SW/software/PSI4/1.9-foss-2022a/share/psi4/basis/jun-cc-pvdz-ri.gbs 
    atoms 2-5                                                 entry F          line   232 file /opt/software/pc2/EB-SW/software/PSI4/1.9-foss-2022a/share/psi4/basis/jun-cc-pvdz-ri.gbs 
    atoms 6-23, 30-42, 45-59, 62-78, 81-93, 98-108, 111-119   entry C          line   100 file /opt/software/pc2/EB-SW/software/PSI4/1.9-foss-2022a/share/psi4/basis/jun-cc-pvdz-ri.gbs 
    atoms 24-29, 43-44, 60-61, 79-80, 94-97, 109-110, 120-125 entry H          line    30 file /opt/software/pc2/EB-SW/software/PSI4/1.9-foss-2022a/share/psi4/basis/jun-cc-pvdz-ri.gbs 

   => Loading Basis Set <=

    Name: (JUN-CC-PVDZ AUX)
    Role: JKFIT
    Keyword: DF_BASIS_ELST
    atoms 1                                                   entry B          line    90 file /opt/software/pc2/EB-SW/software/PSI4/1.9-foss-2022a/share/psi4/basis/jun-cc-pvdz-jkfit.gbs 
    atoms 2-5                                                 entry F          line   314 file /opt/software/pc2/EB-SW/software/PSI4/1.9-foss-2022a/share/psi4/basis/jun-cc-pvdz-jkfit.gbs 
    atoms 6-23, 30-42, 45-59, 62-78, 81-93, 98-108, 111-119   entry C          line   146 file /opt/software/pc2/EB-SW/software/PSI4/1.9-foss-2022a/share/psi4/basis/jun-cc-pvdz-jkfit.gbs 
    atoms 24-29, 43-44, 60-61, 79-80, 94-97, 109-110, 120-125 entry H          line    70 file /opt/software/pc2/EB-SW/software/PSI4/1.9-foss-2022a/share/psi4/basis/jun-cc-pvdz-jkfit.gbs 


  //>>>>>>>>>>>>>>>>>>>>>>>>>>>>>>>>>>>//
  //               SSAPT0              //
  //<<<<<<<<<<<<<<<<<<<<<<<<<<<<<<<<<<<//


*** tstart() called on n2cn1173
*** at Wed Feb  7 21:34:33 2024

        SAPT0  
    Ed Hohenstein
     6 June 2009

      Orbital Information
  --------------------------
    NSO        =      1938
    NMO        =      1898
    NRI        =      6901
    NRI (Elst) =      8531
    NOCC A     =        21
    NOCC B     =       300
    FOCC A     =         5
    FOCC B     =        96
    NVIR A     =      1877
    NVIR B     =      1598

    Elst10,r            =    -0.028954912757 [Eh]
    Exch10              =     0.096344950952 [Eh]
    Exch10 (S^2)        =     0.094883880375 [Eh]

    Iter     Energy [mEh]          dE [mEh]         Residual      Time [s]
       1     -12.34756014      12.347560142      22.826969686           280
       2     -15.41969515       3.072135004      10.336844078           385
       3     -15.99329433       0.573599185       1.628173019           480
       4     -15.94083565      -0.052458677       0.509912113           570
       5     -15.93395913      -0.006876527       0.116908526           679
       6     -15.93524394       0.001284809       0.035679143           815
       7     -15.93595595       0.000712012       0.006865599           939
       8     -15.93581269      -0.000143256       0.001187062          1039
       9     -15.93582269       0.000009994       0.000221119          1163
      10     -15.93582323       0.000000547       0.000037391          1283
      11     -15.93582283      -0.000000400       0.000007776          1386
      12     -15.93582288       0.000000049       0.000002469          1471
      13     -15.93582290       0.000000015       0.000000673          1566

    CHF Iterations converged


    Iter     Energy [mEh]          dE [mEh]         Residual      Time [s]
       1     -63.44214851      63.442148514     114.543300381           119
       2     -49.46342873     -13.978719782      17.002323611           237
       3     -51.19451874       1.731090007       7.555500701           341
       4     -52.41763757       1.223118829       1.897157417           461
       5     -52.42969742       0.012059851       0.789578482           628
       6     -52.35457618      -0.075121241       0.336853418           764
       7     -52.34708719      -0.007488991       0.168062322           900
       8     -52.35939590       0.012308713       0.081698141          1018
       9     -52.36152495       0.002129053       0.034600108          1164
      10     -52.35925360      -0.002271351       0.022167943          1292
      11     -52.35880835      -0.000445252       0.015668760          1406
      12     -52.35951448       0.000706131       0.009792520          1545
      13     -52.35971263       0.000198145       0.004717038          1651
      14     -52.35952604      -0.000186589       0.002750937          1775
      15     -52.35947885      -0.000047189       0.002050701          1880
      16     -52.35953105       0.000052199       0.000938967          2013
      17     -52.35954229       0.000011241       0.000347620          2117
      18     -52.35953716      -0.000005127       0.000131503          2221
      19     -52.35953424      -0.000002922       0.000064857          2331
      20     -52.35953433       0.000000090       0.000030605          2465
      21     -52.35953517       0.000000843       0.000014470          2593
      22     -52.35953525       0.000000081       0.000006172          2706
      23     -52.35953509      -0.000000163       0.000002536          2820
      24     -52.35953507      -0.000000024       0.000001222          2937
      25     -52.35953509       0.000000021       0.000000531          3053

    CHF Iterations converged

    Ind20,r (A<-B)      =    -0.015935822897 [Eh]
    Ind20,r (B<-A)      =    -0.052359535087 [Eh]
    Ind20,r             =    -0.068295357983 [Eh]
    Exch-Ind20,r (A<-B) =     0.014162573514 [Eh]
    Exch-Ind20,r (B<-A) =     0.028130712518 [Eh]
    Exch-Ind20,r        =     0.042293286033 [Eh]
    Disp20              =    -0.033630179795 [Eh]
    Disp20 (SS)         =    -0.016815089897 [Eh]
    Disp20 (OS)         =    -0.016815089897 [Eh]
    Exch-Disp20         =     0.008627001076 [Eh]
    Exch-Disp20 (SS)    =     0.004634485645 [Eh]
    Exch-Disp20 (OS)    =     0.003992515431 [Eh]

    SAPT Results 
  --------------------------------------------------------------------------------------------------------
    Electrostatics                -28.95491276 [mEh]     -18.16948207 [kcal/mol]     -76.02111297 [kJ/mol]
      Elst10,r                    -28.95491276 [mEh]     -18.16948207 [kcal/mol]     -76.02111297 [kJ/mol]

    Exchange                       96.34495095 [mEh]      60.45736947 [kcal/mol]     252.95363387 [kJ/mol]
      Exch10                       96.34495095 [mEh]      60.45736947 [kcal/mol]     252.95363387 [kJ/mol]
      Exch10(S^2)                  94.88388038 [mEh]      59.54053384 [kcal/mol]     249.11759360 [kJ/mol]

    Induction                     -33.11000528 [mEh]     -20.77684199 [kcal/mol]     -86.93030689 [kJ/mol]
      Ind20,r                     -68.29535798 [mEh]     -42.85598415 [kcal/mol]    -179.30943768 [kJ/mol]
      Exch-Ind20,r                 42.29328603 [mEh]      26.53943766 [kcal/mol]     111.04100718 [kJ/mol]
      delta HF,r (2)               -7.10793333 [mEh]      -4.46029550 [kcal/mol]     -18.66187639 [kJ/mol]

    Dispersion                    -25.00317872 [mEh]     -15.68973152 [kcal/mol]     -65.64583668 [kJ/mol]
      Disp20                      -33.63017979 [mEh]     -21.10325643 [kcal/mol]     -88.29602489 [kJ/mol]
      Exch-Disp20                   8.62700108 [mEh]       5.41352491 [kcal/mol]      22.65018820 [kJ/mol]
      Disp20 (SS)                 -16.81508990 [mEh]     -10.55162821 [kcal/mol]     -44.14801244 [kJ/mol]
      Disp20 (OS)                 -16.81508990 [mEh]     -10.55162821 [kcal/mol]     -44.14801244 [kJ/mol]
      Exch-Disp20 (SS)              4.63448565 [mEh]       2.90818365 [kcal/mol]      12.16784039 [kJ/mol]
      Exch-Disp20 (OS)              3.99251543 [mEh]       2.50534126 [kcal/mol]      10.48234782 [kJ/mol]

  Total HF                         34.28003291 [mEh]      21.51104541 [kcal/mol]      90.00221401 [kJ/mol]
  Total SAPT0                       9.27685419 [mEh]       5.82131389 [kcal/mol]      24.35637733 [kJ/mol]

  Special recipe for scaled SAPT0 (see Manual):
    Electrostatics sSAPT0         -28.95491276 [mEh]     -18.16948207 [kcal/mol]     -76.02111297 [kJ/mol]
    Exchange sSAPT0                96.34495095 [mEh]      60.45736947 [kcal/mol]     252.95363387 [kJ/mol]
    Induction sSAPT0              -31.12600482 [mEh]     -19.53186291 [kcal/mol]     -81.72131440 [kJ/mol]
    Dispersion sSAPT0             -24.59848153 [mEh]     -15.43578020 [kcal/mol]     -64.58330435 [kJ/mol]
  Total sSAPT0                     11.66555185 [mEh]       7.32024430 [kcal/mol]      30.62790215 [kJ/mol]
  --------------------------------------------------------------------------------------------------------

*** tstop() called on n2cn1173 at Thu Feb  8 00:41:00 2024
Module time:
	user time   =   63229.57 seconds =    1053.83 minutes
	system time =    3450.44 seconds =      57.51 minutes
	total time  =      11187 seconds =     186.45 minutes
Total time:
	user time   =  108071.60 seconds =    1801.19 minutes
	system time =    6107.28 seconds =     101.79 minutes
	total time  =      17222 seconds =     287.03 minutes

    Psi4 stopped on: Thursday, 08 February 2024 12:41AM
    Psi4 wall time for execution: 4:47:04.12

*** Psi4 exiting successfully. Buy a developer a beer!
