
    -----------------------------------------------------------------------
          Psi4: An Open-Source Ab Initio Electronic Structure Package
                               Psi4 1.9 release

                         Git: Rev {} zzzzzzz 


    D. G. A. Smith, L. A. Burns, A. C. Simmonett, R. M. Parrish,
    M. C. Schieber, R. Galvelis, P. Kraus, H. Kruse, R. Di Remigio,
    A. Alenaizan, A. M. James, S. Lehtola, J. P. Misiewicz, M. Scheurer,
    R. A. Shaw, J. B. Schriber, Y. Xie, Z. L. Glick, D. A. Sirianni,
    J. S. O'Brien, J. M. Waldrop, A. Kumar, E. G. Hohenstein,
    B. P. Pritchard, B. R. Brooks, H. F. Schaefer III, A. Yu. Sokolov,
    K. Patkowski, A. E. DePrince III, U. Bozkaya, R. A. King,
    F. A. Evangelista, J. M. Turney, T. D. Crawford, C. D. Sherrill,
    J. Chem. Phys. 152(18) 184108 (2020). https://doi.org/10.1063/5.0006002

                            Additional Code Authors
    E. T. Seidl, C. L. Janssen, E. F. Valeev, M. L. Leininger,
    J. F. Gonthier, R. M. Richard, H. R. McAlexander, M. Saitow, X. Wang,
    P. Verma, M. H. Lechner, A. Jiang, S. Behnle, A. G. Heide,
    M. F. Herbst, and D. L. Poole

             Previous Authors, Complete List of Code Contributors,
                       and Citations for Specific Modules
    https://github.com/psi4/psi4/blob/master/codemeta.json
    https://github.com/psi4/psi4/graphs/contributors
    http://psicode.org/psi4manual/master/introduction.html#citing-psifour

    -----------------------------------------------------------------------


    Psi4 started on: Monday, 22 January 2024 05:12PM

    Process ID: 1888695
    Host:       d-6-11-4
    PSIDATADIR: /home/gridsan/tfroembgen/.conda/envs/psi4test/share/psi4
    Memory:     500.0 MiB
    Threads:    12
    
  ==> Input File <==

--------------------------------------------------------------------------
memory 32 GB # how much memory is available ! Depends on the nodes/cores !

molecule dimer {
# monomer A
+1 1    # Charge and multiplicity
C  0.680067 -1.215929 7.408042
C -0.680504 -1.215545 7.406014
N -1.085635  0.102779 7.405016
C  0.000108  0.884180 7.401740
C -2.477365  0.570758 7.355610
N  1.085222  0.102779 7.405016
H  1.385146 -2.033368 7.415870
H -1.385302 -2.033214 7.406204
H -0.000009  1.965269 7.399993
C  2.478117  0.567877 7.421908
H  2.490592  1.658130 7.394563
H  2.967028  0.220701 8.335354
H  3.001428  0.176405 6.546425
H -2.857359  0.490799 6.333539
H -3.082679 -0.042306 8.025694
H -2.518128  1.610706 7.682594
--
# monomer B
0 1     # Charge and multiplicity
C   1.22531237526482      0.70753866091955      0.00613762728373
C   1.22532433589282     -0.70753852257020     -0.00619318228664
C   -0.00000567409046      1.41496628609039     -0.00672680580738
C   2.45644923379077      1.41832825917820      0.00902448468363
C   0.00001130712078     -1.41497612663474      0.00347275151708
C   -1.22530046906674      0.70754574598412      0.00838914760619
C   2.45643823516184     -1.41832293188077     -0.00843833914343
C   -0.00000085313587      2.83680140328112     -0.00913035594137
C   3.68182717731192      0.70931832800114     -0.00808954934571
C   2.45512052870677      2.83422403348893     -0.00819210630633
C   3.68182158506039     -0.70933346742900      0.00798293467272
C   -1.22531311884624     -0.70752714354401     -0.00512042085974
C   1.22670006104402      3.54346985599427      0.00816696660346
C   0.00000526469929     -2.83678176723568      0.00832091913869
C   -2.45643555300670      1.41831729028492      0.00842454345199
C   2.45512389762097     -2.83422965658853      0.00783102630520
C   -1.22671388474763      3.54346943575023      0.00827029982280
C   4.91451777504333      1.42717324448953     -0.00160886631602
C   3.69315067131765      3.54279566454522     -0.00155906667985
C   -2.45643712022637     -1.41831290883911     -0.00846337726810
C   1.22670532178455     -3.54347386990643     -0.00780316414624
C   -2.45512491866593      2.83421703463423     -0.00818572995999
C   4.91452486062398     -1.42718653794377      0.00136387641845
C   1.22142509354026      4.97013443726031      0.00150231067809
C   4.89300870916237      2.82518837202648     -0.00039219795739
C   -1.22669652864725     -3.54347062507680     -0.00753595973677
C   -3.68181849668397      0.70932533873199     -0.00807686886569
C   3.69314758099218     -3.54280096939050      0.00148176697923
C   -1.22143177215231      4.97012866986289      0.00168580605083
C   6.13477145276790      0.68054831910577     -0.00083909176631
C   3.65678936045204      4.97295361556775     -0.00065042889723
C   -2.45512642789169     -2.83421472106065      0.00758666850712
C   -3.68181869921921     -0.70932533146830      0.00810055625144
C   4.89301309775526     -2.82519973363176      0.00021895393805
C   -0.00000059327114      5.65044773803267      0.00045449734393
C   6.13477559217374     -0.68055448207492      0.00042622874941
C   2.47813196269732      5.65357712333155      0.00063835075260
C   1.22142288457925     -4.97012668293268     -0.00129718634452
C   -3.69316190412301      3.54279732619245     -0.00139355922051
C   -1.22142804110313     -4.97011793159564     -0.00140994817719
C   -4.91452132810043      1.42717581899491     -0.00153192130862
C   3.65678749952045     -4.97295485423912      0.00080007163680
C   -2.47813805026426      5.65357479452875      0.00092287576113
C   -3.69314125872231     -3.54278984697859      0.00136564082345
C   -4.91451200321153     -1.42718062802730      0.00139857359209
C   -0.00000552908399     -5.65043791501335      0.00005899322272
C   -4.89302000425900      2.82518897091939     -0.00040227981744
C   2.47812647313991     -5.65357317188818     -0.00029052915548
C   -3.65679823041642      4.97295655404175     -0.00047374852278
C   -4.89299899901461     -2.82519139505969      0.00006491824035
C   -2.47812801824129     -5.65356579800621     -0.00056571680280
C   -6.13477002348955      0.68054913825639     -0.00086464346868
C   -3.65678835334731     -4.97294365097028      0.00058578382008
C   -6.13476456307132     -0.68055354348201      0.00040575295444
H   5.83528897565761      3.36927626695423      0.00396712770529
H   7.07385965258860      1.22821762089947     -0.00037744837300
H   4.60066374401555      5.51238117445323     -0.00014522814529
H   5.83528386714679     -3.36930568472863     -0.00423551337640
H   -0.00001167146422      6.73853104613662     -0.00389474766392
H   7.07386165167227     -1.22822657074368     -0.00008250934481
H   2.47331421164041      6.74068466339473      0.00017162982210
H   4.60066897122302     -5.51237575717576      0.00039007446835
H   -2.47331820069565      6.74068209160650      0.00047297644710
H   -0.00000978838621     -6.73852780445195      0.00458867820736
H   -5.83530143450167      3.36927132229595      0.00410314985360
H   2.47330840367253     -6.74068500242887      0.00027980126949
H   -4.60067436136587      5.51237839860371      0.00002010017831
H   -5.83527902699321     -3.36928859177951     -0.00451481925734
H   -2.47329986759855     -6.74067870613986     -0.00016951527498
H   -7.07385728692578      1.22822084484047     -0.00046143985387
H   -4.60067330624313     -5.51236229778631      0.00021776644566
H   -7.07385645456741     -1.22822025997701     -0.00017736581114

    units angstrom      # Angstroms are the default
    no_reorient         # Geometry fixed, default
    symmetry c1         # C1 symmetry, default
}

set {
    scf_type DF         # Density fitting, faster than exact integrals
    freeze_core True    # Freeze core electrons
    basis jun-cc-pVDZ   # Jun-cc-pVDZ basis set, recommended for sSAPT0 in https://doi.org/10.1063/1.4867135
}

energy('ssapt0')        # Compute sSAPT0 energy, includes also SAPT0
--------------------------------------------------------------------------

  Memory set to  29.802 GiB by Python driver.

Scratch directory: /state/partition1/slurm_tmp/24798257.4294967291.0/
   => Loading Basis Set <=

    Name: JUN-CC-PVDZ
    Role: ORBITAL
    Keyword: BASIS
    atoms 1-2, 4-5, 10, 17-70 entry C          line   164 file /home/gridsan/tfroembgen/.conda/envs/psi4test/share/psi4/basis/jun-cc-pvdz.gbs 
    atoms 3, 6                entry N          line   198 file /home/gridsan/tfroembgen/.conda/envs/psi4test/share/psi4/basis/jun-cc-pvdz.gbs 
    atoms 7-9, 11-16, 71-88   entry H          line    36 file /home/gridsan/tfroembgen/.conda/envs/psi4test/share/psi4/basis/jun-cc-pvdz.gbs 

   => Loading Basis Set <=

    Name: JUN-CC-PVDZ
    Role: ORBITAL
    Keyword: BASIS
    atoms 1-2, 4-5, 10, 17-70 entry C          line   164 file /home/gridsan/tfroembgen/.conda/envs/psi4test/share/psi4/basis/jun-cc-pvdz.gbs 
    atoms 3, 6                entry N          line   198 file /home/gridsan/tfroembgen/.conda/envs/psi4test/share/psi4/basis/jun-cc-pvdz.gbs 
    atoms 7-9, 11-16, 71-88   entry H          line    36 file /home/gridsan/tfroembgen/.conda/envs/psi4test/share/psi4/basis/jun-cc-pvdz.gbs 


  //>>>>>>>>>>>>>>>>>>>>>>>>>>>>>>>>>>>//
  //              Dimer HF             //
  //<<<<<<<<<<<<<<<<<<<<<<<<<<<<<<<<<<<//

   => Libint2 <=

    Primary   basis highest AM E, G, H:  7, 7, 4
    Auxiliary basis highest AM E, G, H:  7, 7, 5
    Onebody   basis highest AM E, G, H:  7, 7, 5
    Solid Harmonics ordering:            gaussian

*** tstart() called on d-6-11-4
*** at Mon Jan 22 17:12:21 2024

   => Loading Basis Set <=

    Name: JUN-CC-PVDZ
    Role: ORBITAL
    Keyword: BASIS
    atoms 1-2, 4-5, 10, 17-70 entry C          line   164 file /home/gridsan/tfroembgen/.conda/envs/psi4test/share/psi4/basis/jun-cc-pvdz.gbs 
    atoms 3, 6                entry N          line   198 file /home/gridsan/tfroembgen/.conda/envs/psi4test/share/psi4/basis/jun-cc-pvdz.gbs 
    atoms 7-9, 11-16, 71-88   entry H          line    36 file /home/gridsan/tfroembgen/.conda/envs/psi4test/share/psi4/basis/jun-cc-pvdz.gbs 


         ---------------------------------------------------------
                                   SCF
               by Justin Turney, Rob Parrish, Andy Simmonett
                          and Daniel G. A. Smith
                              RHF Reference
                       12 Threads,  30517 MiB Core
         ---------------------------------------------------------

  ==> Geometry <==

    Molecular point group: c1
    Full point group: C1

    Geometry (in Angstrom), charge = 1, multiplicity = 1:

       Center              X                  Y                   Z               Mass       
    ------------   -----------------  -----------------  -----------------  -----------------
         C            0.680066520158    -1.215933861162     6.466809585194    12.000000000000
         C           -0.680504479842    -1.215549861162     6.464781585194    12.000000000000
         N           -1.085635479842     0.102774138838     6.463783585194    14.003074004430
         C            0.000107520158     0.884175138838     6.460507585194    12.000000000000
         C           -2.477365479842     0.570753138838     6.414377585194    12.000000000000
         N            1.085221520158     0.102774138838     6.463783585194    14.003074004430
         H            1.385145520158    -2.033372861162     6.474637585194     1.007825032230
         H           -1.385302479842    -2.033218861162     6.464971585194     1.007825032230
         H           -0.000009479842     1.965264138838     6.458760585194     1.007825032230
         C            2.478116520158     0.567872138838     6.480675585194    12.000000000000
         H            2.490591520158     1.658125138838     6.453330585194     1.007825032230
         H            2.967027520158     0.220696138838     7.394121585194     1.007825032230
         H            3.001427520158     0.176400138838     5.605192585194     1.007825032230
         H           -2.857359479842     0.490794138838     5.392306585194     1.007825032230
         H           -3.082679479842    -0.042310861162     7.084461585194     1.007825032230
         H           -2.518128479842     1.610701138838     6.741361585194     1.007825032230
         C            1.225311895423     0.707533799757    -0.935094787523    12.000000000000
         C            1.225323856051    -0.707543383733    -0.947425597093    12.000000000000
         C           -0.000006153932     1.414961424928    -0.947959220614    12.000000000000
         C            2.456448753949     1.418323398016    -0.932207930123    12.000000000000
         C            0.000010827279    -1.414980987797    -0.937759663289    12.000000000000
         C           -1.225300948908     0.707540884822    -0.932843267200    12.000000000000
         C            2.456437755320    -1.418327793043    -0.949670753950    12.000000000000
         C           -0.000001332978     2.836796542119    -0.950362770748    12.000000000000
         C            3.681826697470     0.709313466839    -0.949321964152    12.000000000000
         C            2.455120048865     2.834219172327    -0.949424521113    12.000000000000
         C            3.681821105219    -0.709338328591    -0.933249480134    12.000000000000
         C           -1.225313598688    -0.707532004706    -0.946352835666    12.000000000000
         C            1.226699581202     3.543464994832    -0.933065448203    12.000000000000
         C            0.000004784858    -2.836786628398    -0.932911495668    12.000000000000
         C           -2.456436032848     1.418312429123    -0.932807871354    12.000000000000
         C            2.455123417779    -2.834234517751    -0.933401388501    12.000000000000
         C           -1.226714364589     3.543464574588    -0.932962114984    12.000000000000
         C            4.914517295202     1.427168383327    -0.942841281122    12.000000000000
         C            3.693150191476     3.542790803383    -0.942791481486    12.000000000000
         C           -2.456437600068    -1.418317770001    -0.949695792075    12.000000000000
         C            1.226704841943    -3.543478731069    -0.949035578953    12.000000000000
         C           -2.455125398508     2.834212173472    -0.949418144766    12.000000000000
         C            4.914524380782    -1.427191399106    -0.939868538388    12.000000000000
         C            1.221424613699     4.970129576098    -0.939730104128    12.000000000000
         C            4.893008229321     2.825183510864    -0.941624612764    12.000000000000
         C           -1.226697008489    -3.543475486239    -0.948768374543    12.000000000000
         C           -3.681818976526     0.709320477570    -0.949309283672    12.000000000000
         C            3.693147101150    -3.542805830553    -0.939750647827    12.000000000000
         C           -1.221432251994     4.970123808701    -0.939546608756    12.000000000000
         C            6.134770972926     0.680543457943    -0.942071506573    12.000000000000
         C            3.656788880610     4.972948754405    -0.941882843704    12.000000000000
         C           -2.455126907733    -2.834219582223    -0.933645746299    12.000000000000
         C           -3.681819179061    -0.709330192631    -0.933131858555    12.000000000000
         C            4.893012617914    -2.825204594794    -0.941013460868    12.000000000000
         C           -0.000001073113     5.650442876870    -0.940777917462    12.000000000000
         C            6.134775112332    -0.680559343237    -0.940806186057    12.000000000000
         C            2.478131482856     5.653572262169    -0.940594064054    12.000000000000
         C            1.221422404738    -4.970131544095    -0.942529601151    12.000000000000
         C           -3.693162383965     3.542792465030    -0.942625974027    12.000000000000
         C           -1.221428520945    -4.970122792758    -0.942642362984    12.000000000000
         C           -4.914521807942     1.427170957833    -0.942764336115    12.000000000000
         C            3.656787019679    -4.972959715401    -0.940432343170    12.000000000000
         C           -2.478138530106     5.653569933366    -0.940309539045    12.000000000000
         C           -3.693141738564    -3.542794708141    -0.939866773983    12.000000000000
         C           -4.914512483053    -1.427185489190    -0.939833841214    12.000000000000
         C           -0.000006008926    -5.650442776176    -0.941173421584    12.000000000000
         C           -4.893020484101     2.825184109757    -0.941634694624    12.000000000000
         C            2.478125993298    -5.653578033051    -0.941522943962    12.000000000000
         C           -3.656798710258     4.972951692879    -0.941706163329    12.000000000000
         C           -4.892999478856    -2.825196256222    -0.941167496566    12.000000000000
         C           -2.478128498083    -5.653570659169    -0.941798131609    12.000000000000
         C           -6.134770503331     0.680544277094    -0.942097058275    12.000000000000
         C           -3.656788833189    -4.972948512133    -0.940646630986    12.000000000000
         C           -6.134765042913    -0.680558404644    -0.940826661852    12.000000000000
         H            5.835288495816     3.369271405792    -0.937265287101     1.007825032230
         H            7.073859172747     1.228212759737    -0.941609863179     1.007825032230
         H            4.600663264174     5.512376313291    -0.941377642952     1.007825032230
         H            5.835283387305    -3.369310545891    -0.945467928183     1.007825032230
         H           -0.000012151306     6.738526184974    -0.945127162470     1.007825032230
         H            7.073861171831    -1.228231431906    -0.941314924151     1.007825032230
         H            2.473313731799     6.740679802232    -0.941060784984     1.007825032230
         H            4.600668491381    -5.512380618338    -0.940842340338     1.007825032230
         H           -2.473318680537     6.740677230444    -0.940759438359     1.007825032230
         H           -0.000010268228    -6.738532665614    -0.936643736599     1.007825032230
         H           -5.835301914343     3.369266461134    -0.937129264953     1.007825032230
         H            2.473307923831    -6.740689863591    -0.940952613537     1.007825032230
         H           -4.600674841208     5.512373537441    -0.941212314628     1.007825032230
         H           -5.835279506835    -3.369293452942    -0.945747234064     1.007825032230
         H           -2.473300347440    -6.740683567302    -0.941401930081     1.007825032230
         H           -7.073857766768     1.228215983678    -0.941693854660     1.007825032230
         H           -4.600673786085    -5.512367158949    -0.941014648361     1.007825032230
         H           -7.073856934409    -1.228225121139    -0.941409780618     1.007825032230

  Running in c1 symmetry.

  Rotational constants: A =      0.00137  B =      0.00135  C =      0.00109 [cm^-1]
  Rotational constants: A =     41.03443  B =     40.47037  C =     32.56832 [MHz]
  Nuclear repulsion = 7840.066558058958435

  Charge       = 1
  Multiplicity = 1
  Electrons    = 394
  Nalpha       = 197
  Nbeta        = 197

  ==> Algorithm <==

  SCF Algorithm Type is DF.
  DIIS enabled.
  MOM disabled.
  Fractional occupation disabled.
  Guess Type is SAD.
  Energy threshold   = 1.00e-08
  Density threshold  = 1.00e-08
  Integral threshold = 1.00e-12

  ==> Primary Basis <==

  Basis Set: JUN-CC-PVDZ
    Blend: JUN-CC-PVDZ
    Number of shells: 569
    Number of basis functions: 1233
    Number of Cartesian functions: 1294
    Spherical Harmonics?: true
    Max angular momentum: 2

   => Loading Basis Set <=

    Name: (JUN-CC-PVDZ AUX)
    Role: JKFIT
    Keyword: DF_BASIS_SCF
    atoms 1-2, 4-5, 10, 17-70 entry C          line   146 file /home/gridsan/tfroembgen/.conda/envs/psi4test/share/psi4/basis/jun-cc-pvdz-jkfit.gbs 
    atoms 3, 6                entry N          line   202 file /home/gridsan/tfroembgen/.conda/envs/psi4test/share/psi4/basis/jun-cc-pvdz-jkfit.gbs 
    atoms 7-9, 11-16, 71-88   entry H          line    70 file /home/gridsan/tfroembgen/.conda/envs/psi4test/share/psi4/basis/jun-cc-pvdz-jkfit.gbs 

  ==> Integral Setup <==

  ==> DiskDFJK: Density-Fitted J/K Matrices <==

    J tasked:                  Yes
    K tasked:                  Yes
    wK tasked:                  No
    OpenMP threads:             12
    Integrals threads:          12
    Memory [MiB]:            22888
    Algorithm:                Core
    Integral Cache:           SAVE
    Schwarz Cutoff:          1E-12
    Fitting Condition:       1E-10

   => Auxiliary Basis Set <=

  Basis Set: (JUN-CC-PVDZ AUX)
    Blend: JUN-CC-PVDZ-JKFIT
    Number of shells: 1890
    Number of basis functions: 5440
    Number of Cartesian functions: 6226
    Spherical Harmonics?: true
    Max angular momentum: 3

  Minimum eigenvalue in the overlap matrix is 8.3955893059E-10.
  Reciprocal condition number of the overlap matrix is 3.7547880333E-11.
    Using canonical orthogonalization.
  Overall, 14 of 1233 possible MOs eliminated.


  ==> Pre-Iterations <==

  SCF Guess: Superposition of Atomic Densities via on-the-fly atomic UHF (no occupation information).

   -------------------------
    Irrep   Nso     Nmo    
   -------------------------
     A       1233    1219 
   -------------------------
    Total    1233    1219
   -------------------------

  ==> Iterations <==

                           Total Energy        Delta E     RMS |[F,P]|

   @DF-RHF iter SAD: -2365.39398309471972   -2.36539e+03   0.00000e+00 
   @DF-RHF iter   1: -2358.18694680844283    7.20704e+00   9.49072e-04 DIIS/ADIIS
   @DF-RHF iter   2: -2359.08711708104556   -9.00170e-01   3.27030e-04 DIIS/ADIIS
   @DF-RHF iter   3: -2359.18079693469326   -9.36799e-02   1.21036e-04 DIIS/ADIIS
   @DF-RHF iter   4: -2359.19445993187992   -1.36630e-02   4.59419e-05 DIIS
   @DF-RHF iter   5: -2359.19651707538151   -2.05714e-03   1.08492e-05 DIIS
   @DF-RHF iter   6: -2359.19670476751344   -1.87692e-04   5.30921e-06 DIIS
   @DF-RHF iter   7: -2359.19677808100096   -7.33135e-05   2.27728e-06 DIIS
   @DF-RHF iter   8: -2359.19679913182654   -2.10508e-05   1.12813e-06 DIIS
   @DF-RHF iter   9: -2359.19680439844979   -5.26662e-06   2.61917e-07 DIIS
   @DF-RHF iter  10: -2359.19680464630119   -2.47851e-07   8.48529e-08 DIIS
   @DF-RHF iter  11: -2359.19680466378031   -1.74791e-08   3.14937e-08 DIIS
   @DF-RHF iter  12: -2359.19680466724776   -3.46745e-09   1.25779e-08 DIIS
   @DF-RHF iter  13: -2359.19680466764748   -3.99723e-10   5.82330e-09 DIIS
  Energy and wave function converged.


  ==> Post-Iterations <==

    Orbital Energies [Eh]
    ---------------------

    Doubly Occupied:                                                      

       1A    -15.824835     2A    -15.824303     3A    -11.519776  
       4A    -11.450081     5A    -11.448528     6A    -11.440218  
       7A    -11.439983     8A    -11.318290     9A    -11.317811  
      10A    -11.317786    11A    -11.316857    12A    -11.316851  
      13A    -11.316449    14A    -11.315994    15A    -11.315878  
      16A    -11.315752    17A    -11.315608    18A    -11.315570  
      19A    -11.315311    20A    -11.314621    21A    -11.314542  
      22A    -11.314460    23A    -11.314422    24A    -11.314290  
      25A    -11.314266    26A    -11.314180    27A    -11.314146  
      28A    -11.314105    29A    -11.314059    30A    -11.313793  
      31A    -11.313746    32A    -11.313601    33A    -11.313563  
      34A    -11.313486    35A    -11.313449    36A    -11.313113  
      37A    -11.313100    38A    -11.312923    39A    -11.312846  
      40A    -11.312763    41A    -11.312726    42A    -11.312448  
      43A    -11.312365    44A    -11.306907    45A    -11.306873  
      46A    -11.306838    47A    -11.306663    48A    -11.306639  
      49A    -11.306622    50A    -11.306590    51A    -11.306550  
      52A    -11.306525    53A    -11.306304    54A    -11.306046  
      55A    -11.306034    56A    -11.305236    57A    -11.305213  
      58A    -11.305170    59A    -11.305133    60A    -11.304613  
      61A    -11.304604    62A     -1.568362    63A     -1.424001  
      64A     -1.301291    65A     -1.276395    66A     -1.276289  
      67A     -1.245618    68A     -1.245611    69A     -1.237567  
      70A     -1.228868    71A     -1.213132    72A     -1.204945  
      73A     -1.191915    74A     -1.191823    75A     -1.179611  
      76A     -1.168694    77A     -1.168676    78A     -1.138604  
      79A     -1.138598    80A     -1.134767    81A     -1.121335  
      82A     -1.121324    83A     -1.109268    84A     -1.095048  
      85A     -1.080821    86A     -1.078270    87A     -1.078244  
      88A     -1.073169    89A     -1.067967    90A     -1.043017  
      91A     -1.043007    92A     -1.017351    93A     -1.017333  
      94A     -1.012771    95A     -0.987221    96A     -0.949840  
      97A     -0.949790    98A     -0.944391    99A     -0.942633  
     100A     -0.942526   101A     -0.937469   102A     -0.937402  
     103A     -0.917318   104A     -0.907406   105A     -0.892188  
     106A     -0.873776   107A     -0.872802   108A     -0.868088  
     109A     -0.868028   110A     -0.849822   111A     -0.849817  
     112A     -0.840641   113A     -0.806628   114A     -0.803469  
     115A     -0.802837   116A     -0.800881   117A     -0.789404  
     118A     -0.789324   119A     -0.787373   120A     -0.787315  
     121A     -0.780457   122A     -0.776531   123A     -0.772170  
     124A     -0.772126   125A     -0.754429   126A     -0.754358  
     127A     -0.749263   128A     -0.749193   129A     -0.720239  
     130A     -0.716354   131A     -0.716298   132A     -0.708782  
     133A     -0.707382   134A     -0.707182   135A     -0.705266  
     136A     -0.705241   137A     -0.694683   138A     -0.694650  
     139A     -0.685437   140A     -0.683226   141A     -0.683209  
     142A     -0.663967   143A     -0.659830   144A     -0.657610  
     145A     -0.654951   146A     -0.654871   147A     -0.649507  
     148A     -0.647437   149A     -0.647376   150A     -0.639789  
     151A     -0.633138   152A     -0.632984   153A     -0.622214  
     154A     -0.622190   155A     -0.621831   156A     -0.621748  
     157A     -0.614505   158A     -0.609799   159A     -0.609710  
     160A     -0.594374   161A     -0.594357   162A     -0.593611  
     163A     -0.593592   164A     -0.586482   165A     -0.585144  
     166A     -0.584923   167A     -0.578314   168A     -0.578234  
     169A     -0.555402   170A     -0.551148   171A     -0.548331  
     172A     -0.543824   173A     -0.540906   174A     -0.537257  
     175A     -0.537225   176A     -0.526913   177A     -0.526789  
     178A     -0.513936   179A     -0.507259   180A     -0.507133  
     181A     -0.494479   182A     -0.494461   183A     -0.461093  
     184A     -0.461087   185A     -0.459726   186A     -0.430628  
     187A     -0.430617   188A     -0.404911   189A     -0.394754  
     190A     -0.393631   191A     -0.393593   192A     -0.366728  
     193A     -0.352887   194A     -0.340796   195A     -0.340792  
     196A     -0.280636   197A     -0.280630  

    Virtual:                                                              

     198A     -0.059589   199A     -0.055308   200A     -0.047139  
     201A     -0.041777   202A     -0.041651   203A     -0.040834  
     204A     -0.023582   205A     -0.022433   206A     -0.019074  
     207A     -0.017294   208A     -0.004757   209A     -0.001443  
     210A     -0.000733   211A      0.004646   212A      0.004849  
     213A      0.005226   214A      0.006299   215A      0.008402  
     216A      0.008485   217A      0.008520   218A      0.009569  
     219A      0.010808   220A      0.014154   221A      0.017289  
     222A      0.026848   223A      0.027802   224A      0.028107  
     225A      0.029042   226A      0.030317   227A      0.031042  
     228A      0.033266   229A      0.033962   230A      0.034862  
     231A      0.035021   232A      0.042618   233A      0.043329  
     234A      0.043435   235A      0.043606   236A      0.044855  
     237A      0.044935   238A      0.052166   239A      0.052391  
     240A      0.055712   241A      0.060051   242A      0.062762  
     243A      0.063197   244A      0.063381   245A      0.063982  
     246A      0.069764   247A      0.070004   248A      0.070341  
     249A      0.072024   250A      0.073015   251A      0.074947  
     252A      0.077411   253A      0.078806   254A      0.083614  
     255A      0.084293   256A      0.086128   257A      0.086836  
     258A      0.087159   259A      0.087866   260A      0.088827  
     261A      0.093279   262A      0.095477   263A      0.097040  
     264A      0.101717   265A      0.103411   266A      0.104039  
     267A      0.104760   268A      0.107381   269A      0.110083  
     270A      0.110809   271A      0.111553   272A      0.112326  
     273A      0.119790   274A      0.120178   275A      0.124802  
     276A      0.126451   277A      0.127883   278A      0.129202  
     279A      0.131394   280A      0.131833   281A      0.132369  
     282A      0.133760   283A      0.134242   284A      0.134544  
     285A      0.136732   286A      0.137247   287A      0.139502  
     288A      0.140055   289A      0.140452   290A      0.144136  
     291A      0.148057   292A      0.148973   293A      0.150736  
     294A      0.152708   295A      0.155308   296A      0.158134  
     297A      0.160800   298A      0.161451   299A      0.161611  
     300A      0.162542   301A      0.163162   302A      0.163542  
     303A      0.164552   304A      0.165694   305A      0.166365  
     306A      0.169066   307A      0.170862   308A      0.172198  
     309A      0.173158   310A      0.174920   311A      0.175728  
     312A      0.177764   313A      0.178645   314A      0.180369  
     315A      0.180884   316A      0.181982   317A      0.182399  
     318A      0.183428   319A      0.184126   320A      0.188520  
     321A      0.189560   322A      0.190965   323A      0.194552  
     324A      0.195619   325A      0.197140   326A      0.199219  
     327A      0.199562   328A      0.201614   329A      0.202318  
     330A      0.203216   331A      0.205177   332A      0.205810  
     333A      0.206289   334A      0.208134   335A      0.213146  
     336A      0.214349   337A      0.214976   338A      0.215024  
     339A      0.215999   340A      0.217381   341A      0.217576  
     342A      0.217645   343A      0.220798   344A      0.221792  
     345A      0.222077   346A      0.230157   347A      0.230808  
     348A      0.232765   349A      0.233990   350A      0.234423  
     351A      0.241408   352A      0.242218   353A      0.242955  
     354A      0.245907   355A      0.246765   356A      0.249295  
     357A      0.250248   358A      0.250725   359A      0.252787  
     360A      0.255454   361A      0.255928   362A      0.256772  
     363A      0.257530   364A      0.258466   365A      0.259314  
     366A      0.259505   367A      0.260433   368A      0.262136  
     369A      0.264598   370A      0.264993   371A      0.265488  
     372A      0.268293   373A      0.268773   374A      0.269420  
     375A      0.269516   376A      0.270915   377A      0.272466  
     378A      0.275601   379A      0.276778   380A      0.279585  
     381A      0.280739   382A      0.284806   383A      0.285611  
     384A      0.286319   385A      0.290480   386A      0.290602  
     387A      0.292771   388A      0.293410   389A      0.294119  
     390A      0.295234   391A      0.296739   392A      0.298340  
     393A      0.298901   394A      0.299521   395A      0.300482  
     396A      0.302826   397A      0.303864   398A      0.308961  
     399A      0.309951   400A      0.313552   401A      0.316910  
     402A      0.319583   403A      0.320231   404A      0.320491  
     405A      0.320985   406A      0.326145   407A      0.327888  
     408A      0.330782   409A      0.330807   410A      0.334105  
     411A      0.335801   412A      0.336903   413A      0.337152  
     414A      0.337588   415A      0.338057   416A      0.341271  
     417A      0.342186   418A      0.343071   419A      0.343721  
     420A      0.344864   421A      0.345331   422A      0.348808  
     423A      0.350333   424A      0.351750   425A      0.352415  
     426A      0.352491   427A      0.353174   428A      0.353648  
     429A      0.353855   430A      0.356896   431A      0.358509  
     432A      0.359051   433A      0.365867   434A      0.366776  
     435A      0.366983   436A      0.368061   437A      0.369748  
     438A      0.369935   439A      0.374720   440A      0.379356  
     441A      0.382256   442A      0.382773   443A      0.384986  
     444A      0.389421   445A      0.389701   446A      0.390941  
     447A      0.391147   448A      0.394975   449A      0.396485  
     450A      0.397296   451A      0.398418   452A      0.403093  
     453A      0.403489   454A      0.405654   455A      0.405774  
     456A      0.406297   457A      0.407264   458A      0.409639  
     459A      0.410493   460A      0.411690   461A      0.413821  
     462A      0.414210   463A      0.416576   464A      0.420301  
     465A      0.422871   466A      0.427549   467A      0.427838  
     468A      0.429287   469A      0.429463   470A      0.439129  
     471A      0.439299   472A      0.439858   473A      0.441004  
     474A      0.441627   475A      0.443551   476A      0.444516  
     477A      0.447435   478A      0.447566   479A      0.451895  
     480A      0.452316   481A      0.453626   482A      0.458030  
     483A      0.458570   484A      0.459584   485A      0.461121  
     486A      0.464492   487A      0.465140   488A      0.470023  
     489A      0.471461   490A      0.472299   491A      0.475299  
     492A      0.483701   493A      0.486443   494A      0.486862  
     495A      0.489647   496A      0.493531   497A      0.493692  
     498A      0.493985   499A      0.498020   500A      0.498095  
     501A      0.498778   502A      0.500845   503A      0.500980  
     504A      0.502679   505A      0.505944   506A      0.507047  
     507A      0.507255   508A      0.514761   509A      0.514969  
     510A      0.515834   511A      0.531885   512A      0.532900  
     513A      0.541483   514A      0.542127   515A      0.542945  
     516A      0.550369   517A      0.559073   518A      0.559356  
     519A      0.566214   520A      0.566618   521A      0.571775  
     522A      0.571967   523A      0.586257   524A      0.589356  
     525A      0.594047   526A      0.594288   527A      0.599281  
     528A      0.612134   529A      0.612264   530A      0.614771  
     531A      0.619650   532A      0.622512   533A      0.622870  
     534A      0.624723   535A      0.644244   536A      0.659946  
     537A      0.661199   538A      0.662549   539A      0.664322  
     540A      0.671194   541A      0.677881   542A      0.681773  
     543A      0.685751   544A      0.688104   545A      0.688932  
     546A      0.689169   547A      0.689792   548A      0.697798  
     549A      0.702275   550A      0.702341   551A      0.704667  
     552A      0.706840   553A      0.707461   554A      0.714166  
     555A      0.719891   556A      0.732680   557A      0.736254  
     558A      0.741961   559A      0.743678   560A      0.746804  
     561A      0.747859   562A      0.751135   563A      0.752925  
     564A      0.755313   565A      0.758752   566A      0.759728  
     567A      0.763460   568A      0.765612   569A      0.769766  
     570A      0.771706   571A      0.773400   572A      0.773817  
     573A      0.776097   574A      0.779927   575A      0.785648  
     576A      0.788557   577A      0.791546   578A      0.800137  
     579A      0.800638   580A      0.802567   581A      0.802844  
     582A      0.803987   583A      0.810058   584A      0.810257  
     585A      0.817315   586A      0.818741   587A      0.821569  
     588A      0.823162   589A      0.823209   590A      0.823599  
     591A      0.824325   592A      0.824432   593A      0.828713  
     594A      0.833293   595A      0.834632   596A      0.834919  
     597A      0.842610   598A      0.843533   599A      0.843847  
     600A      0.847426   601A      0.853331   602A      0.853644  
     603A      0.855079   604A      0.856448   605A      0.857105  
     606A      0.859009   607A      0.860420   608A      0.860845  
     609A      0.863710   610A      0.867602   611A      0.867781  
     612A      0.873537   613A      0.876873   614A      0.877301  
     615A      0.877891   616A      0.881295   617A      0.881556  
     618A      0.886091   619A      0.887744   620A      0.890608  
     621A      0.890898   622A      0.894057   623A      0.901975  
     624A      0.902676   625A      0.902840   626A      0.911872  
     627A      0.915679   628A      0.915747   629A      0.916708  
     630A      0.917162   631A      0.918544   632A      0.918672  
     633A      0.922145   634A      0.924193   635A      0.925987  
     636A      0.932949   637A      0.933050   638A      0.938925  
     639A      0.943353   640A      0.943571   641A      0.950330  
     642A      0.954338   643A      0.960605   644A      0.961292  
     645A      0.961453   646A      0.963954   647A      0.964218  
     648A      0.964836   649A      0.975677   650A      0.976712  
     651A      0.977464   652A      0.979465   653A      0.980552  
     654A      0.982353   655A      0.983309   656A      0.984749  
     657A      0.985520   658A      0.986397   659A      0.988312  
     660A      0.989730   661A      0.990170   662A      0.990603  
     663A      0.991743   664A      0.992088   665A      0.994131  
     666A      0.999548   667A      1.000904   668A      1.004733  
     669A      1.005935   670A      1.006347   671A      1.006457  
     672A      1.010507   673A      1.014745   674A      1.016105  
     675A      1.017369   676A      1.017787   677A      1.022656  
     678A      1.027446   679A      1.027885   680A      1.029072  
     681A      1.029301   682A      1.029893   683A      1.033519  
     684A      1.037890   685A      1.038600   686A      1.041297  
     687A      1.045426   688A      1.049308   689A      1.049344  
     690A      1.051036   691A      1.054753   692A      1.061078  
     693A      1.061272   694A      1.061353   695A      1.062203  
     696A      1.065052   697A      1.066254   698A      1.070736  
     699A      1.070854   700A      1.075664   701A      1.078346  
     702A      1.079472   703A      1.079646   704A      1.085306  
     705A      1.085388   706A      1.086069   707A      1.088566  
     708A      1.089288   709A      1.099096   710A      1.109824  
     711A      1.112238   712A      1.113109   713A      1.118764  
     714A      1.122034   715A      1.122278   716A      1.127678  
     717A      1.127770   718A      1.129041   719A      1.135009  
     720A      1.138571   721A      1.141259   722A      1.141865  
     723A      1.144305   724A      1.144400   725A      1.149726  
     726A      1.155722   727A      1.161347   728A      1.162980  
     729A      1.163051   730A      1.165645   731A      1.168009  
     732A      1.168056   733A      1.171372   734A      1.184022  
     735A      1.184753   736A      1.185167   737A      1.202774  
     738A      1.204370   739A      1.207539   740A      1.207705  
     741A      1.207881   742A      1.208038   743A      1.211446  
     744A      1.211653   745A      1.213830   746A      1.222618  
     747A      1.223599   748A      1.239360   749A      1.239908  
     750A      1.242072   751A      1.243434   752A      1.243815  
     753A      1.244733   754A      1.253841   755A      1.254572  
     756A      1.254926   757A      1.254949   758A      1.264527  
     759A      1.264860   760A      1.266920   761A      1.267728  
     762A      1.274469   763A      1.274577   764A      1.277751  
     765A      1.283051   766A      1.285390   767A      1.287362  
     768A      1.288968   769A      1.290150   770A      1.293228  
     771A      1.295215   772A      1.298747   773A      1.298758  
     774A      1.303692   775A      1.303857   776A      1.305835  
     777A      1.306666   778A      1.311661   779A      1.313594  
     780A      1.325851   781A      1.330576   782A      1.336015  
     783A      1.342142   784A      1.348372   785A      1.349365  
     786A      1.351860   787A      1.353286   788A      1.357579  
     789A      1.357936   790A      1.360762   791A      1.364114  
     792A      1.367935   793A      1.370769   794A      1.373031  
     795A      1.373520   796A      1.376414   797A      1.379559  
     798A      1.381749   799A      1.381923   800A      1.384257  
     801A      1.385496   802A      1.385585   803A      1.393267  
     804A      1.394010   805A      1.395166   806A      1.407392  
     807A      1.407675   808A      1.417500   809A      1.418533  
     810A      1.437345   811A      1.461323   812A      1.461973  
     813A      1.465277   814A      1.465362   815A      1.475382  
     816A      1.476470   817A      1.488988   818A      1.496337  
     819A      1.512808   820A      1.518517   821A      1.527925  
     822A      1.541736   823A      1.543506   824A      1.544050  
     825A      1.552055   826A      1.552139   827A      1.553159  
     828A      1.555597   829A      1.555757   830A      1.559481  
     831A      1.565861   832A      1.566155   833A      1.572690  
     834A      1.573754   835A      1.574814   836A      1.584384  
     837A      1.584408   838A      1.587244   839A      1.587491  
     840A      1.587536   841A      1.587638   842A      1.594333  
     843A      1.605468   844A      1.605554   845A      1.611905  
     846A      1.616842   847A      1.619600   848A      1.619661  
     849A      1.620868   850A      1.621552   851A      1.621655  
     852A      1.627319   853A      1.630310   854A      1.630778  
     855A      1.630836   856A      1.640637   857A      1.642181  
     858A      1.644031   859A      1.644202   860A      1.644710  
     861A      1.648099   862A      1.648212   863A      1.660656  
     864A      1.660746   865A      1.674133   866A      1.681482  
     867A      1.686007   868A      1.691996   869A      1.695316  
     870A      1.697001   871A      1.705712   872A      1.705924  
     873A      1.706469   874A      1.707071   875A      1.721323  
     876A      1.721340   877A      1.736080   878A      1.736191  
     879A      1.740628   880A      1.757362   881A      1.760569  
     882A      1.761156   883A      1.761701   884A      1.761892  
     885A      1.763315   886A      1.768415   887A      1.768568  
     888A      1.769296   889A      1.775463   890A      1.775604  
     891A      1.781859   892A      1.786307   893A      1.786566  
     894A      1.787689   895A      1.805597   896A      1.805695  
     897A      1.806168   898A      1.806364   899A      1.809079  
     900A      1.813528   901A      1.815759   902A      1.816766  
     903A      1.822416   904A      1.824105   905A      1.824175  
     906A      1.827304   907A      1.840665   908A      1.840721  
     909A      1.845108   910A      1.848581   911A      1.848674  
     912A      1.852477   913A      1.852749   914A      1.853808  
     915A      1.858969   916A      1.859819   917A      1.861996  
     918A      1.862127   919A      1.863423   920A      1.866316  
     921A      1.866476   922A      1.869466   923A      1.879339  
     924A      1.885617   925A      1.886689   926A      1.887033  
     927A      1.887258   928A      1.892548   929A      1.892812  
     930A      1.897962   931A      1.898548   932A      1.898915  
     933A      1.899246   934A      1.902374   935A      1.904020  
     936A      1.906460   937A      1.916255   938A      1.926907  
     939A      1.926939   940A      1.934592   941A      1.941722  
     942A      1.943530   943A      1.943717   944A      1.949430  
     945A      1.953906   946A      1.955672   947A      1.957523  
     948A      1.958235   949A      1.971815   950A      1.972530  
     951A      1.974549   952A      1.974656   953A      1.975209  
     954A      1.975473   955A      1.975804   956A      1.976240  
     957A      1.992832   958A      1.996558   959A      1.996975  
     960A      2.001863   961A      2.002677   962A      2.005041  
     963A      2.005512   964A      2.012177   965A      2.014052  
     966A      2.014604   967A      2.015976   968A      2.016640  
     969A      2.020833   970A      2.021204   971A      2.025486  
     972A      2.028607   973A      2.028989   974A      2.038033  
     975A      2.039246   976A      2.041285   977A      2.041857  
     978A      2.045142   979A      2.045323   980A      2.048928  
     981A      2.051888   982A      2.053026   983A      2.053071  
     984A      2.053903   985A      2.054231   986A      2.055666  
     987A      2.059394   988A      2.064250   989A      2.064297  
     990A      2.064685   991A      2.065028   992A      2.071092  
     993A      2.071252   994A      2.077470   995A      2.078417  
     996A      2.079162   997A      2.081050   998A      2.081251  
     999A      2.088132  1000A      2.088157  1001A      2.094590  
    1002A      2.100528  1003A      2.103493  1004A      2.103719  
    1005A      2.107110  1006A      2.107337  1007A      2.114881  
    1008A      2.123166  1009A      2.123262  1010A      2.136079  
    1011A      2.136466  1012A      2.136561  1013A      2.139000  
    1014A      2.139118  1015A      2.139801  1016A      2.141869  
    1017A      2.145633  1018A      2.149872  1019A      2.164013  
    1020A      2.164104  1021A      2.164300  1022A      2.166516  
    1023A      2.171271  1024A      2.172589  1025A      2.172804  
    1026A      2.173412  1027A      2.189181  1028A      2.189612  
    1029A      2.189787  1030A      2.190088  1031A      2.192813  
    1032A      2.205756  1033A      2.205830  1034A      2.209431  
    1035A      2.215012  1036A      2.215029  1037A      2.217321  
    1038A      2.217353  1039A      2.227144  1040A      2.232439  
    1041A      2.245475  1042A      2.251709  1043A      2.254451  
    1044A      2.255911  1045A      2.256764  1046A      2.264234  
    1047A      2.266336  1048A      2.274361  1049A      2.274458  
    1050A      2.275021  1051A      2.277753  1052A      2.294793  
    1053A      2.295408  1054A      2.297033  1055A      2.297077  
    1056A      2.304528  1057A      2.310295  1058A      2.310410  
    1059A      2.317833  1060A      2.324183  1061A      2.329127  
    1062A      2.340987  1063A      2.361034  1064A      2.368365  
    1065A      2.368969  1066A      2.369053  1067A      2.381523  
    1068A      2.385300  1069A      2.385374  1070A      2.414293  
    1071A      2.417741  1072A      2.417979  1073A      2.430243  
    1074A      2.430353  1075A      2.446634  1076A      2.446883  
    1077A      2.464263  1078A      2.466929  1079A      2.474266  
    1080A      2.474502  1081A      2.488876  1082A      2.490547  
    1083A      2.490683  1084A      2.498472  1085A      2.500225  
    1086A      2.500235  1087A      2.504417  1088A      2.504467  
    1089A      2.506649  1090A      2.517366  1091A      2.517403  
    1092A      2.520440  1093A      2.520953  1094A      2.531206  
    1095A      2.531285  1096A      2.531549  1097A      2.534522  
    1098A      2.537363  1099A      2.551362  1100A      2.568739  
    1101A      2.568784  1102A      2.569705  1103A      2.575478  
    1104A      2.576083  1105A      2.580016  1106A      2.586433  
    1107A      2.586545  1108A      2.596279  1109A      2.596646  
    1110A      2.601867  1111A      2.611019  1112A      2.626195  
    1113A      2.627252  1114A      2.628933  1115A      2.632610  
    1116A      2.641742  1117A      2.645831  1118A      2.645961  
    1119A      2.656976  1120A      2.657078  1121A      2.662815  
    1122A      2.662947  1123A      2.667354  1124A      2.667453  
    1125A      2.668083  1126A      2.678843  1127A      2.681752  
    1128A      2.684433  1129A      2.693763  1130A      2.697364  
    1131A      2.697879  1132A      2.712384  1133A      2.721296  
    1134A      2.738675  1135A      2.738808  1136A      2.743802  
    1137A      2.753453  1138A      2.760363  1139A      2.770943  
    1140A      2.772480  1141A      2.792015  1142A      2.796027  
    1143A      2.796712  1144A      2.799339  1145A      2.801671  
    1146A      2.803646  1147A      2.803818  1148A      2.812165  
    1149A      2.862367  1150A      2.862527  1151A      2.868883  
    1152A      2.878763  1153A      2.878910  1154A      2.894471  
    1155A      2.894503  1156A      2.908051  1157A      2.926913  
    1158A      2.951326  1159A      2.951743  1160A      2.957625  
    1161A      2.974829  1162A      2.982783  1163A      3.008009  
    1164A      3.008049  1165A      3.014921  1166A      3.015096  
    1167A      3.051273  1168A      3.054503  1169A      3.055286  
    1170A      3.069804  1171A      3.073353  1172A      3.074560  
    1173A      3.074713  1174A      3.082431  1175A      3.091197  
    1176A      3.091486  1177A      3.091564  1178A      3.094305  
    1179A      3.094375  1180A      3.102774  1181A      3.103333  
    1182A      3.110740  1183A      3.111305  1184A      3.137176  
    1185A      3.156644  1186A      3.162596  1187A      3.182127  
    1188A      3.216388  1189A      3.221324  1190A      3.221409  
    1191A      3.226124  1192A      3.226409  1193A      3.360242  
    1194A      3.360779  1195A      3.384437  1196A      3.425035  
    1197A      3.427575  1198A      3.445464  1199A      3.492504  
    1200A      3.520446  1201A      3.522325  1202A      3.534722  
    1203A      3.537186  1204A      3.570793  1205A      3.572806  
    1206A      3.607217  1207A      3.612231  1208A      3.713268  
    1209A      3.726403  1210A      3.727296  1211A      3.815659  
    1212A      3.815755  1213A      3.857647  1214A      3.857844  
    1215A      3.920708  1216A      3.954585  1217A      3.975349  
    1218A      3.987144  1219A      4.023312  

    Final Occupation by Irrep:
              A 
    DOCC [   197 ]
    NA   [   197 ]
    NB   [   197 ]

  @DF-RHF Final Energy: -2359.19680466764748

   => Energetics <=

    Nuclear Repulsion Energy =           7840.0665580589584351
    One-Electron Energy =              -18786.2465483076412056
    Two-Electron Energy =                8586.9831855810352863
    Total Energy =                      -2359.1968046676465747

Computation Completed


Properties will be evaluated at   0.000000,   0.000000,   0.000000 [a0]

Properties computed using the SCF density matrix


 Multipole Moments:

 ------------------------------------------------------------------------------------
     Multipole            Electronic (a.u.)      Nuclear  (a.u.)        Total (a.u.)
 ------------------------------------------------------------------------------------

 L = 1.  Multiply by 2.5417464519 to convert [e a0] to [Debye]
 Dipole X            :          0.0025619            0.0006313            0.0031932
 Dipole Y            :         -1.5027961            1.8864948            0.3836987
 Dipole Z            :        -27.0580081           38.5178654           11.4598573
 Magnitude           :                                                   11.4662794

 ------------------------------------------------------------------------------------

*** tstop() called on d-6-11-4 at Mon Jan 22 17:19:48 2024
Module time:
	user time   =    3972.54 seconds =      66.21 minutes
	system time =      73.90 seconds =       1.23 minutes
	total time  =        447 seconds =       7.45 minutes
Total time:
	user time   =    3972.54 seconds =      66.21 minutes
	system time =      73.90 seconds =       1.23 minutes
	total time  =        447 seconds =       7.45 minutes

  //>>>>>>>>>>>>>>>>>>>>>>>>>>>>>>>>>>>//
  //            Monomer A HF           //
  //<<<<<<<<<<<<<<<<<<<<<<<<<<<<<<<<<<<//

   => Libint2 <=

    Primary   basis highest AM E, G, H:  7, 7, 4
    Auxiliary basis highest AM E, G, H:  7, 7, 5
    Onebody   basis highest AM E, G, H:  7, 7, 5
    Solid Harmonics ordering:            gaussian

*** tstart() called on d-6-11-4
*** at Mon Jan 22 17:19:48 2024

   => Loading Basis Set <=

    Name: JUN-CC-PVDZ
    Role: ORBITAL
    Keyword: BASIS
    atoms 1-2, 4-5, 10, 17-70 entry C          line   164 file /home/gridsan/tfroembgen/.conda/envs/psi4test/share/psi4/basis/jun-cc-pvdz.gbs 
    atoms 3, 6                entry N          line   198 file /home/gridsan/tfroembgen/.conda/envs/psi4test/share/psi4/basis/jun-cc-pvdz.gbs 
    atoms 7-9, 11-16, 71-88   entry H          line    36 file /home/gridsan/tfroembgen/.conda/envs/psi4test/share/psi4/basis/jun-cc-pvdz.gbs 


         ---------------------------------------------------------
                                   SCF
               by Justin Turney, Rob Parrish, Andy Simmonett
                          and Daniel G. A. Smith
                              RHF Reference
                       12 Threads,  30517 MiB Core
         ---------------------------------------------------------

  ==> Geometry <==

    Molecular point group: c1
    Full point group: C1

    Geometry (in Angstrom), charge = 1, multiplicity = 1:

       Center              X                  Y                   Z               Mass       
    ------------   -----------------  -----------------  -----------------  -----------------
         C            0.680066520158    -1.215933861162     6.466809585194    12.000000000000
         C           -0.680504479842    -1.215549861162     6.464781585194    12.000000000000
         N           -1.085635479842     0.102774138838     6.463783585194    14.003074004430
         C            0.000107520158     0.884175138838     6.460507585194    12.000000000000
         C           -2.477365479842     0.570753138838     6.414377585194    12.000000000000
         N            1.085221520158     0.102774138838     6.463783585194    14.003074004430
         H            1.385145520158    -2.033372861162     6.474637585194     1.007825032230
         H           -1.385302479842    -2.033218861162     6.464971585194     1.007825032230
         H           -0.000009479842     1.965264138838     6.458760585194     1.007825032230
         C            2.478116520158     0.567872138838     6.480675585194    12.000000000000
         H            2.490591520158     1.658125138838     6.453330585194     1.007825032230
         H            2.967027520158     0.220696138838     7.394121585194     1.007825032230
         H            3.001427520158     0.176400138838     5.605192585194     1.007825032230
         H           -2.857359479842     0.490794138838     5.392306585194     1.007825032230
         H           -3.082679479842    -0.042310861162     7.084461585194     1.007825032230
         H           -2.518128479842     1.610701138838     6.741361585194     1.007825032230
      Gh(C)           1.225311895423     0.707533799757    -0.935094787523    12.000000000000
      Gh(C)           1.225323856051    -0.707543383733    -0.947425597093    12.000000000000
      Gh(C)          -0.000006153932     1.414961424928    -0.947959220614    12.000000000000
      Gh(C)           2.456448753949     1.418323398016    -0.932207930123    12.000000000000
      Gh(C)           0.000010827279    -1.414980987797    -0.937759663289    12.000000000000
      Gh(C)          -1.225300948908     0.707540884822    -0.932843267200    12.000000000000
      Gh(C)           2.456437755320    -1.418327793043    -0.949670753950    12.000000000000
      Gh(C)          -0.000001332978     2.836796542119    -0.950362770748    12.000000000000
      Gh(C)           3.681826697470     0.709313466839    -0.949321964152    12.000000000000
      Gh(C)           2.455120048865     2.834219172327    -0.949424521113    12.000000000000
      Gh(C)           3.681821105219    -0.709338328591    -0.933249480134    12.000000000000
      Gh(C)          -1.225313598688    -0.707532004706    -0.946352835666    12.000000000000
      Gh(C)           1.226699581202     3.543464994832    -0.933065448203    12.000000000000
      Gh(C)           0.000004784858    -2.836786628398    -0.932911495668    12.000000000000
      Gh(C)          -2.456436032848     1.418312429123    -0.932807871354    12.000000000000
      Gh(C)           2.455123417779    -2.834234517751    -0.933401388501    12.000000000000
      Gh(C)          -1.226714364589     3.543464574588    -0.932962114984    12.000000000000
      Gh(C)           4.914517295202     1.427168383327    -0.942841281122    12.000000000000
      Gh(C)           3.693150191476     3.542790803383    -0.942791481486    12.000000000000
      Gh(C)          -2.456437600068    -1.418317770001    -0.949695792075    12.000000000000
      Gh(C)           1.226704841943    -3.543478731069    -0.949035578953    12.000000000000
      Gh(C)          -2.455125398508     2.834212173472    -0.949418144766    12.000000000000
      Gh(C)           4.914524380782    -1.427191399106    -0.939868538388    12.000000000000
      Gh(C)           1.221424613699     4.970129576098    -0.939730104128    12.000000000000
      Gh(C)           4.893008229321     2.825183510864    -0.941624612764    12.000000000000
      Gh(C)          -1.226697008489    -3.543475486239    -0.948768374543    12.000000000000
      Gh(C)          -3.681818976526     0.709320477570    -0.949309283672    12.000000000000
      Gh(C)           3.693147101150    -3.542805830553    -0.939750647827    12.000000000000
      Gh(C)          -1.221432251994     4.970123808701    -0.939546608756    12.000000000000
      Gh(C)           6.134770972926     0.680543457943    -0.942071506573    12.000000000000
      Gh(C)           3.656788880610     4.972948754405    -0.941882843704    12.000000000000
      Gh(C)          -2.455126907733    -2.834219582223    -0.933645746299    12.000000000000
      Gh(C)          -3.681819179061    -0.709330192631    -0.933131858555    12.000000000000
      Gh(C)           4.893012617914    -2.825204594794    -0.941013460868    12.000000000000
      Gh(C)          -0.000001073113     5.650442876870    -0.940777917462    12.000000000000
      Gh(C)           6.134775112332    -0.680559343237    -0.940806186057    12.000000000000
      Gh(C)           2.478131482856     5.653572262169    -0.940594064054    12.000000000000
      Gh(C)           1.221422404738    -4.970131544095    -0.942529601151    12.000000000000
      Gh(C)          -3.693162383965     3.542792465030    -0.942625974027    12.000000000000
      Gh(C)          -1.221428520945    -4.970122792758    -0.942642362984    12.000000000000
      Gh(C)          -4.914521807942     1.427170957833    -0.942764336115    12.000000000000
      Gh(C)           3.656787019679    -4.972959715401    -0.940432343170    12.000000000000
      Gh(C)          -2.478138530106     5.653569933366    -0.940309539045    12.000000000000
      Gh(C)          -3.693141738564    -3.542794708141    -0.939866773983    12.000000000000
      Gh(C)          -4.914512483053    -1.427185489190    -0.939833841214    12.000000000000
      Gh(C)          -0.000006008926    -5.650442776176    -0.941173421584    12.000000000000
      Gh(C)          -4.893020484101     2.825184109757    -0.941634694624    12.000000000000
      Gh(C)           2.478125993298    -5.653578033051    -0.941522943962    12.000000000000
      Gh(C)          -3.656798710258     4.972951692879    -0.941706163329    12.000000000000
      Gh(C)          -4.892999478856    -2.825196256222    -0.941167496566    12.000000000000
      Gh(C)          -2.478128498083    -5.653570659169    -0.941798131609    12.000000000000
      Gh(C)          -6.134770503331     0.680544277094    -0.942097058275    12.000000000000
      Gh(C)          -3.656788833189    -4.972948512133    -0.940646630986    12.000000000000
      Gh(C)          -6.134765042913    -0.680558404644    -0.940826661852    12.000000000000
      Gh(H)           5.835288495816     3.369271405792    -0.937265287101     1.007825032230
      Gh(H)           7.073859172747     1.228212759737    -0.941609863179     1.007825032230
      Gh(H)           4.600663264174     5.512376313291    -0.941377642952     1.007825032230
      Gh(H)           5.835283387305    -3.369310545891    -0.945467928183     1.007825032230
      Gh(H)          -0.000012151306     6.738526184974    -0.945127162470     1.007825032230
      Gh(H)           7.073861171831    -1.228231431906    -0.941314924151     1.007825032230
      Gh(H)           2.473313731799     6.740679802232    -0.941060784984     1.007825032230
      Gh(H)           4.600668491381    -5.512380618338    -0.940842340338     1.007825032230
      Gh(H)          -2.473318680537     6.740677230444    -0.940759438359     1.007825032230
      Gh(H)          -0.000010268228    -6.738532665614    -0.936643736599     1.007825032230
      Gh(H)          -5.835301914343     3.369266461134    -0.937129264953     1.007825032230
      Gh(H)           2.473307923831    -6.740689863591    -0.940952613537     1.007825032230
      Gh(H)          -4.600674841208     5.512373537441    -0.941212314628     1.007825032230
      Gh(H)          -5.835279506835    -3.369293452942    -0.945747234064     1.007825032230
      Gh(H)          -2.473300347440    -6.740683567302    -0.941401930081     1.007825032230
      Gh(H)          -7.073857766768     1.228215983678    -0.941693854660     1.007825032230
      Gh(H)          -4.600673786085    -5.512367158949    -0.941014648361     1.007825032230
      Gh(H)          -7.073856934409    -1.228225121139    -0.941409780618     1.007825032230

  Running in c1 symmetry.

  Rotational constants: A =      0.00137  B =      0.00135  C =      0.00109 [cm^-1]
  Rotational constants: A =     41.03443  B =     40.47037  C =     32.56832 [MHz]
  Nuclear repulsion =  306.774908447733026

  Charge       = 1
  Multiplicity = 1
  Electrons    = 52
  Nalpha       = 26
  Nbeta        = 26

  ==> Algorithm <==

  SCF Algorithm Type is DF.
  DIIS enabled.
  MOM disabled.
  Fractional occupation disabled.
  Guess Type is SAD.
  Energy threshold   = 1.00e-08
  Density threshold  = 1.00e-08
  Integral threshold = 1.00e-12

  ==> Primary Basis <==

  Basis Set: JUN-CC-PVDZ
    Blend: JUN-CC-PVDZ
    Number of shells: 569
    Number of basis functions: 1233
    Number of Cartesian functions: 1294
    Spherical Harmonics?: true
    Max angular momentum: 2

   => Loading Basis Set <=

    Name: (JUN-CC-PVDZ AUX)
    Role: JKFIT
    Keyword: DF_BASIS_SCF
    atoms 1-2, 4-5, 10, 17-70 entry C          line   146 file /home/gridsan/tfroembgen/.conda/envs/psi4test/share/psi4/basis/jun-cc-pvdz-jkfit.gbs 
    atoms 3, 6                entry N          line   202 file /home/gridsan/tfroembgen/.conda/envs/psi4test/share/psi4/basis/jun-cc-pvdz-jkfit.gbs 
    atoms 7-9, 11-16, 71-88   entry H          line    70 file /home/gridsan/tfroembgen/.conda/envs/psi4test/share/psi4/basis/jun-cc-pvdz-jkfit.gbs 

  ==> Integral Setup <==

  ==> DiskDFJK: Density-Fitted J/K Matrices <==

    J tasked:                  Yes
    K tasked:                  Yes
    wK tasked:                  No
    OpenMP threads:             12
    Integrals threads:          12
    Memory [MiB]:            22888
    Algorithm:                Core
    Integral Cache:           LOAD
    Schwarz Cutoff:          1E-12
    Fitting Condition:       1E-10

   => Auxiliary Basis Set <=

  Basis Set: (JUN-CC-PVDZ AUX)
    Blend: JUN-CC-PVDZ-JKFIT
    Number of shells: 1890
    Number of basis functions: 5440
    Number of Cartesian functions: 6226
    Spherical Harmonics?: true
    Max angular momentum: 3

  Minimum eigenvalue in the overlap matrix is 8.3955893059E-10.
  Reciprocal condition number of the overlap matrix is 3.7547880333E-11.
    Using canonical orthogonalization.
  Overall, 14 of 1233 possible MOs eliminated.


  ==> Pre-Iterations <==

  SCF Guess: Superposition of Atomic Densities via on-the-fly atomic UHF (no occupation information).

   -------------------------
    Irrep   Nso     Nmo    
   -------------------------
     A       1233    1219 
   -------------------------
    Total    1233    1219
   -------------------------

  ==> Iterations <==

                           Total Energy        Delta E     RMS |[F,P]|

   @DF-RHF iter SAD:  -303.36534017577958   -3.03365e+02   0.00000e+00 
   @DF-RHF iter   1:  -303.16942739138079    1.95913e-01   3.44031e-04 DIIS/ADIIS
   @DF-RHF iter   2:  -303.28375513677793   -1.14328e-01   1.15859e-04 DIIS/ADIIS
   @DF-RHF iter   3:  -303.29520114725665   -1.14460e-02   4.53187e-05 DIIS
   @DF-RHF iter   4:  -303.29710263606904   -1.90149e-03   9.88986e-06 DIIS
   @DF-RHF iter   5:  -303.29720810774609   -1.05472e-04   2.41187e-06 DIIS
   @DF-RHF iter   6:  -303.29721736582655   -9.25808e-06   6.54380e-07 DIIS
   @DF-RHF iter   7:  -303.29721843886040   -1.07303e-06   3.32239e-07 DIIS
   @DF-RHF iter   8:  -303.29721869133016   -2.52470e-07   1.33669e-07 DIIS
   @DF-RHF iter   9:  -303.29721873980935   -4.84792e-08   3.37542e-08 DIIS
   @DF-RHF iter  10:  -303.29721874264163   -2.83228e-09   1.26986e-08 DIIS
   @DF-RHF iter  11:  -303.29721874288975   -2.48122e-10   3.00031e-09 DIIS
  Energy and wave function converged.


  ==> Post-Iterations <==

    Orbital Energies [Eh]
    ---------------------

    Doubly Occupied:                                                      

       1A    -15.834673     2A    -15.834142     3A    -11.529553  
       4A    -11.459857     5A    -11.458302     6A    -11.449664  
       7A    -11.449551     8A     -1.578239     9A     -1.433823  
      10A     -1.238665    11A     -1.189307    12A     -1.118863  
      13A     -1.022533    14A     -0.996965    15A     -0.917044  
      16A     -0.850523    17A     -0.816256    18A     -0.813201  
      19A     -0.790129    20A     -0.786225    21A     -0.781773  
      22A     -0.729698    23A     -0.725778    24A     -0.717096  
      25A     -0.596301    26A     -0.523863  

    Virtual:                                                              

      27A     -0.073440    28A     -0.065482    29A     -0.057260  
      30A     -0.052269    31A     -0.038857    32A     -0.037740  
      33A     -0.031856    34A     -0.030018    35A     -0.029600  
      36A     -0.027946    37A     -0.024028    38A     -0.014998  
      39A     -0.013958    40A     -0.012554    41A     -0.008016  
      42A     -0.005770    43A     -0.003438    44A     -0.002868  
      45A     -0.002531    46A      0.002794    47A      0.004546  
      48A      0.009065    49A      0.012173    50A      0.017053  
      51A      0.018242    52A      0.018683    53A      0.019296  
      54A      0.021683    55A      0.024836    56A      0.026540  
      57A      0.028963    58A      0.029761    59A      0.034131  
      60A      0.036334    61A      0.039965    62A      0.040048  
      63A      0.040680    64A      0.047505    65A      0.049388  
      66A      0.050485    67A      0.052750    68A      0.054528  
      69A      0.055256    70A      0.056020    71A      0.058477  
      72A      0.062981    73A      0.064591    74A      0.066065  
      75A      0.067844    76A      0.069041    77A      0.071047  
      78A      0.071569    79A      0.074088    80A      0.075652  
      81A      0.077316    82A      0.078485    83A      0.079297  
      84A      0.082285    85A      0.083546    86A      0.084696  
      87A      0.084837    88A      0.085775    89A      0.087913  
      90A      0.091493    91A      0.091502    92A      0.094766  
      93A      0.094805    94A      0.096569    95A      0.098331  
      96A      0.099775    97A      0.100716    98A      0.101434  
      99A      0.102176   100A      0.103407   101A      0.104088  
     102A      0.106461   103A      0.114377   104A      0.116844  
     105A      0.117807   106A      0.117923   107A      0.120323  
     108A      0.121305   109A      0.121376   110A      0.121444  
     111A      0.121849   112A      0.125795   113A      0.126082  
     114A      0.127118   115A      0.127315   116A      0.129794  
     117A      0.132967   118A      0.133178   119A      0.135262  
     120A      0.136857   121A      0.139658   122A      0.142182  
     123A      0.142723   124A      0.144032   125A      0.147791  
     126A      0.149063   127A      0.149256   128A      0.149584  
     129A      0.149989   130A      0.151412   131A      0.153206  
     132A      0.155405   133A      0.156032   134A      0.157265  
     135A      0.159187   136A      0.163915   137A      0.167279  
     138A      0.167326   139A      0.168151   140A      0.170169  
     141A      0.170268   142A      0.171960   143A      0.172627  
     144A      0.172928   145A      0.175707   146A      0.176558  
     147A      0.180797   148A      0.181555   149A      0.182282  
     150A      0.185911   151A      0.186688   152A      0.186802  
     153A      0.187253   154A      0.188121   155A      0.188998  
     156A      0.189765   157A      0.193072   158A      0.193460  
     159A      0.197568   160A      0.198246   161A      0.198666  
     162A      0.199171   163A      0.200098   164A      0.202324  
     165A      0.208935   166A      0.210965   167A      0.215624  
     168A      0.215881   169A      0.216135   170A      0.220249  
     171A      0.221382   172A      0.223244   173A      0.223434  
     174A      0.223895   175A      0.223961   176A      0.225964  
     177A      0.227499   178A      0.228119   179A      0.230312  
     180A      0.231009   181A      0.231418   182A      0.233603  
     183A      0.233965   184A      0.234052   185A      0.238294  
     186A      0.239055   187A      0.242197   188A      0.244642  
     189A      0.245560   190A      0.248347   191A      0.248659  
     192A      0.250252   193A      0.256155   194A      0.256276  
     195A      0.260232   196A      0.260677   197A      0.264150  
     198A      0.266747   199A      0.270435   200A      0.270502  
     201A      0.272426   202A      0.274536   203A      0.275330  
     204A      0.276157   205A      0.278099   206A      0.279321  
     207A      0.282365   208A      0.289199   209A      0.289867  
     210A      0.292540   211A      0.292767   212A      0.293451  
     213A      0.297054   214A      0.297751   215A      0.299814  
     216A      0.300349   217A      0.301240   218A      0.301776  
     219A      0.306203   220A      0.307988   221A      0.309755  
     222A      0.310234   223A      0.312376   224A      0.314499  
     225A      0.316602   226A      0.317324   227A      0.319326  
     228A      0.320080   229A      0.322079   230A      0.323759  
     231A      0.325983   232A      0.326207   233A      0.329989  
     234A      0.333638   235A      0.336126   236A      0.340866  
     237A      0.344339   238A      0.345342   239A      0.349131  
     240A      0.349576   241A      0.351869   242A      0.353881  
     243A      0.354389   244A      0.358005   245A      0.363426  
     246A      0.363944   247A      0.369496   248A      0.370897  
     249A      0.371585   250A      0.374763   251A      0.375692  
     252A      0.375818   253A      0.375891   254A      0.376784  
     255A      0.378586   256A      0.379174   257A      0.379999  
     258A      0.388411   259A      0.390445   260A      0.390974  
     261A      0.392183   262A      0.393546   263A      0.394550  
     264A      0.397754   265A      0.399326   266A      0.399777  
     267A      0.400494   268A      0.401176   269A      0.402553  
     270A      0.405603   271A      0.410672   272A      0.412175  
     273A      0.412586   274A      0.413172   275A      0.415757  
     276A      0.417820   277A      0.418303   278A      0.418426  
     279A      0.421832   280A      0.422448   281A      0.426595  
     282A      0.428528   283A      0.429606   284A      0.431587  
     285A      0.431900   286A      0.436003   287A      0.437456  
     288A      0.437737   289A      0.438033   290A      0.441323  
     291A      0.441855   292A      0.444577   293A      0.450345  
     294A      0.451976   295A      0.454541   296A      0.455330  
     297A      0.457629   298A      0.461961   299A      0.462042  
     300A      0.468020   301A      0.471012   302A      0.471942  
     303A      0.472820   304A      0.473400   305A      0.474873  
     306A      0.475774   307A      0.477411   308A      0.478009  
     309A      0.486546   310A      0.488104   311A      0.489389  
     312A      0.490368   313A      0.490522   314A      0.491142  
     315A      0.492480   316A      0.503908   317A      0.506925  
     318A      0.510605   319A      0.511103   320A      0.511650  
     321A      0.518091   322A      0.518260   323A      0.519814  
     324A      0.520453   325A      0.520679   326A      0.522291  
     327A      0.524913   328A      0.525002   329A      0.530461  
     330A      0.542246   331A      0.542575   332A      0.542644  
     333A      0.542837   334A      0.544420   335A      0.544520  
     336A      0.553832   337A      0.553857   338A      0.560721  
     339A      0.560796   340A      0.562571   341A      0.563531  
     342A      0.564079   343A      0.564981   344A      0.575947  
     345A      0.576236   346A      0.576660   347A      0.578790  
     348A      0.584108   349A      0.584305   350A      0.589262  
     351A      0.589719   352A      0.590084   353A      0.594150  
     354A      0.600970   355A      0.605148   356A      0.606865  
     357A      0.615253   358A      0.616671   359A      0.619827  
     360A      0.621668   361A      0.621724   362A      0.623118  
     363A      0.623271   364A      0.626530   365A      0.632760  
     366A      0.633422   367A      0.634543   368A      0.634773  
     369A      0.640908   370A      0.641069   371A      0.643924  
     372A      0.645650   373A      0.646948   374A      0.649817  
     375A      0.649944   376A      0.650698   377A      0.650859  
     378A      0.652358   379A      0.657955   380A      0.660449  
     381A      0.664503   382A      0.666987   383A      0.667482  
     384A      0.667650   385A      0.669020   386A      0.680463  
     387A      0.684131   388A      0.692085   389A      0.692475  
     390A      0.694694   391A      0.701346   392A      0.703409  
     393A      0.704551   394A      0.704712   395A      0.706590  
     396A      0.708275   397A      0.709492   398A      0.709837  
     399A      0.709973   400A      0.711331   401A      0.711635  
     402A      0.713584   403A      0.716859   404A      0.718621  
     405A      0.720487   406A      0.721216   407A      0.722849  
     408A      0.729612   409A      0.731171   410A      0.731246  
     411A      0.734297   412A      0.736231   413A      0.739129  
     414A      0.739485   415A      0.740362   416A      0.744442  
     417A      0.745285   418A      0.747165   419A      0.749980  
     420A      0.750202   421A      0.750698   422A      0.754249  
     423A      0.760499   424A      0.779597   425A      0.782208  
     426A      0.788680   427A      0.788820   428A      0.792772  
     429A      0.792789   430A      0.803587   431A      0.803689  
     432A      0.813046   433A      0.813788   434A      0.819137  
     435A      0.824453   436A      0.824528   437A      0.829787  
     438A      0.829853   439A      0.833473   440A      0.834405  
     441A      0.842211   442A      0.842257   443A      0.849161  
     444A      0.849368   445A      0.860645   446A      0.867812  
     447A      0.867873   448A      0.886267   449A      0.891488  
     450A      0.901931   451A      0.903464   452A      0.903593  
     453A      0.911941   454A      0.911976   455A      0.921162  
     456A      0.934053   457A      0.943238   458A      0.943331  
     459A      0.944945   460A      0.948972   461A      0.952813  
     462A      0.957447   463A      0.970955   464A      0.971014  
     465A      0.974538   466A      0.979233   467A      0.986180  
     468A      0.986380   469A      1.002497   470A      1.009051  
     471A      1.009079   472A      1.011533   473A      1.011637  
     474A      1.016877   475A      1.032573   476A      1.040715  
     477A      1.046179   478A      1.046390   479A      1.048832  
     480A      1.065721   481A      1.098053   482A      1.098068  
     483A      1.101230   484A      1.104529   485A      1.104675  
     486A      1.118111   487A      1.120110   488A      1.120845  
     489A      1.126014   490A      1.126317   491A      1.126424  
     492A      1.139488   493A      1.139917   494A      1.139932  
     495A      1.145284   496A      1.151254   497A      1.161709  
     498A      1.163340   499A      1.163395   500A      1.171379  
     501A      1.172688   502A      1.231040   503A      1.239067  
     504A      1.239085   505A      1.245528   506A      1.249321  
     507A      1.249449   508A      1.265128   509A      1.265305  
     510A      1.270421   511A      1.272456   512A      1.280494  
     513A      1.282689   514A      1.307267   515A      1.313726  
     516A      1.313795   517A      1.322170   518A      1.348149  
     519A      1.363955   520A      1.386011   521A      1.386464  
     522A      1.404559   523A      1.404901   524A      1.406364  
     525A      1.410031   526A      1.410280   527A      1.412746  
     528A      1.425675   529A      1.425900   530A      1.426578  
     531A      1.464034   532A      1.478563   533A      1.486772  
     534A      1.497941   535A      1.498253   536A      1.500459  
     537A      1.501680   538A      1.503165   539A      1.511774  
     540A      1.517610   541A      1.561937   542A      1.566792  
     543A      1.578625   544A      1.581408   545A      1.590420  
     546A      1.593804   547A      1.602428   548A      1.603951  
     549A      1.605832   550A      1.606419   551A      1.619735  
     552A      1.626283   553A      1.627240   554A      1.632380  
     555A      1.634770   556A      1.644546   557A      1.662341  
     558A      1.670415   559A      1.680868   560A      1.686160  
     561A      1.688766   562A      1.689872   563A      1.690959  
     564A      1.691446   565A      1.692807   566A      1.694765  
     567A      1.702567   568A      1.705157   569A      1.705576  
     570A      1.713307   571A      1.719223   572A      1.728467  
     573A      1.732211   574A      1.734994   575A      1.735654  
     576A      1.737875   577A      1.743118   578A      1.743823  
     579A      1.748288   580A      1.753578   581A      1.756013  
     582A      1.759331   583A      1.762290   584A      1.767813  
     585A      1.768989   586A      1.772668   587A      1.773281  
     588A      1.773484   589A      1.776375   590A      1.776651  
     591A      1.778236   592A      1.785203   593A      1.786487  
     594A      1.787409   595A      1.789139   596A      1.791786  
     597A      1.800359   598A      1.803901   599A      1.804269  
     600A      1.807206   601A      1.811618   602A      1.816591  
     603A      1.819417   604A      1.821214   605A      1.821859  
     606A      1.826488   607A      1.828337   608A      1.829883  
     609A      1.831899   610A      1.837919   611A      1.838949  
     612A      1.844587   613A      1.847637   614A      1.849611  
[...]
     793A      1.644097   794A      1.649914   795A      1.660995  
     796A      1.661155   797A      1.663147   798A      1.667461  
     799A      1.675756   800A      1.676384   801A      1.676671  
     802A      1.676799   803A      1.676853   804A      1.677045  
     805A      1.682906   806A      1.686644   807A      1.686710  
     808A      1.696057   809A      1.697314   810A      1.699269  
     811A      1.699306   812A      1.700761   813A      1.704754  
     814A      1.704833   815A      1.715797   816A      1.715810  
     817A      1.741698   818A      1.751409   819A      1.758165  
     820A      1.760310   821A      1.760334   822A      1.761072  
     823A      1.761740   824A      1.776726   825A      1.776753  
     826A      1.789177   827A      1.791524   828A      1.791591  
     829A      1.800320   830A      1.808068   831A      1.814040  
     832A      1.816606   833A      1.816841   834A      1.817125  
     835A      1.818265   836A      1.824659   837A      1.824784  
     838A      1.829777   839A      1.830920   840A      1.835747  
     841A      1.836769   842A      1.842411   843A      1.842875  
     844A      1.860578   845A      1.860967   846A      1.861099  
     847A      1.861140   848A      1.864117   849A      1.868138  
     850A      1.871870   851A      1.873619   852A      1.880193  
     853A      1.880263   854A      1.892240   855A      1.896188  
     856A      1.896243   857A      1.898224   858A      1.899538  
     859A      1.902967   860A      1.903123   861A      1.908709  
     862A      1.908840   863A      1.914301   864A      1.914640  
     865A      1.917699   866A      1.917829   867A      1.919195  
     868A      1.919877   869A      1.921992   870A      1.922118  
     871A      1.940536   872A      1.941782   873A      1.942018  
     874A      1.942261   875A      1.945252   876A      1.946646  
     877A      1.946761   878A      1.954122   879A      1.954645  
     880A      1.955015   881A      1.955250   882A      1.958021  
     883A      1.970386   884A      1.982793   885A      1.983221  
     886A      1.989507   887A      1.993712   888A      1.997126  
     889A      1.998639   890A      1.998733   891A      2.003960  
     892A      2.008237   893A      2.012495   894A      2.012811  
     895A      2.023779   896A      2.027834   897A      2.028211  
     898A      2.029874   899A      2.030025   900A      2.031027  
     901A      2.031330   902A      2.031381   903A      2.035449  
     904A      2.039996   905A      2.047908   906A      2.049705  
     907A      2.051875   908A      2.052323   909A      2.057432  
     910A      2.058224   911A      2.060487   912A      2.060736  
     913A      2.062142   914A      2.068568   915A      2.070634  
     916A      2.071580   917A      2.071964   918A      2.076660  
     919A      2.077388   920A      2.081201   921A      2.083443  
     922A      2.084481   923A      2.089407   924A      2.092646  
     925A      2.095000   926A      2.095480   927A      2.096238  
     928A      2.096873   929A      2.100575   930A      2.100642  
     931A      2.106658   932A      2.108327   933A      2.108527  
     934A      2.109736   935A      2.110303   936A      2.112032  
     937A      2.114111   938A      2.116265   939A      2.119254  
     940A      2.119451   941A      2.120593   942A      2.120919  
     943A      2.125993   944A      2.126327   945A      2.126794  
     946A      2.133680   947A      2.134580   948A      2.135667  
     949A      2.135975   950A      2.136129   951A      2.138418  
     952A      2.143196   953A      2.143258   954A      2.155455  
     955A      2.159495   956A      2.159740   957A      2.162765  
     958A      2.163073   959A      2.164491   960A      2.171415  
     961A      2.178490   962A      2.178596   963A      2.189543  
     964A      2.190372   965A      2.192082   966A      2.192513  
     967A      2.193809   968A      2.195820   969A      2.195967  
     970A      2.198685   971A      2.201594   972A      2.216616  
     973A      2.219665   974A      2.220301   975A      2.220383  
     976A      2.227846   977A      2.228135   978A      2.228700  
     979A      2.228905   980A      2.243325   981A      2.243654  
     982A      2.244075   983A      2.244511   984A      2.247155  
     985A      2.253834   986A      2.260118   987A      2.260247  
     988A      2.270168   989A      2.270175   990A      2.272032  
     991A      2.272053   992A      2.272744   993A      2.278543  
     994A      2.281070   995A      2.299025   996A      2.300373  
     997A      2.306670   998A      2.310425   999A      2.312301  
    1000A      2.314846  1001A      2.320807  1002A      2.322323  
    1003A      2.330969  1004A      2.331005  1005A      2.331126  
    1006A      2.333921  1007A      2.336237  1008A      2.341816  
    1009A      2.350852  1010A      2.351467  1011A      2.352451  
    1012A      2.352525  1013A      2.366319  1014A      2.366479  
    1015A      2.374636  1016A      2.379411  1017A      2.386402  
    1018A      2.415843  1019A      2.424002  1020A      2.424374  
    1021A      2.424402  1022A      2.436448  1023A      2.441078  
    1024A      2.441229  1025A      2.445834  1026A      2.449563  
    1027A      2.457962  1028A      2.470010  1029A      2.471836  
    1030A      2.472886  1031A      2.473298  1032A      2.479568  
    1033A      2.485567  1034A      2.485756  1035A      2.502287  
    1036A      2.507759  1037A      2.519312  1038A      2.529786  
    1039A      2.529896  1040A      2.543541  1041A      2.545416  
    1042A      2.545536  1043A      2.554440  1044A      2.554506  
    1045A      2.554796  1046A      2.559825  1047A      2.559837  
    1048A      2.572973  1049A      2.573007  1050A      2.574530  
    1051A      2.575214  1052A      2.577593  1053A      2.586220  
    1054A      2.586359  1055A      2.587271  1056A      2.589785  
    1057A      2.591409  1058A      2.606261  1059A      2.623433  
    1060A      2.623540  1061A      2.625012  1062A      2.631392  
    1063A      2.631942  1064A      2.635291  1065A      2.641182  
    1066A      2.641273  1067A      2.646335  1068A      2.650826  
    1069A      2.651202  1070A      2.653127  1071A      2.656854  
    1072A      2.663085  1073A      2.677428  1074A      2.682208  
    1075A      2.683219  1076A      2.683990  1077A      2.686833  
    1078A      2.702058  1079A      2.702388  1080A      2.713004  
    1081A      2.713014  1082A      2.718678  1083A      2.718708  
    1084A      2.722756  1085A      2.722989  1086A      2.736780  
    1087A      2.738615  1088A      2.749481  1089A      2.752407  
    1090A      2.752872  1091A      2.770596  1092A      2.777434  
    1093A      2.794556  1094A      2.794733  1095A      2.809617  
    1096A      2.816577  1097A      2.827118  1098A      2.827803  
    1099A      2.836367  1100A      2.851363  1101A      2.852196  
    1102A      2.856016  1103A      2.858312  1104A      2.859611  
    1105A      2.859728  1106A      2.867070  1107A      2.875131  
    1108A      2.892405  1109A      2.912378  1110A      2.917242  
    1111A      2.917404  1112A      2.923612  1113A      2.924457  
    1114A      2.933614  1115A      2.933750  1116A      2.946721  
    1117A      2.949656  1118A      2.949700  1119A      2.962870  
    1120A      2.972673  1121A      2.995465  1122A      3.007179  
    1123A      3.007329  1124A      3.011843  1125A      3.012067  
    1126A      3.029392  1127A      3.038927  1128A      3.064218  
    1129A      3.064241  1130A      3.070743  1131A      3.070757  
    1132A      3.109383  1133A      3.110229  1134A      3.127930  
    1135A      3.129572  1136A      3.129856  1137A      3.137447  
    1138A      3.144145  1139A      3.146312  1140A      3.146579  
    1141A      3.147549  1142A      3.149183  1143A      3.149439  
    1144A      3.157762  1145A      3.158284  1146A      3.165789  
    1147A      3.166304  1148A      3.191703  1149A      3.211153  
    1150A      3.218540  1151A      3.237370  1152A      3.272672  
    1153A      3.276953  1154A      3.277098  1155A      3.281748  
    1156A      3.281985  1157A      3.286991  1158A      3.303376  
    1159A      3.317443  1160A      3.392774  1161A      3.416405  
    1162A      3.416960  1163A      3.442841  1164A      3.481483  
    1165A      3.484050  1166A      3.523811  1167A      3.549179  
    1168A      3.569458  1169A      3.577177  1170A      3.579135  
    1171A      3.593825  1172A      3.626495  1173A      3.628482  
    1174A      3.644216  1175A      3.662856  1176A      3.667785  
    1177A      3.757220  1178A      3.769222  1179A      3.782716  
    1180A      3.783701  1181A      3.815695  1182A      3.867327  
    1183A      3.870780  1184A      3.870785  1185A      3.913103  
    1186A      3.913239  1187A      3.957450  1188A      3.976901  
    1189A      4.010861  1190A      4.032793  1191A      4.044633  
    1192A      4.080838  1193A      4.206008  1194A      4.207865  
    1195A      4.348088  1196A      4.364778  1197A      4.481793  
    1198A      4.734186  1199A      4.773260  1200A      4.828529  
    1201A      4.846211  1202A      4.935535  1203A      5.047976  
    1204A      5.055818  1205A      5.064781  1206A      5.109790  
    1207A      5.124516  1208A      5.389733  1209A      5.420988  
    1210A      5.732612  1211A      5.749679  1212A      6.066521  
    1213A     18.199934  1214A     18.452022  1215A     18.469797  
    1216A     18.557930  1217A     18.832119  1218A     25.340703  
    1219A     25.374711  

    Final Occupation by Irrep:
              A 
    DOCC [   171 ]
    NA   [   171 ]
    NB   [   171 ]

  @DF-RHF Final Energy: -2055.89171571258112

   => Energetics <=

    Nuclear Repulsion Energy =           6452.5568002797772351
    One-Electron Energy =              -15636.4281883836138149
    Two-Electron Energy =                7127.9796723912550078
    Total Energy =                      -2055.8917157125815720

Computation Completed


Properties will be evaluated at   0.000000,   0.000000,   0.000000 [a0]

Properties computed using the SCF density matrix


 Multipole Moments:

 ------------------------------------------------------------------------------------
     Multipole            Electronic (a.u.)      Nuclear  (a.u.)        Total (a.u.)
 ------------------------------------------------------------------------------------

 L = 1.  Multiply by 2.5417464519 to convert [e a0] to [Debye]
 Dipole X            :          0.0000964           -0.0000085            0.0000879
 Dipole Y            :          0.0028644           -0.0028843           -0.0000199
 Dipole Z            :        608.3051777         -608.3070906           -0.0019130
 Magnitude           :                                                    0.0019151

 ------------------------------------------------------------------------------------

*** tstop() called on d-6-11-4 at Mon Jan 22 17:34:23 2024
Module time:
	user time   =    2522.29 seconds =      42.04 minutes
	system time =      59.80 seconds =       1.00 minutes
	total time  =        667 seconds =      11.12 minutes
Total time:
	user time   =    7863.87 seconds =     131.06 minutes
	system time =     153.92 seconds =       2.57 minutes
	total time  =       1322 seconds =      22.03 minutes
  Constructing Basis Sets for SAPT...

   => Loading Basis Set <=

    Name: (JUN-CC-PVDZ AUX)
    Role: RIFIT
    Keyword: DF_BASIS_SAPT
    atoms 1-2, 4-5, 10, 17-70 entry C          line   100 file /home/gridsan/tfroembgen/.conda/envs/psi4test/share/psi4/basis/jun-cc-pvdz-ri.gbs 
    atoms 3, 6                entry N          line   144 file /home/gridsan/tfroembgen/.conda/envs/psi4test/share/psi4/basis/jun-cc-pvdz-ri.gbs 
    atoms 7-9, 11-16, 71-88   entry H          line    30 file /home/gridsan/tfroembgen/.conda/envs/psi4test/share/psi4/basis/jun-cc-pvdz-ri.gbs 

   => Loading Basis Set <=

    Name: (JUN-CC-PVDZ AUX)
    Role: JKFIT
    Keyword: DF_BASIS_ELST
    atoms 1-2, 4-5, 10, 17-70 entry C          line   146 file /home/gridsan/tfroembgen/.conda/envs/psi4test/share/psi4/basis/jun-cc-pvdz-jkfit.gbs 
    atoms 3, 6                entry N          line   202 file /home/gridsan/tfroembgen/.conda/envs/psi4test/share/psi4/basis/jun-cc-pvdz-jkfit.gbs 
    atoms 7-9, 11-16, 71-88   entry H          line    70 file /home/gridsan/tfroembgen/.conda/envs/psi4test/share/psi4/basis/jun-cc-pvdz-jkfit.gbs 


  //>>>>>>>>>>>>>>>>>>>>>>>>>>>>>>>>>>>//
  //               SSAPT0              //
  //<<<<<<<<<<<<<<<<<<<<<<<<<<<<<<<<<<<//


*** tstart() called on d-6-11-4
*** at Mon Jan 22 17:34:25 2024

        SAPT0  
    Ed Hohenstein
     6 June 2009

      Orbital Information
  --------------------------
    NSO        =      1233
    NMO        =      1219
    NRI        =      4343
    NRI (Elst) =      5440
    NOCC A     =        26
    NOCC B     =       171
    FOCC A     =         7
    FOCC B     =        54
    NVIR A     =      1193
    NVIR B     =      1048

    Elst10,r            =    -0.006287188162 [Eh]
    Exch10              =    -0.000000213019 [Eh]
    Exch10 (S^2)        =    -0.000000213019 [Eh]

    Iter     Energy [mEh]          dE [mEh]         Residual      Time [s]
       1      -0.01293181       0.012931815       0.993470579           437
       2      -0.01172462      -0.001207196       0.203925406           815
       3      -0.01263700       0.000912383       0.049847004          1113
       4      -0.01265833       0.000021327       0.015785461          1332
       5      -0.01263372      -0.000024613       0.004096716          1654
       6      -0.01263417       0.000000456       0.002269000          1945
       7      -0.01263543       0.000001260       0.000899370          2405
       8      -0.01263546       0.000000027       0.000328742          2863
       9      -0.01263534      -0.000000121       0.000089550          3160
      10      -0.01263532      -0.000000022       0.000019789          3456
      11      -0.01263533       0.000000008       0.000007107          3793
      12      -0.01263533       0.000000002       0.000002195          4184
      13      -0.01263533      -0.000000001       0.000000814          4593

    CHF Iterations converged


    Iter     Energy [mEh]          dE [mEh]         Residual      Time [s]
       1      -2.20240921       2.202409207      24.348831832           338
       2      -1.50837615      -0.694033059       2.961731332           572
       3      -1.51405730       0.005681150       1.133459003           607
       4      -1.55079023       0.036732936       0.257263520           631
       5      -1.55242977       0.001639539       0.070537154           685
       6      -1.55168796      -0.000741810       0.032552171           718
       7      -1.55144757      -0.000240395       0.014647885           741
       8      -1.55157274       0.000125176       0.010474088           773
       9      -1.55161655       0.000043805       0.006249981           919
      10      -1.55158413      -0.000032422       0.003827182          1021
      11      -1.55157224      -0.000011885       0.001784577          1117
      12      -1.55157655       0.000004311       0.000791088          1163
      13      -1.55157950       0.000002943       0.000317026          1214
      14      -1.55157921      -0.000000285       0.000151479          1241
      15      -1.55157865      -0.000000563       0.000086492          1283
      16      -1.55157850      -0.000000143       0.000040311          1325
      17      -1.55157871       0.000000209       0.000015418          1473
      18      -1.55157871       0.000000001       0.000006137          1559
      19      -1.55157869      -0.000000020       0.000003263          1583
      20      -1.55157869      -0.000000005       0.000001196          1661
      21      -1.55157869       0.000000005       0.000000528          1915

    CHF Iterations converged

    Ind20,r (A<-B)      =    -0.000012635326 [Eh]
    Ind20,r (B<-A)      =    -0.001551578694 [Eh]
    Ind20,r             =    -0.001564214020 [Eh]
    Exch-Ind20,r (A<-B) =     0.000000025295 [Eh]
    Exch-Ind20,r (B<-A) =     0.000000151557 [Eh]
    Exch-Ind20,r        =     0.000000176852 [Eh]
    Disp20              =    -0.000921637673 [Eh]
    Disp20 (SS)         =    -0.000460818837 [Eh]
    Disp20 (OS)         =    -0.000460818837 [Eh]
    Exch-Disp20         =     0.000000059271 [Eh]
    Exch-Disp20 (SS)    =     0.000000044715 [Eh]
    Exch-Disp20 (OS)    =     0.000000014556 [Eh]

    SAPT Results 
  --------------------------------------------------------------------------------------------------------
    Electrostatics                 -6.28718816 [mEh]      -3.94527014 [kcal/mol]     -16.50701025 [kJ/mol]
      Elst10,r                     -6.28718816 [mEh]      -3.94527014 [kcal/mol]     -16.50701025 [kJ/mol]

    Exchange                       -0.00021302 [mEh]      -0.00013367 [kcal/mol]      -0.00055928 [kJ/mol]
      Exch10                       -0.00021302 [mEh]      -0.00013367 [kcal/mol]      -0.00055928 [kJ/mol]
      Exch10(S^2)                  -0.00021302 [mEh]      -0.00013367 [kcal/mol]      -0.00055928 [kJ/mol]

    Induction                      -1.58281100 [mEh]      -0.99322889 [kcal/mol]      -4.15566970 [kJ/mol]
      Ind20,r                      -1.56421402 [mEh]      -0.98155912 [kcal/mol]      -4.10684334 [kJ/mol]
      Exch-Ind20,r                  0.00017685 [mEh]       0.00011098 [kcal/mol]       0.00046432 [kJ/mol]
      delta HF,r (2)               -0.01877383 [mEh]      -0.01178075 [kcal/mol]      -0.04929068 [kJ/mol]

    Dispersion                     -0.92157840 [mEh]      -0.57829918 [kcal/mol]      -2.41960376 [kJ/mol]
      Disp20                       -0.92163767 [mEh]      -0.57833637 [kcal/mol]      -2.41975938 [kJ/mol]
      Exch-Disp20                   0.00005927 [mEh]       0.00003719 [kcal/mol]       0.00015562 [kJ/mol]
      Disp20 (SS)                  -0.46081884 [mEh]      -0.28916819 [kcal/mol]      -1.20987969 [kJ/mol]
      Disp20 (OS)                  -0.46081884 [mEh]      -0.28916819 [kcal/mol]      -1.20987969 [kJ/mol]
      Exch-Disp20 (SS)              0.00004472 [mEh]       0.00002806 [kcal/mol]       0.00011740 [kJ/mol]
      Exch-Disp20 (OS)              0.00001456 [mEh]       0.00000913 [kcal/mol]       0.00003822 [kJ/mol]

  Total HF                         -7.87021218 [mEh]      -4.93863270 [kcal/mol]     -20.66323922 [kJ/mol]
  Total SAPT0                      -8.79179058 [mEh]      -5.51693188 [kcal/mol]     -23.08284298 [kJ/mol]

  Special recipe for scaled SAPT0 (see Manual):
    Electrostatics sSAPT0          -6.28718816 [mEh]      -3.94527014 [kcal/mol]     -16.50701025 [kJ/mol]
    Exchange sSAPT0                -0.00021302 [mEh]      -0.00013367 [kcal/mol]      -0.00055928 [kJ/mol]
    Induction sSAPT0               -1.58281100 [mEh]      -0.99322889 [kcal/mol]      -4.15566970 [kJ/mol]
    Dispersion sSAPT0              -0.92157840 [mEh]      -0.57829918 [kcal/mol]      -2.41960376 [kJ/mol]
  Total sSAPT0                     -8.79179058 [mEh]      -5.51693188 [kcal/mol]     -23.08284298 [kJ/mol]
  --------------------------------------------------------------------------------------------------------

*** tstop() called on d-6-11-4 at Mon Jan 22 20:14:06 2024
Module time:
	user time   =    9124.49 seconds =     152.07 minutes
	system time =    1154.23 seconds =      19.24 minutes
	total time  =       9581 seconds =     159.68 minutes
Total time:
	user time   =   16990.00 seconds =     283.17 minutes
	system time =    1308.15 seconds =      21.80 minutes
	total time  =      10905 seconds =     181.75 minutes

    Psi4 stopped on: Monday, 22 January 2024 08:14PM
    Psi4 wall time for execution: 3:01:47.14

*** Psi4 exiting successfully. Buy a developer a beer!
