
    -----------------------------------------------------------------------
          Psi4: An Open-Source Ab Initio Electronic Structure Package
                               Psi4 1.9 release

                         Git: Rev {} zzzzzzz 


    D. G. A. Smith, L. A. Burns, A. C. Simmonett, R. M. Parrish,
    M. C. Schieber, R. Galvelis, P. Kraus, H. Kruse, R. Di Remigio,
    A. Alenaizan, A. M. James, S. Lehtola, J. P. Misiewicz, M. Scheurer,
    R. A. Shaw, J. B. Schriber, Y. Xie, Z. L. Glick, D. A. Sirianni,
    J. S. O'Brien, J. M. Waldrop, A. Kumar, E. G. Hohenstein,
    B. P. Pritchard, B. R. Brooks, H. F. Schaefer III, A. Yu. Sokolov,
    K. Patkowski, A. E. DePrince III, U. Bozkaya, R. A. King,
    F. A. Evangelista, J. M. Turney, T. D. Crawford, C. D. Sherrill,
    J. Chem. Phys. 152(18) 184108 (2020). https://doi.org/10.1063/5.0006002

                            Additional Code Authors
    E. T. Seidl, C. L. Janssen, E. F. Valeev, M. L. Leininger,
    J. F. Gonthier, R. M. Richard, H. R. McAlexander, M. Saitow, X. Wang,
    P. Verma, M. H. Lechner, A. Jiang, S. Behnle, A. G. Heide,
    M. F. Herbst, and D. L. Poole

             Previous Authors, Complete List of Code Contributors,
                       and Citations for Specific Modules
    https://github.com/psi4/psi4/blob/master/codemeta.json
    https://github.com/psi4/psi4/graphs/contributors
    http://psicode.org/psi4manual/master/introduction.html#citing-psifour

    -----------------------------------------------------------------------


    Psi4 started on: Wednesday, 07 February 2024 12:24AM

    Process ID: 3799135
    Host:       n2cn0236
    PSIDATADIR: /opt/software/pc2/EB-SW/software/PSI4/1.9-foss-2022a/share/psi4
    Memory:     500.0 MiB
    Threads:    16
    
  ==> Input File <==

--------------------------------------------------------------------------
memory 32 GB # how much memory is available ! Depends on the nodes/cores !

molecule dimer {
# monomer A
-1 1    # Charge and multiplicity
B -1.977592e-04  2.742729e-04 3.300034
F  1.123153e-16  1.430594e-17 4.712819
F  1.147860e+00  6.757812e-01 2.828893
F  1.191806e-02 -1.332011e+00 2.829095
F -1.159666e+00  6.560735e-01 2.829174
--
# monomer B
0 1     # Charge and multiplicity
C   1.22531237526482      0.70753866091955      0.00613762728373
C   1.22532433589282     -0.70753852257020     -0.00619318228664
C   -0.00000567409046      1.41496628609039     -0.00672680580738
C   2.45644923379077      1.41832825917820      0.00902448468363
C   0.00001130712078     -1.41497612663474      0.00347275151708
C   -1.22530046906674      0.70754574598412      0.00838914760619
C   2.45643823516184     -1.41832293188077     -0.00843833914343
C   -0.00000085313587      2.83680140328112     -0.00913035594137
C   3.68182717731192      0.70931832800114     -0.00808954934571
C   2.45512052870677      2.83422403348893     -0.00819210630633
C   3.68182158506039     -0.70933346742900      0.00798293467272
C   -1.22531311884624     -0.70752714354401     -0.00512042085974
C   1.22670006104402      3.54346985599427      0.00816696660346
C   0.00000526469929     -2.83678176723568      0.00832091913869
C   -2.45643555300670      1.41831729028492      0.00842454345199
C   2.45512389762097     -2.83422965658853      0.00783102630520
C   -1.22671388474763      3.54346943575023      0.00827029982280
C   4.91451777504333      1.42717324448953     -0.00160886631602
C   3.69315067131765      3.54279566454522     -0.00155906667985
C   -2.45643712022637     -1.41831290883911     -0.00846337726810
C   1.22670532178455     -3.54347386990643     -0.00780316414624
C   -2.45512491866593      2.83421703463423     -0.00818572995999
C   4.91452486062398     -1.42718653794377      0.00136387641845
C   1.22142509354026      4.97013443726031      0.00150231067809
C   4.89300870916237      2.82518837202648     -0.00039219795739
C   -1.22669652864725     -3.54347062507680     -0.00753595973677
C   -3.68181849668397      0.70932533873199     -0.00807686886569
C   3.69314758099218     -3.54280096939050      0.00148176697923
C   -1.22143177215231      4.97012866986289      0.00168580605083
C   6.13477145276790      0.68054831910577     -0.00083909176631
C   3.65678936045204      4.97295361556775     -0.00065042889723
C   -2.45512642789169     -2.83421472106065      0.00758666850712
C   -3.68181869921921     -0.70932533146830      0.00810055625144
C   4.89301309775526     -2.82519973363176      0.00021895393805
C   -0.00000059327114      5.65044773803267      0.00045449734393
C   6.13477559217374     -0.68055448207492      0.00042622874941
C   2.47813196269732      5.65357712333155      0.00063835075260
C   1.22142288457925     -4.97012668293268     -0.00129718634452
C   -3.69316190412301      3.54279732619245     -0.00139355922051
C   -1.22142804110313     -4.97011793159564     -0.00140994817719
C   -4.91452132810043      1.42717581899491     -0.00153192130862
C   3.65678749952045     -4.97295485423912      0.00080007163680
C   -2.47813805026426      5.65357479452875      0.00092287576113
C   -3.69314125872231     -3.54278984697859      0.00136564082345
C   -4.91451200321153     -1.42718062802730      0.00139857359209
C   -0.00000552908399     -5.65043791501335      0.00005899322272
C   -4.89302000425900      2.82518897091939     -0.00040227981744
C   2.47812647313991     -5.65357317188818     -0.00029052915548
C   -3.65679823041642      4.97295655404175     -0.00047374852278
C   -4.89299899901461     -2.82519139505969      0.00006491824035
C   -2.47812801824129     -5.65356579800621     -0.00056571680280
C   -6.13477002348955      0.68054913825639     -0.00086464346868
C   -3.65678835334731     -4.97294365097028      0.00058578382008
C   -6.13476456307132     -0.68055354348201      0.00040575295444
H   5.83528897565761      3.36927626695423      0.00396712770529
H   7.07385965258860      1.22821762089947     -0.00037744837300
H   4.60066374401555      5.51238117445323     -0.00014522814529
H   5.83528386714679     -3.36930568472863     -0.00423551337640
H   -0.00001167146422      6.73853104613662     -0.00389474766392
H   7.07386165167227     -1.22822657074368     -0.00008250934481
H   2.47331421164041      6.74068466339473      0.00017162982210
H   4.60066897122302     -5.51237575717576      0.00039007446835
H   -2.47331820069565      6.74068209160650      0.00047297644710
H   -0.00000978838621     -6.73852780445195      0.00458867820736
H   -5.83530143450167      3.36927132229595      0.00410314985360
H   2.47330840367253     -6.74068500242887      0.00027980126949
H   -4.60067436136587      5.51237839860371      0.00002010017831
H   -5.83527902699321     -3.36928859177951     -0.00451481925734
H   -2.47329986759855     -6.74067870613986     -0.00016951527498
H   -7.07385728692578      1.22822084484047     -0.00046143985387
H   -4.60067330624313     -5.51236229778631      0.00021776644566
H   -7.07385645456741     -1.22822025997701     -0.00017736581114

    units angstrom      # Angstroms are the default
    no_reorient         # Geometry fixed, default
    symmetry c1         # C1 symmetry, default
}

set {
    scf_type DF         # Density fitting, faster than exact integrals
    freeze_core True    # Freeze core electrons
    basis jun-cc-pVDZ   # Jun-cc-pVDZ basis set, recommended for sSAPT0 in https://doi.org/10.1063/1.4867135
}

energy('ssapt0')        # Compute sSAPT0 energy, includes also SAPT0
--------------------------------------------------------------------------

  Memory set to  29.802 GiB by Python driver.

Scratch directory: /tmp/
   => Loading Basis Set <=

    Name: JUN-CC-PVDZ
    Role: ORBITAL
    Keyword: BASIS
    atoms 1     entry B          line   130 file /opt/software/pc2/EB-SW/software/PSI4/1.9-foss-2022a/share/psi4/basis/jun-cc-pvdz.gbs 
    atoms 2-5   entry F          line   266 file /opt/software/pc2/EB-SW/software/PSI4/1.9-foss-2022a/share/psi4/basis/jun-cc-pvdz.gbs 
    atoms 6-59  entry C          line   164 file /opt/software/pc2/EB-SW/software/PSI4/1.9-foss-2022a/share/psi4/basis/jun-cc-pvdz.gbs 
    atoms 60-77 entry H          line    36 file /opt/software/pc2/EB-SW/software/PSI4/1.9-foss-2022a/share/psi4/basis/jun-cc-pvdz.gbs 

   => Loading Basis Set <=

    Name: JUN-CC-PVDZ
    Role: ORBITAL
    Keyword: BASIS
    atoms 1     entry B          line   130 file /opt/software/pc2/EB-SW/software/PSI4/1.9-foss-2022a/share/psi4/basis/jun-cc-pvdz.gbs 
    atoms 2-5   entry F          line   266 file /opt/software/pc2/EB-SW/software/PSI4/1.9-foss-2022a/share/psi4/basis/jun-cc-pvdz.gbs 
    atoms 6-59  entry C          line   164 file /opt/software/pc2/EB-SW/software/PSI4/1.9-foss-2022a/share/psi4/basis/jun-cc-pvdz.gbs 
    atoms 60-77 entry H          line    36 file /opt/software/pc2/EB-SW/software/PSI4/1.9-foss-2022a/share/psi4/basis/jun-cc-pvdz.gbs 


  //>>>>>>>>>>>>>>>>>>>>>>>>>>>>>>>>>>>//
  //              Dimer HF             //
  //<<<<<<<<<<<<<<<<<<<<<<<<<<<<<<<<<<<//

   => Libint2 <=

    Primary   basis highest AM E, G, H:  5, 4, 3
    Auxiliary basis highest AM E, G, H:  6, 5, 4
    Onebody   basis highest AM E, G, H:  6, 5, 4
    Solid Harmonics ordering:            gaussian

*** tstart() called on n2cn0236
*** at Wed Feb  7 00:24:48 2024

   => Loading Basis Set <=

    Name: JUN-CC-PVDZ
    Role: ORBITAL
    Keyword: BASIS
    atoms 1     entry B          line   130 file /opt/software/pc2/EB-SW/software/PSI4/1.9-foss-2022a/share/psi4/basis/jun-cc-pvdz.gbs 
    atoms 2-5   entry F          line   266 file /opt/software/pc2/EB-SW/software/PSI4/1.9-foss-2022a/share/psi4/basis/jun-cc-pvdz.gbs 
    atoms 6-59  entry C          line   164 file /opt/software/pc2/EB-SW/software/PSI4/1.9-foss-2022a/share/psi4/basis/jun-cc-pvdz.gbs 
    atoms 60-77 entry H          line    36 file /opt/software/pc2/EB-SW/software/PSI4/1.9-foss-2022a/share/psi4/basis/jun-cc-pvdz.gbs 


         ---------------------------------------------------------
                                   SCF
               by Justin Turney, Rob Parrish, Andy Simmonett
                          and Daniel G. A. Smith
                              RHF Reference
                       16 Threads,  30517 MiB Core
         ---------------------------------------------------------

  ==> Geometry <==

    Molecular point group: c1
    Full point group: C1

    Geometry (in Angstrom), charge = -1, multiplicity = 1:

       Center              X                  Y                   Z               Mass       
    ------------   -----------------  -----------------  -----------------  -----------------
         B           -0.000198161052     0.000273808717     2.918821307203    11.009305360000
         F           -0.000000401852    -0.000000464183     4.331606307203    18.998403162730
         F            1.147859598148     0.675780735817     2.447680307203    18.998403162730
         F            0.011917658148    -1.332011464183     2.447882307203    18.998403162730
         F           -1.159666401852     0.656073035817     2.447961307203    18.998403162730
         C            1.225311973413     0.707538196736    -0.375075065513    12.000000000000
         C            1.225323934041    -0.707538986754    -0.387405875083    12.000000000000
         C           -0.000006075942     1.414965821907    -0.387939498604    12.000000000000
         C            2.456448831939     1.418327794995    -0.372188208113    12.000000000000
         C            0.000010905269    -1.414976590818    -0.377739941279    12.000000000000
         C           -1.225300870919     0.707545281801    -0.372823545190    12.000000000000
         C            2.456437833310    -1.418323396064    -0.389651031940    12.000000000000
         C           -0.000001254988     2.836800939098    -0.390343048738    12.000000000000
         C            3.681826775460     0.709317863818    -0.389302242142    12.000000000000
         C            2.455120126855     2.834223569306    -0.389404799103    12.000000000000
         C            3.681821183209    -0.709333931612    -0.373229758124    12.000000000000
         C           -1.225313520698    -0.707527607727    -0.386333113656    12.000000000000
         C            1.226699659192     3.543469391811    -0.373045726193    12.000000000000
         C            0.000004862847    -2.836782231419    -0.372891773658    12.000000000000
         C           -2.456435954859     1.418316826102    -0.372788149345    12.000000000000
         C            2.455123495769    -2.834230120772    -0.373381666491    12.000000000000
         C           -1.226714286599     3.543468971567    -0.372942392974    12.000000000000
         C            4.914517373191     1.427172780306    -0.382821559113    12.000000000000
         C            3.693150269466     3.542795200362    -0.382771759476    12.000000000000
         C           -2.456437522078    -1.418313373022    -0.389676070065    12.000000000000
         C            1.226704919933    -3.543474334090    -0.389015856943    12.000000000000
         C           -2.455125320518     2.834216570451    -0.389398422757    12.000000000000
         C            4.914524458772    -1.427187002127    -0.379848816378    12.000000000000
         C            1.221424691688     4.970133973077    -0.379710382118    12.000000000000
         C            4.893008307311     2.825187907843    -0.381604890754    12.000000000000
         C           -1.226696930499    -3.543471089260    -0.388748652533    12.000000000000
         C           -3.681818898536     0.709324874549    -0.389289561662    12.000000000000
         C            3.693147179140    -3.542801433574    -0.379730925817    12.000000000000
         C           -1.221432174004     4.970128205680    -0.379526886746    12.000000000000
         C            6.134771050916     0.680547854922    -0.382051784563    12.000000000000
         C            3.656788958600     4.972953151384    -0.381863121694    12.000000000000
         C           -2.455126829744    -2.834215185244    -0.373626024289    12.000000000000
         C           -3.681819101071    -0.709325795652    -0.373112136545    12.000000000000
         C            4.893012695903    -2.825200197815    -0.380993738858    12.000000000000
         C           -0.000000995123     5.650447273849    -0.380758195453    12.000000000000
         C            6.134775190322    -0.680554946258    -0.380786464047    12.000000000000
         C            2.478131560845     5.653576659148    -0.380574342044    12.000000000000
         C            1.221422482727    -4.970127147116    -0.382509879141    12.000000000000
         C           -3.693162305975     3.542796862009    -0.382606252017    12.000000000000
         C           -1.221428442955    -4.970118395779    -0.382622640974    12.000000000000
         C           -4.914521729952     1.427175354812    -0.382744614105    12.000000000000
         C            3.656787097669    -4.972955318422    -0.380412621160    12.000000000000
         C           -2.478138452116     5.653574330345    -0.380289817035    12.000000000000
         C           -3.693141660574    -3.542790311162    -0.379847051973    12.000000000000
         C           -4.914512405063    -1.427181092211    -0.379814119204    12.000000000000
         C           -0.000005930936    -5.650438379197    -0.381153699574    12.000000000000
         C           -4.893020406111     2.825188506736    -0.381614972614    12.000000000000
         C            2.478126071288    -5.653573636072    -0.381503221952    12.000000000000
         C           -3.656798632268     4.972956089858    -0.381686441319    12.000000000000
         C           -4.892999400866    -2.825191859243    -0.381147774556    12.000000000000
         C           -2.478128420093    -5.653566262190    -0.381778409599    12.000000000000
         C           -6.134770425341     0.680548674073    -0.382077336265    12.000000000000
         C           -3.656788755199    -4.972944115154    -0.380626908976    12.000000000000
         C           -6.134764964923    -0.680554007665    -0.380806939842    12.000000000000
         H            5.835288573806     3.369275802771    -0.377245565091     1.007825032230
         H            7.073859250737     1.228217156716    -0.381590141170     1.007825032230
         H            4.600663342164     5.512380710270    -0.381357920942     1.007825032230
         H            5.835283465295    -3.369306148912    -0.385448206173     1.007825032230
         H           -0.000012073316     6.738530581953    -0.385107440460     1.007825032230
         H            7.073861249820    -1.228227034927    -0.381295202141     1.007825032230
         H            2.473313809789     6.740684199211    -0.381041062974     1.007825032230
         H            4.600668569371    -5.512376221359    -0.380822618328     1.007825032230
         H           -2.473318602548     6.740681627423    -0.380739716349     1.007825032230
         H           -0.000010190238    -6.738528268635    -0.376624014589     1.007825032230
         H           -5.835301836354     3.369270858113    -0.377109542943     1.007825032230
         H            2.473308001821    -6.740685466612    -0.380932891527     1.007825032230
         H           -4.600674763218     5.512377934420    -0.381192592618     1.007825032230
         H           -5.835279428845    -3.369289055963    -0.385727512054     1.007825032230
         H           -2.473300269450    -6.740679170323    -0.381382208071     1.007825032230
         H           -7.073857688778     1.228220380657    -0.381674132650     1.007825032230
         H           -4.600673708095    -5.512362761970    -0.380994926351     1.007825032230
         H           -7.073856856419    -1.228220724160    -0.381390058608     1.007825032230

  Running in c1 symmetry.

  Rotational constants: A =      0.00197  B =      0.00197  C =      0.00110 [cm^-1]
  Rotational constants: A =     59.17755  B =     59.16945  C =     33.02251 [MHz]
  Nuclear repulsion = 7989.316824978748627

  Charge       = -1
  Multiplicity = 1
  Electrons    = 384
  Nalpha       = 192
  Nbeta        = 192

  ==> Algorithm <==

  SCF Algorithm Type is DF.
  DIIS enabled.
  MOM disabled.
  Fractional occupation disabled.
  Guess Type is SAD.
  Energy threshold   = 1.00e-08
  Density threshold  = 1.00e-08
  Integral threshold = 1.00e-12

  ==> Primary Basis <==

  Basis Set: JUN-CC-PVDZ
    Blend: JUN-CC-PVDZ
    Number of shells: 526
    Number of basis functions: 1152
    Number of Cartesian functions: 1211
    Spherical Harmonics?: true
    Max angular momentum: 2

   => Loading Basis Set <=

    Name: (JUN-CC-PVDZ AUX)
    Role: JKFIT
    Keyword: DF_BASIS_SCF
    atoms 1     entry B          line    90 file /opt/software/pc2/EB-SW/software/PSI4/1.9-foss-2022a/share/psi4/basis/jun-cc-pvdz-jkfit.gbs 
    atoms 2-5   entry F          line   314 file /opt/software/pc2/EB-SW/software/PSI4/1.9-foss-2022a/share/psi4/basis/jun-cc-pvdz-jkfit.gbs 
    atoms 6-59  entry C          line   146 file /opt/software/pc2/EB-SW/software/PSI4/1.9-foss-2022a/share/psi4/basis/jun-cc-pvdz-jkfit.gbs 
    atoms 60-77 entry H          line    70 file /opt/software/pc2/EB-SW/software/PSI4/1.9-foss-2022a/share/psi4/basis/jun-cc-pvdz-jkfit.gbs 

  ==> Integral Setup <==

  ==> DiskDFJK: Density-Fitted J/K Matrices <==

    J tasked:                  Yes
    K tasked:                  Yes
    wK tasked:                  No
    OpenMP threads:             16
    Integrals threads:          16
    Memory [MiB]:            22888
    Algorithm:                Core
    Integral Cache:           SAVE
    Schwarz Cutoff:          1E-12
    Fitting Condition:       1E-10

   => Auxiliary Basis Set <=

  Basis Set: (JUN-CC-PVDZ AUX)
    Blend: JUN-CC-PVDZ-JKFIT
    Number of shells: 1755
    Number of basis functions: 5075
    Number of Cartesian functions: 5819
    Spherical Harmonics?: true
    Max angular momentum: 3

  Minimum eigenvalue in the overlap matrix is 5.8179605190E-10.
  Reciprocal condition number of the overlap matrix is 2.4376411978E-11.
    Using canonical orthogonalization.
  Overall, 14 of 1152 possible MOs eliminated.


  ==> Pre-Iterations <==

  SCF Guess: Superposition of Atomic Densities via on-the-fly atomic UHF (no occupation information).

   -------------------------
    Irrep   Nso     Nmo    
   -------------------------
     A       1152    1138 
   -------------------------
    Total    1152    1138
   -------------------------

  ==> Iterations <==

                           Total Energy        Delta E     RMS |[F,P]|

   @DF-RHF iter SAD: -2483.51348942763207   -2.48351e+03   0.00000e+00 
   @DF-RHF iter   1: -2477.58634097879758    5.92715e+00   1.10976e-03 DIIS/ADIIS
   @DF-RHF iter   2: -2478.48687615567678   -9.00535e-01   4.99903e-04 DIIS/ADIIS
   @DF-RHF iter   3: -2478.63707972060729   -1.50204e-01   1.53730e-04 DIIS/ADIIS
   @DF-RHF iter   4: -2478.65364558361671   -1.65659e-02   7.39044e-05 DIIS
   @DF-RHF iter   5: -2478.65812719227779   -4.48161e-03   1.80309e-05 DIIS
   @DF-RHF iter   6: -2478.65846662688955   -3.39435e-04   5.50891e-06 DIIS
   @DF-RHF iter   7: -2478.65855291865546   -8.62918e-05   2.75145e-06 DIIS
   @DF-RHF iter   8: -2478.65857763449048   -2.47158e-05   1.24003e-06 DIIS
   @DF-RHF iter   9: -2478.65858490833716   -7.27385e-06   3.01889e-07 DIIS
   @DF-RHF iter  10: -2478.65858522362760   -3.15290e-07   1.22791e-07 DIIS
   @DF-RHF iter  11: -2478.65858526421380   -4.05862e-08   6.78016e-08 DIIS
   @DF-RHF iter  12: -2478.65858528596391   -2.17501e-08   4.11721e-08 DIIS
   @DF-RHF iter  13: -2478.65858529655134   -1.05874e-08   2.77216e-08 DIIS
   @DF-RHF iter  14: -2478.65858530252581   -5.97447e-09   1.43277e-08 DIIS
   @DF-RHF iter  15: -2478.65858530421201   -1.68620e-09   7.46305e-09 DIIS
  Energy and wave function converged.


  ==> Post-Iterations <==

    Orbital Energies [Eh]
    ---------------------

    Doubly Occupied:                                                      

       1A    -26.090667     2A    -26.090569     3A    -26.090470  
       4A    -26.082099     5A    -11.176437     6A    -11.176422  
       7A    -11.176419     8A    -11.176359     9A    -11.176345  
      10A    -11.176341    11A    -11.176194    12A    -11.176189  
      13A    -11.176188    14A    -11.176109    15A    -11.176105  
      16A    -11.176104    17A    -11.174704    18A    -11.174698  
      19A    -11.174697    20A    -11.174691    21A    -11.174690  
      22A    -11.174684    23A    -11.173327    24A    -11.173322  
      25A    -11.173321    26A    -11.173318    27A    -11.173317  
      28A    -11.173313    29A    -11.171381    30A    -11.171334  
      31A    -11.171329    32A    -11.171180    33A    -11.171177  
      34A    -11.171068    35A    -11.170626    36A    -11.170476  
      37A    -11.170471    38A    -11.170161    39A    -11.170157  
      40A    -11.170036    41A    -11.169763    42A    -11.169757  
      43A    -11.169755    44A    -11.169411    45A    -11.169395  
      46A    -11.169390    47A    -11.169346    48A    -11.169324  
      49A    -11.169317    50A    -11.168828    51A    -11.168826  
      52A    -11.168818    53A    -11.164917    54A    -11.164634  
      55A    -11.164604    56A    -11.162271    57A    -11.162263  
      58A    -11.161939    59A     -7.560682    60A     -1.433913  
      61A     -1.376474    62A     -1.376294    63A     -1.368537  
      64A     -1.153787    65A     -1.133453    66A     -1.133453  
      67A     -1.105348    68A     -1.105340    69A     -1.092319  
      70A     -1.075442    71A     -1.065281    72A     -1.048352  
      73A     -1.048346    74A     -1.031244    75A     -1.031239  
      76A     -0.996854    77A     -0.996845    78A     -0.992434  
      79A     -0.984507    80A     -0.984502    81A     -0.956181  
      82A     -0.937124    83A     -0.936141    84A     -0.933925  
      85A     -0.933886    86A     -0.931609    87A     -0.902039  
      88A     -0.901997    89A     -0.879280    90A     -0.879233  
      91A     -0.812442    92A     -0.812410    93A     -0.800836  
      94A     -0.798287    95A     -0.798230    96A     -0.796474  
      97A     -0.796425    98A     -0.779648    99A     -0.758028  
     100A     -0.735602   101A     -0.730588   102A     -0.727424  
     103A     -0.727415   104A     -0.713411   105A     -0.713400  
     106A     -0.661158   107A     -0.660089   108A     -0.650656  
     109A     -0.650632   110A     -0.648026   111A     -0.648019  
     112A     -0.632556   113A     -0.625135   114A     -0.616770  
     115A     -0.616758   116A     -0.610390   117A     -0.610373  
     118A     -0.580038   119A     -0.569618   120A     -0.569613  
     121A     -0.568563   122A     -0.565402   123A     -0.557705  
     124A     -0.557701   125A     -0.552403   126A     -0.552307  
     127A     -0.552051   128A     -0.545452   129A     -0.543616  
     130A     -0.543604   131A     -0.528647   132A     -0.517772  
     133A     -0.517740   134A     -0.516961   135A     -0.514327  
     136A     -0.509948   137A     -0.506264   138A     -0.504811  
     139A     -0.504798   140A     -0.491058   141A     -0.491058  
     142A     -0.486673   143A     -0.486658   144A     -0.482003  
     145A     -0.481996   146A     -0.473644   147A     -0.473229  
     148A     -0.473217   149A     -0.470591   150A     -0.470544  
     151A     -0.457487   152A     -0.457484   153A     -0.454190  
     154A     -0.454185   155A     -0.448820   156A     -0.446980  
     157A     -0.440038   158A     -0.440029   159A     -0.430932  
     160A     -0.430840   161A     -0.419770   162A     -0.417152  
     163A     -0.414463   164A     -0.411575   165A     -0.409290  
     166A     -0.408308   167A     -0.408244   168A     -0.404679  
     169A     -0.400830   170A     -0.398425   171A     -0.398418  
     172A     -0.378643   173A     -0.378608   174A     -0.364270  
     175A     -0.364189   176A     -0.358052   177A     -0.358044  
     178A     -0.318310   179A     -0.318285   180A     -0.314688  
     181A     -0.295131   182A     -0.295129   183A     -0.265816  
     184A     -0.247233   185A     -0.243874   186A     -0.243786  
     187A     -0.229708   188A     -0.218821   189A     -0.197193  
     190A     -0.197146   191A     -0.141009   192A     -0.140933  

    Virtual:                                                              

     193A      0.096841   194A      0.096896   195A      0.108722  
     196A      0.108734   197A      0.110068   198A      0.111113  
     199A      0.111114   200A      0.117833   201A      0.122039  
     202A      0.133019   203A      0.133021   204A      0.147737  
     205A      0.147738   206A      0.149588   207A      0.149637  
     208A      0.151552   209A      0.155519   210A      0.157205  
     211A      0.157211   212A      0.158062   213A      0.158067  
     214A      0.162167   215A      0.162176   216A      0.165878  
     217A      0.166070   218A      0.167604   219A      0.168287  
     220A      0.170514   221A      0.178708   222A      0.178714  
     223A      0.179862   224A      0.183226   225A      0.190972  
     226A      0.190982   227A      0.191849   228A      0.191851  
     229A      0.192809   230A      0.192816   231A      0.197698  
     232A      0.200135   233A      0.200225   234A      0.200477  
     235A      0.204407   236A      0.204414   237A      0.207764  
     238A      0.214869   239A      0.214874   240A      0.217616  
     241A      0.217648   242A      0.221001   243A      0.221007  
     244A      0.224520   245A      0.224530   246A      0.229577  
     247A      0.236555   248A      0.239928   249A      0.239999  
     250A      0.245331   251A      0.252571   252A      0.252911  
     253A      0.252920   254A      0.255988   255A      0.256007  
     256A      0.258444   257A      0.264590   258A      0.264636  
     259A      0.266572   260A      0.266991   261A      0.267040  
     262A      0.269107   263A      0.269111   264A      0.273415  
     265A      0.274192   266A      0.274198   267A      0.275808  
     268A      0.275979   269A      0.275999   270A      0.277707  
     271A      0.279355   272A      0.279470   273A      0.279488  
     274A      0.281566   275A      0.282972   276A      0.291485  
     277A      0.293100   278A      0.293108   279A      0.294831  
     280A      0.294844   281A      0.295909   282A      0.298552  
     283A      0.298558   284A      0.304405   285A      0.305636  
     286A      0.307562   287A      0.307600   288A      0.310490  
     289A      0.310501   290A      0.313581   291A      0.313777  
     292A      0.321254   293A      0.321302   294A      0.324843  
     295A      0.324857   296A      0.328511   297A      0.328526  
     298A      0.334052   299A      0.334070   300A      0.336538  
     301A      0.342645   302A      0.342655   303A      0.345122  
     304A      0.345125   305A      0.346879   306A      0.346902  
     307A      0.352511   308A      0.359310   309A      0.359337  
     310A      0.362290   311A      0.362315   312A      0.365528  
     313A      0.366152   314A      0.366163   315A      0.366716  
     316A      0.367366   317A      0.368639   318A      0.368662  
     319A      0.373705   320A      0.373735   321A      0.375446  
     322A      0.380346   323A      0.380362   324A      0.380589  
     325A      0.381950   326A      0.384083   327A      0.384110  
     328A      0.386375   329A      0.387220   330A      0.387224  
     331A      0.389716   332A      0.391979   333A      0.394613  
     334A      0.395408   335A      0.395430   336A      0.399336  
     337A      0.401063   338A      0.405231   339A      0.405351  
     340A      0.407158   341A      0.410815   342A      0.411578  
     343A      0.411601   344A      0.413554   345A      0.415679  
     346A      0.415684   347A      0.421496   348A      0.422446  
     349A      0.424984   350A      0.424990   351A      0.426624  
     352A      0.426659   353A      0.426961   354A      0.439162  
     355A      0.439215   356A      0.445612   357A      0.446890  
     358A      0.446932   359A      0.452353   360A      0.456220  
     361A      0.456520   362A      0.456551   363A      0.460768  
     364A      0.460777   365A      0.463567   366A      0.463685  
     367A      0.465014   368A      0.465077   369A      0.465484  
     370A      0.468130   371A      0.469938   372A      0.472985  
     373A      0.472990   374A      0.476495   375A      0.476730  
     376A      0.476846   377A      0.479739   378A      0.479788  
     379A      0.482389   380A      0.483204   381A      0.483262  
     382A      0.484106   383A      0.488865   384A      0.488910  
     385A      0.494705   386A      0.495719   387A      0.499024  
     388A      0.499041   389A      0.499059   390A      0.501159  
     391A      0.501211   392A      0.504620   393A      0.504634  
     394A      0.505432   395A      0.507513   396A      0.507597  
     397A      0.512830   398A      0.513674   399A      0.514744  
     400A      0.519281   401A      0.519445   402A      0.523252  
     403A      0.523269   404A      0.524017   405A      0.525885  
     406A      0.525921   407A      0.528727   408A      0.529125  
     409A      0.529181   410A      0.531736   411A      0.531938  
     412A      0.536926   413A      0.537063   414A      0.542231  
     415A      0.542294   416A      0.543334   417A      0.547376  
     418A      0.548194   419A      0.549782   420A      0.549864  
     421A      0.554411   422A      0.554481   423A      0.554496  
     424A      0.555185   425A      0.555240   426A      0.555921  
     427A      0.570487   428A      0.570906   429A      0.570920  
     430A      0.571093   431A      0.571119   432A      0.575333  
     433A      0.575349   434A      0.577072   435A      0.577431  
     436A      0.582154   437A      0.582337   438A      0.585464  
     439A      0.585536   440A      0.585871   441A      0.590426  
     442A      0.590568   443A      0.596222   444A      0.596258  
     445A      0.600286   446A      0.607516   447A      0.607734  
     448A      0.610208   449A      0.613026   450A      0.613084  
     451A      0.615509   452A      0.624137   453A      0.624321  
     454A      0.624358   455A      0.624873   456A      0.627752  
     457A      0.627795   458A      0.630268   459A      0.630332  
     460A      0.630469   461A      0.637702   462A      0.640109  
     463A      0.640252   464A      0.640576   465A      0.642343  
     466A      0.647819   467A      0.648487   468A      0.648525  
     469A      0.653443   470A      0.661016   471A      0.661280  
     472A      0.663068   473A      0.669832   474A      0.673031  
     475A      0.673074   476A      0.677738   477A      0.683445  
     478A      0.683491   479A      0.689263   480A      0.702003  
     481A      0.702129   482A      0.709296   483A      0.709329  
     484A      0.715954   485A      0.716080   486A      0.722529  
     487A      0.732779   488A      0.739057   489A      0.739123  
     490A      0.744191   491A      0.744240   492A      0.747789  
     493A      0.752005   494A      0.755419   495A      0.756305  
     496A      0.756395   497A      0.759696   498A      0.759740  
     499A      0.763022   500A      0.763113   501A      0.768628  
     502A      0.800275   503A      0.800308   504A      0.818778  
     505A      0.823622   506A      0.827023   507A      0.827068  
     508A      0.827381   509A      0.830559   510A      0.830583  
     511A      0.838267   512A      0.838276   513A      0.847680  
     514A      0.856374   515A      0.869834   516A      0.873713  
     517A      0.878064   518A      0.878146   519A      0.888692  
     520A      0.895704   521A      0.896631   522A      0.896851  
     523A      0.899653   524A      0.901126   525A      0.901250  
     526A      0.906505   527A      0.908599   528A      0.908710  
     529A      0.908834   530A      0.921499   531A      0.921545  
     532A      0.924682   533A      0.924980   534A      0.935476  
     535A      0.935502   536A      0.946308   537A      0.946344  
     538A      0.949875   539A      0.955484   540A      0.955554  
     541A      0.964279   542A      0.964325   543A      0.968186  
     544A      0.968220   545A      0.976782   546A      0.976856  
     547A      0.981620   548A      0.982913   549A      0.982971  
     550A      0.985910   551A      0.990273   552A      0.990583  
     553A      0.994579   554A      0.994772   555A      0.996888  
     556A      0.999799   557A      0.999887   558A      1.003704  
     559A      1.005351   560A      1.005796   561A      1.005914  
     562A      1.014608   563A      1.017294   564A      1.017360  
     565A      1.023009   566A      1.023126   567A      1.025402  
     568A      1.025578   569A      1.027496   570A      1.028328  
     571A      1.028385   572A      1.030749   573A      1.039316  
     574A      1.039347   575A      1.047128   576A      1.048058  
     577A      1.049774   578A      1.049914   579A      1.057197  
     580A      1.057405   581A      1.062152   582A      1.062171  
     583A      1.072477   584A      1.072678   585A      1.072716  
     586A      1.076914   587A      1.079787   588A      1.079818  
     589A      1.092114   590A      1.094554   591A      1.094598  
     592A      1.097028   593A      1.097460   594A      1.097493  
     595A      1.112143   596A      1.112182   597A      1.113829  
     598A      1.117727   599A      1.121500   600A      1.121527  
     601A      1.122458   602A      1.122498   603A      1.126264  
     604A      1.126982   605A      1.127038   606A      1.134381  
     607A      1.135081   608A      1.135241   609A      1.136425  
     610A      1.136488   611A      1.136634   612A      1.139650  
     613A      1.148409   614A      1.148678   615A      1.155084  
     616A      1.155144   617A      1.155764   618A      1.164569  
     619A      1.165761   620A      1.167752   621A      1.167789  
     622A      1.171969   623A      1.172061   624A      1.174104  
     625A      1.174110   626A      1.176316   627A      1.180714  
     628A      1.180787   629A      1.187717   630A      1.187726  
     631A      1.193444   632A      1.195309   633A      1.195384  
     634A      1.199354   635A      1.199416   636A      1.210554  
     637A      1.212167   638A      1.212222   639A      1.216837  
     640A      1.218012   641A      1.221420   642A      1.221482  
     643A      1.222771   644A      1.227731   645A      1.230362  
     646A      1.230466   647A      1.233402   648A      1.237919  
     649A      1.239799   650A      1.240325   651A      1.244940  
     652A      1.260204   653A      1.261391   654A      1.261428  
     655A      1.265250   656A      1.265703   657A      1.265984  
     658A      1.275025   659A      1.275149   660A      1.284593  
     661A      1.285651   662A      1.285705   663A      1.287199  
     664A      1.287259   665A      1.296997   666A      1.297060  
     667A      1.297214   668A      1.304877   669A      1.307115  
     670A      1.307136   671A      1.308066   672A      1.314063  
     673A      1.314272   674A      1.318801   675A      1.319025  
     676A      1.320511   677A      1.320539   678A      1.341199  
     679A      1.341290   680A      1.344799   681A      1.344807  
     682A      1.346652   683A      1.346675   684A      1.350914  
     685A      1.351031   686A      1.357454   687A      1.357717  
     688A      1.357981   689A      1.363441   690A      1.377403  
     691A      1.379336   692A      1.380665   693A      1.386809  
     694A      1.390336   695A      1.390850   696A      1.400532  
     697A      1.400543   698A      1.404838   699A      1.404915  
     700A      1.407236   701A      1.407285   702A      1.413772  
     703A      1.413848   704A      1.416638   705A      1.416642  
     706A      1.419218   707A      1.421921   708A      1.438330  
     709A      1.438403   710A      1.439840   711A      1.441631  
     712A      1.441667   713A      1.442757   714A      1.442774  
     715A      1.444563   716A      1.458616   717A      1.458799  
     718A      1.458927   719A      1.464216   720A      1.468017  
     721A      1.468086   722A      1.474962   723A      1.485616  
     724A      1.485655   725A      1.494452   726A      1.494510  
     727A      1.497947   728A      1.498018   729A      1.499066  
     730A      1.503518   731A      1.506142   732A      1.514626  
     733A      1.517211   734A      1.517282   735A      1.517544  
     736A      1.521162   737A      1.523415   738A      1.523476  
     739A      1.532707   740A      1.532720   741A      1.533291  
     742A      1.538854   743A      1.538973   744A      1.540764  
     745A      1.563781   746A      1.563813   747A      1.574706  
     748A      1.574969   749A      1.599100   750A      1.599216  
     751A      1.608112   752A      1.608144   753A      1.614048  
     754A      1.637539   755A      1.659174   756A      1.659268  
     757A      1.662007   758A      1.681221   759A      1.686716  
     760A      1.688278   761A      1.688715   762A      1.699976  
     763A      1.700087   764A      1.702818   765A      1.713220  
     766A      1.713329   767A      1.716759   768A      1.716947  
     769A      1.719774   770A      1.719824   771A      1.724712  
     772A      1.727026   773A      1.727109   774A      1.729504  
     775A      1.733821   776A      1.735093   777A      1.735211  
     778A      1.745016   779A      1.745056   780A      1.749411  
     781A      1.750123   782A      1.757362   783A      1.757391  
     784A      1.762445   785A      1.766657   786A      1.768837  
     787A      1.768925   788A      1.774536   789A      1.774565  
     790A      1.779631   791A      1.780878   792A      1.780926  
     793A      1.784516   794A      1.790408   795A      1.793843  
     796A      1.793965   797A      1.799898   798A      1.799912  
     799A      1.825458   800A      1.832206   801A      1.836951  
     802A      1.839250   803A      1.841049   804A      1.841061  
     805A      1.846843   806A      1.859363   807A      1.859368  
     808A      1.874659   809A      1.874668   810A      1.897180  
     811A      1.897203   812A      1.897730   813A      1.911542  
     814A      1.911632   815A      1.917865   816A      1.917970  
     817A      1.923234   818A      1.927824   819A      1.930363  
     820A      1.933524   821A      1.941076   822A      1.941115  
     823A      1.947528   824A      1.949227   825A      1.949346  
     826A      1.957070   827A      1.964640   828A      1.964687  
     829A      1.967596   830A      1.981812   831A      1.981951  
     832A      1.982032   833A      1.984735   834A      1.984875  
     835A      1.994668   836A      1.994775   837A      2.000074  
     838A      2.000279   839A      2.001435   840A      2.001694  
     841A      2.004354   842A      2.004574   843A      2.004627  
     844A      2.018099   845A      2.018210   846A      2.019338  
     847A      2.025797   848A      2.025827   849A      2.031604  
     850A      2.031718   851A      2.031830   852A      2.039210  
     853A      2.039241   854A      2.041789   855A      2.050708  
     856A      2.051535   857A      2.051626   858A      2.074559  
     859A      2.079317   860A      2.079496   861A      2.080615  
     862A      2.083574   863A      2.088663   864A      2.090127  
     865A      2.090325   866A      2.100828   867A      2.101248  
     868A      2.109182   869A      2.110697   870A      2.111006  
     871A      2.112266   872A      2.113298   873A      2.113487  
     874A      2.114864   875A      2.127162   876A      2.129494  
     877A      2.129795   878A      2.134823   879A      2.141111  
     880A      2.141168   881A      2.141622   882A      2.142511  
     883A      2.155561   884A      2.155903   885A      2.157687  
     886A      2.159476   887A      2.162681   888A      2.163000  
     889A      2.165287   890A      2.165405   891A      2.168450  
     892A      2.174033   893A      2.175493   894A      2.175881  
     895A      2.175988   896A      2.181175   897A      2.184631  
     898A      2.186557   899A      2.186619   900A      2.190271  
     901A      2.191338   902A      2.191383   903A      2.194804  
     904A      2.199338   905A      2.200784   906A      2.200810  
     907A      2.204267   908A      2.204505   909A      2.209023  
     910A      2.209157   911A      2.209522   912A      2.217083  
     913A      2.217123   914A      2.217359   915A      2.223047  
     916A      2.223174   917A      2.225248   918A      2.225332  
     919A      2.228623   920A      2.237735   921A      2.244026  
     922A      2.244044   923A      2.252911   924A      2.253170  
     925A      2.260841   926A      2.266456   927A      2.266606  
     928A      2.269712   929A      2.269714   930A      2.273902  
     931A      2.277247   932A      2.277331   933A      2.278920  
     934A      2.291447   935A      2.300815   936A      2.300965  
     937A      2.303735   938A      2.308585   939A      2.308947  
     940A      2.315552   941A      2.318224   942A      2.322759  
     943A      2.322885   944A      2.325999   945A      2.326066  
     946A      2.327703   947A      2.337199   948A      2.337365  
     949A      2.347829   950A      2.348091   951A      2.352602  
     952A      2.352638   953A      2.357278   954A      2.357430  
     955A      2.359168   956A      2.371553   957A      2.383164  
     958A      2.383710   959A      2.384278   960A      2.388734  
     961A      2.392403   962A      2.401534   963A      2.402145  
     964A      2.423956   965A      2.424021   966A      2.432178  
     967A      2.435585   968A      2.437795   969A      2.439790  
     970A      2.440048   971A      2.440194   972A      2.440549  
     973A      2.458415   974A      2.458585   975A      2.469503  
     976A      2.471051   977A      2.497408   978A      2.507619  
     979A      2.507837   980A      2.508477   981A      2.508496  
     982A      2.517595   983A      2.529847   984A      2.529937  
     985A      2.555040   986A      2.561937   987A      2.562049  
     988A      2.574594   989A      2.574648   990A      2.590161  
     991A      2.606270   992A      2.616010   993A      2.621394  
     994A      2.629141   995A      2.629178   996A      2.630029  
     997A      2.633578   998A      2.633664   999A      2.643327  
    1000A      2.643336  1001A      2.643452  1002A      2.656137  
    1003A      2.656602  1004A      2.656901  1005A      2.656945  
    1006A      2.670322  1007A      2.670485  1008A      2.672415  
    1009A      2.676906  1010A      2.681543  1011A      2.690931  
    1012A      2.707694  1013A      2.707779  1014A      2.716937  
    1015A      2.717380  1016A      2.718066  1017A      2.723203  
    1018A      2.723289  1019A      2.734441  1020A      2.734706  
    1021A      2.740629  1022A      2.766202  1023A      2.773281  
    1024A      2.774040  1025A      2.776237  1026A      2.793520  
    1027A      2.793917  1028A      2.798921  1029A      2.798927  
    1030A      2.803570  1031A      2.803595  1032A      2.810328  
    1033A      2.810514  1034A      2.838198  1035A      2.839809  
    1036A      2.840132  1037A      2.863586  1038A      2.884142  
    1039A      2.884202  1040A      2.909471  1041A      2.913505  
    1042A      2.915728  1043A      2.940993  1044A      2.941103  
    1045A      2.945701  1046A      2.947938  1047A      2.951909  
    1048A      2.952085  1049A      2.957940  1050A      3.000267  
    1051A      3.000298  1052A      3.008498  1053A      3.016689  
    1054A      3.016757  1055A      3.036542  1056A      3.036620  
    1057A      3.044891  1058A      3.092890  1059A      3.099911  
    1060A      3.100096  1061A      3.121891  1062A      3.151952  
    1063A      3.151999  1064A      3.155763  1065A      3.155870  
    1066A      3.171514  1067A      3.195437  1068A      3.195872  
    1069A      3.213732  1070A      3.213962  1071A      3.220953  
    1072A      3.229353  1073A      3.229419  1074A      3.229899  
    1075A      3.233329  1076A      3.233354  1077A      3.245263  
    1078A      3.245988  1079A      3.248024  1080A      3.250247  
    1081A      3.250947  1082A      3.271385  1083A      3.272616  
    1084A      3.272964  1085A      3.290456  1086A      3.306393  
    1087A      3.331012  1088A      3.363218  1089A      3.363610  
    1090A      3.369943  1091A      3.381123  1092A      3.394002  
    1093A      3.394408  1094A      3.508988  1095A      3.509230  
    1096A      3.579966  1097A      3.581598  1098A      3.646451  
    1099A      3.658870  1100A      3.686811  1101A      3.688161  
    1102A      3.699344  1103A      3.715610  1104A      3.716969  
    1105A      3.748603  1106A      3.770314  1107A      3.862624  
    1108A      3.886306  1109A      3.887266  1110A      3.953092  
    1111A      3.953107  1112A      3.997908  1113A      3.997962  
    1114A      4.065638  1115A      4.098633  1116A      4.122201  
    1117A      4.127074  1118A      4.157162  1119A      4.179827  
    1120A      4.180239  1121A      4.188540  1122A      4.206742  
    1123A      4.207008  1124A      4.211149  1125A      4.212438  
    1126A      4.224786  1127A      4.274777  1128A      4.278044  
    1129A      4.281028  1130A      4.434113  1131A      4.434432  
    1132A      4.438636  1133A      4.645503  1134A      4.645541  
    1135A      4.668866  1136A      4.739159  1137A      4.775139  
    1138A      4.775422  

    Final Occupation by Irrep:
              A 
    DOCC [   192 ]
    NA   [   192 ]
    NB   [   192 ]

  @DF-RHF Final Energy: -2478.65858530421201

   => Energetics <=

    Nuclear Repulsion Energy =           7989.3168249787486275
    One-Electron Energy =              -19337.9161605762674299
    Two-Electron Energy =                8869.9407502933063370
    Total Energy =                      -2478.6585853042124654

Computation Completed


Properties will be evaluated at   0.000000,   0.000000,   0.000000 [a0]

Properties computed using the SCF density matrix


 Multipole Moments:

 ------------------------------------------------------------------------------------
     Multipole            Electronic (a.u.)      Nuclear  (a.u.)        Total (a.u.)
 ------------------------------------------------------------------------------------

 L = 1.  Multiply by 2.5417464519 to convert [e a0] to [Debye]
 Dipole X            :         -0.0006011            0.0000481           -0.0005531
 Dipole Y            :          0.0011206           -0.0001453            0.0009753
 Dipole Z            :         16.2287133          -20.2299451           -4.0012318
 Magnitude           :                                                    4.0012320

 ------------------------------------------------------------------------------------

*** tstop() called on n2cn0236 at Wed Feb  7 00:30:58 2024
Module time:
	user time   =    4405.59 seconds =      73.43 minutes
	system time =     166.45 seconds =       2.77 minutes
	total time  =        370 seconds =       6.17 minutes
Total time:
	user time   =    4405.59 seconds =      73.43 minutes
	system time =     166.45 seconds =       2.77 minutes
	total time  =        370 seconds =       6.17 minutes

  //>>>>>>>>>>>>>>>>>>>>>>>>>>>>>>>>>>>//
  //            Monomer A HF           //
  //<<<<<<<<<<<<<<<<<<<<<<<<<<<<<<<<<<<//

   => Libint2 <=

    Primary   basis highest AM E, G, H:  5, 4, 3
    Auxiliary basis highest AM E, G, H:  6, 5, 4
    Onebody   basis highest AM E, G, H:  6, 5, 4
    Solid Harmonics ordering:            gaussian

*** tstart() called on n2cn0236
*** at Wed Feb  7 00:30:59 2024

   => Loading Basis Set <=

    Name: JUN-CC-PVDZ
    Role: ORBITAL
    Keyword: BASIS
    atoms 1     entry B          line   130 file /opt/software/pc2/EB-SW/software/PSI4/1.9-foss-2022a/share/psi4/basis/jun-cc-pvdz.gbs 
    atoms 2-5   entry F          line   266 file /opt/software/pc2/EB-SW/software/PSI4/1.9-foss-2022a/share/psi4/basis/jun-cc-pvdz.gbs 
    atoms 6-59  entry C          line   164 file /opt/software/pc2/EB-SW/software/PSI4/1.9-foss-2022a/share/psi4/basis/jun-cc-pvdz.gbs 
    atoms 60-77 entry H          line    36 file /opt/software/pc2/EB-SW/software/PSI4/1.9-foss-2022a/share/psi4/basis/jun-cc-pvdz.gbs 


         ---------------------------------------------------------
                                   SCF
               by Justin Turney, Rob Parrish, Andy Simmonett
                          and Daniel G. A. Smith
                              RHF Reference
                       16 Threads,  30517 MiB Core
         ---------------------------------------------------------

  ==> Geometry <==

    Molecular point group: c1
    Full point group: C1

    Geometry (in Angstrom), charge = -1, multiplicity = 1:

       Center              X                  Y                   Z               Mass       
    ------------   -----------------  -----------------  -----------------  -----------------
         B           -0.000198161052     0.000273808717     2.918821307203    11.009305360000
         F           -0.000000401852    -0.000000464183     4.331606307203    18.998403162730
         F            1.147859598148     0.675780735817     2.447680307203    18.998403162730
         F            0.011917658148    -1.332011464183     2.447882307203    18.998403162730
         F           -1.159666401852     0.656073035817     2.447961307203    18.998403162730
      Gh(C)           1.225311973413     0.707538196736    -0.375075065513    12.000000000000
      Gh(C)           1.225323934041    -0.707538986754    -0.387405875083    12.000000000000
      Gh(C)          -0.000006075942     1.414965821907    -0.387939498604    12.000000000000
      Gh(C)           2.456448831939     1.418327794995    -0.372188208113    12.000000000000
      Gh(C)           0.000010905269    -1.414976590818    -0.377739941279    12.000000000000
      Gh(C)          -1.225300870919     0.707545281801    -0.372823545190    12.000000000000
      Gh(C)           2.456437833310    -1.418323396064    -0.389651031940    12.000000000000
      Gh(C)          -0.000001254988     2.836800939098    -0.390343048738    12.000000000000
      Gh(C)           3.681826775460     0.709317863818    -0.389302242142    12.000000000000
      Gh(C)           2.455120126855     2.834223569306    -0.389404799103    12.000000000000
      Gh(C)           3.681821183209    -0.709333931612    -0.373229758124    12.000000000000
      Gh(C)          -1.225313520698    -0.707527607727    -0.386333113656    12.000000000000
      Gh(C)           1.226699659192     3.543469391811    -0.373045726193    12.000000000000
      Gh(C)           0.000004862847    -2.836782231419    -0.372891773658    12.000000000000
      Gh(C)          -2.456435954859     1.418316826102    -0.372788149345    12.000000000000
      Gh(C)           2.455123495769    -2.834230120772    -0.373381666491    12.000000000000
      Gh(C)          -1.226714286599     3.543468971567    -0.372942392974    12.000000000000
      Gh(C)           4.914517373191     1.427172780306    -0.382821559113    12.000000000000
      Gh(C)           3.693150269466     3.542795200362    -0.382771759476    12.000000000000
      Gh(C)          -2.456437522078    -1.418313373022    -0.389676070065    12.000000000000
      Gh(C)           1.226704919933    -3.543474334090    -0.389015856943    12.000000000000
      Gh(C)          -2.455125320518     2.834216570451    -0.389398422757    12.000000000000
      Gh(C)           4.914524458772    -1.427187002127    -0.379848816378    12.000000000000
      Gh(C)           1.221424691688     4.970133973077    -0.379710382118    12.000000000000
      Gh(C)           4.893008307311     2.825187907843    -0.381604890754    12.000000000000
      Gh(C)          -1.226696930499    -3.543471089260    -0.388748652533    12.000000000000
      Gh(C)          -3.681818898536     0.709324874549    -0.389289561662    12.000000000000
      Gh(C)           3.693147179140    -3.542801433574    -0.379730925817    12.000000000000
      Gh(C)          -1.221432174004     4.970128205680    -0.379526886746    12.000000000000
      Gh(C)           6.134771050916     0.680547854922    -0.382051784563    12.000000000000
      Gh(C)           3.656788958600     4.972953151384    -0.381863121694    12.000000000000
      Gh(C)          -2.455126829744    -2.834215185244    -0.373626024289    12.000000000000
      Gh(C)          -3.681819101071    -0.709325795652    -0.373112136545    12.000000000000
      Gh(C)           4.893012695903    -2.825200197815    -0.380993738858    12.000000000000
      Gh(C)          -0.000000995123     5.650447273849    -0.380758195453    12.000000000000
      Gh(C)           6.134775190322    -0.680554946258    -0.380786464047    12.000000000000
      Gh(C)           2.478131560845     5.653576659148    -0.380574342044    12.000000000000
      Gh(C)           1.221422482727    -4.970127147116    -0.382509879141    12.000000000000
      Gh(C)          -3.693162305975     3.542796862009    -0.382606252017    12.000000000000
      Gh(C)          -1.221428442955    -4.970118395779    -0.382622640974    12.000000000000
      Gh(C)          -4.914521729952     1.427175354812    -0.382744614105    12.000000000000
      Gh(C)           3.656787097669    -4.972955318422    -0.380412621160    12.000000000000
      Gh(C)          -2.478138452116     5.653574330345    -0.380289817035    12.000000000000
      Gh(C)          -3.693141660574    -3.542790311162    -0.379847051973    12.000000000000
      Gh(C)          -4.914512405063    -1.427181092211    -0.379814119204    12.000000000000
      Gh(C)          -0.000005930936    -5.650438379197    -0.381153699574    12.000000000000
      Gh(C)          -4.893020406111     2.825188506736    -0.381614972614    12.000000000000
      Gh(C)           2.478126071288    -5.653573636072    -0.381503221952    12.000000000000
      Gh(C)          -3.656798632268     4.972956089858    -0.381686441319    12.000000000000
      Gh(C)          -4.892999400866    -2.825191859243    -0.381147774556    12.000000000000
      Gh(C)          -2.478128420093    -5.653566262190    -0.381778409599    12.000000000000
      Gh(C)          -6.134770425341     0.680548674073    -0.382077336265    12.000000000000
      Gh(C)          -3.656788755199    -4.972944115154    -0.380626908976    12.000000000000
      Gh(C)          -6.134764964923    -0.680554007665    -0.380806939842    12.000000000000
      Gh(H)           5.835288573806     3.369275802771    -0.377245565091     1.007825032230
      Gh(H)           7.073859250737     1.228217156716    -0.381590141170     1.007825032230
      Gh(H)           4.600663342164     5.512380710270    -0.381357920942     1.007825032230
      Gh(H)           5.835283465295    -3.369306148912    -0.385448206173     1.007825032230
      Gh(H)          -0.000012073316     6.738530581953    -0.385107440460     1.007825032230
      Gh(H)           7.073861249820    -1.228227034927    -0.381295202141     1.007825032230
      Gh(H)           2.473313809789     6.740684199211    -0.381041062974     1.007825032230
      Gh(H)           4.600668569371    -5.512376221359    -0.380822618328     1.007825032230
      Gh(H)          -2.473318602548     6.740681627423    -0.380739716349     1.007825032230
      Gh(H)          -0.000010190238    -6.738528268635    -0.376624014589     1.007825032230
      Gh(H)          -5.835301836354     3.369270858113    -0.377109542943     1.007825032230
      Gh(H)           2.473308001821    -6.740685466612    -0.380932891527     1.007825032230
      Gh(H)          -4.600674763218     5.512377934420    -0.381192592618     1.007825032230
      Gh(H)          -5.835279428845    -3.369289055963    -0.385727512054     1.007825032230
      Gh(H)          -2.473300269450    -6.740679170323    -0.381382208071     1.007825032230
      Gh(H)          -7.073857688778     1.228220380657    -0.381674132650     1.007825032230
      Gh(H)          -4.600673708095    -5.512362761970    -0.380994926351     1.007825032230
      Gh(H)          -7.073856856419    -1.228220724160    -0.381390058608     1.007825032230

  Running in c1 symmetry.

  Rotational constants: A =      0.00197  B =      0.00197  C =      0.00110 [cm^-1]
  Rotational constants: A =     59.17755  B =     59.16945  C =     33.02251 [MHz]
  Nuclear repulsion =  178.879455044809106

  Charge       = -1
  Multiplicity = 1
  Electrons    = 42
  Nalpha       = 21
  Nbeta        = 21

  ==> Algorithm <==

  SCF Algorithm Type is DF.
  DIIS enabled.
  MOM disabled.
  Fractional occupation disabled.
  Guess Type is SAD.
  Energy threshold   = 1.00e-08
  Density threshold  = 1.00e-08
  Integral threshold = 1.00e-12

  ==> Primary Basis <==

  Basis Set: JUN-CC-PVDZ
    Blend: JUN-CC-PVDZ
    Number of shells: 526
    Number of basis functions: 1152
    Number of Cartesian functions: 1211
    Spherical Harmonics?: true
    Max angular momentum: 2

   => Loading Basis Set <=

    Name: (JUN-CC-PVDZ AUX)
    Role: JKFIT
    Keyword: DF_BASIS_SCF
    atoms 1     entry B          line    90 file /opt/software/pc2/EB-SW/software/PSI4/1.9-foss-2022a/share/psi4/basis/jun-cc-pvdz-jkfit.gbs 
    atoms 2-5   entry F          line   314 file /opt/software/pc2/EB-SW/software/PSI4/1.9-foss-2022a/share/psi4/basis/jun-cc-pvdz-jkfit.gbs 
    atoms 6-59  entry C          line   146 file /opt/software/pc2/EB-SW/software/PSI4/1.9-foss-2022a/share/psi4/basis/jun-cc-pvdz-jkfit.gbs 
    atoms 60-77 entry H          line    70 file /opt/software/pc2/EB-SW/software/PSI4/1.9-foss-2022a/share/psi4/basis/jun-cc-pvdz-jkfit.gbs 

  ==> Integral Setup <==

  ==> DiskDFJK: Density-Fitted J/K Matrices <==

    J tasked:                  Yes
    K tasked:                  Yes
    wK tasked:                  No
    OpenMP threads:             16
    Integrals threads:          16
    Memory [MiB]:            22888
    Algorithm:                Core
    Integral Cache:           LOAD
    Schwarz Cutoff:          1E-12
    Fitting Condition:       1E-10

   => Auxiliary Basis Set <=

  Basis Set: (JUN-CC-PVDZ AUX)
    Blend: JUN-CC-PVDZ-JKFIT
    Number of shells: 1755
    Number of basis functions: 5075
    Number of Cartesian functions: 5819
    Spherical Harmonics?: true
    Max angular momentum: 3

  Minimum eigenvalue in the overlap matrix is 5.8179605190E-10.
  Reciprocal condition number of the overlap matrix is 2.4376411978E-11.
    Using canonical orthogonalization.
  Overall, 14 of 1152 possible MOs eliminated.


  ==> Pre-Iterations <==

  SCF Guess: Superposition of Atomic Densities via on-the-fly atomic UHF (no occupation information).

   -------------------------
    Irrep   Nso     Nmo    
   -------------------------
     A       1152    1138 
   -------------------------
    Total    1152    1138
   -------------------------

  ==> Iterations <==

                           Total Energy        Delta E     RMS |[F,P]|

   @DF-RHF iter SAD:  -421.23045422475820   -4.21230e+02   0.00000e+00 
   @DF-RHF iter   1:  -422.65201281154657   -1.42156e+00   5.30760e-04 DIIS/ADIIS
   @DF-RHF iter   2:  -422.73500848720403   -8.29957e-02   3.24076e-04 DIIS/ADIIS
   @DF-RHF iter   3:  -422.77348785086662   -3.84794e-02   1.75281e-05 DIIS
   @DF-RHF iter   4:  -422.77385070454062   -3.62854e-04   2.79021e-06 DIIS
   @DF-RHF iter   5:  -422.77385946168374   -8.75714e-06   7.25762e-07 DIIS
   @DF-RHF iter   6:  -422.77386006011250   -5.98429e-07   1.48619e-07 DIIS
   @DF-RHF iter   7:  -422.77386008276153   -2.26490e-08   1.50918e-08 DIIS
   @DF-RHF iter   8:  -422.77386008300880   -2.47269e-10   4.12856e-09 DIIS
  Energy and wave function converged.


  ==> Post-Iterations <==

    Orbital Energies [Eh]
    ---------------------

    Doubly Occupied:                                                      

       1A    -26.067093     2A    -26.066999     3A    -26.066918  
       4A    -26.066897     5A     -7.538278     6A     -1.410466  
       7A     -1.350918     8A     -1.350852     9A     -1.350691  
      10A     -0.601731    11A     -0.527959    12A     -0.527951  
      13A     -0.527866    14A     -0.446846    15A     -0.446804  
      16A     -0.408187    17A     -0.408103    18A     -0.408018  
      19A     -0.384614    20A     -0.384552    21A     -0.384404  

    Virtual:                                                              

      22A      0.092729    23A      0.093376    24A      0.093382  
      25A      0.099689    26A      0.099692    27A      0.110826  
      28A      0.111522    29A      0.126071    30A      0.126895  
      31A      0.126896    32A      0.136543    33A      0.136545  
      34A      0.144801    35A      0.144808    36A      0.147776  
      37A      0.150566    38A      0.150569    39A      0.151561  
      40A      0.151578    41A      0.162615    42A      0.162618  
      43A      0.162965    44A      0.165758    45A      0.166032  
      46A      0.171252    47A      0.171453    48A      0.179033  
      49A      0.179305    50A      0.182550    51A      0.183872  
      52A      0.183878    53A      0.190288    54A      0.190292  
      55A      0.190581    56A      0.190595    57A      0.196297  
      58A      0.196327    59A      0.202560    60A      0.203473  
      61A      0.203479    62A      0.205698    63A      0.205712  
      64A      0.207765    65A      0.207772    66A      0.209307  
      67A      0.215025    68A      0.215026    69A      0.216277  
      70A      0.216288    71A      0.221241    72A      0.224544  
      73A      0.224546    74A      0.226146    75A      0.226688  
      76A      0.235239    77A      0.235258    78A      0.235625  
      79A      0.238950    80A      0.238975    81A      0.239923  
      82A      0.239927    83A      0.242905    84A      0.246737  
      85A      0.246740    86A      0.246981    87A      0.248117  
      88A      0.250927    89A      0.258138    90A      0.258172  
      91A      0.259700    92A      0.261479    93A      0.265802  
      94A      0.270138    95A      0.270819    96A      0.270823  
      97A      0.275934    98A      0.278295    99A      0.278326  
     100A      0.280080   101A      0.280083   102A      0.283738  
     103A      0.283748   104A      0.285613   105A      0.285621  
     106A      0.286092   107A      0.289665   108A      0.289668  
     109A      0.295668   110A      0.296272   111A      0.302248  
     112A      0.302278   113A      0.305904   114A      0.305912  
     115A      0.310598   116A      0.312668   117A      0.312785  
     118A      0.312805   119A      0.315390   120A      0.315413  
     121A      0.317848   122A      0.322345   123A      0.327652  
     124A      0.327696   125A      0.329104   126A      0.329240  
     127A      0.329261   128A      0.331061   129A      0.331069  
     130A      0.339737   131A      0.339836   132A      0.339862  
     133A      0.345330   134A      0.345346   135A      0.350262  
     136A      0.350520   137A      0.350557   138A      0.354695  
     139A      0.354846   140A      0.354869   141A      0.355514  
     142A      0.358439   143A      0.358446   144A      0.362210  
     145A      0.362212   146A      0.364392   147A      0.369630  
     148A      0.371660   149A      0.384074   150A      0.387399  
     151A      0.387407   152A      0.390415   153A      0.390454  
     154A      0.391570   155A      0.393880   156A      0.393896  
     157A      0.394272   158A      0.403951   159A      0.403953  
     160A      0.404472   161A      0.411367   162A      0.411451  
     163A      0.411862   164A      0.412688   165A      0.412741  
     166A      0.414335   167A      0.414842   168A      0.421887  
     169A      0.427921   170A      0.429701   171A      0.429743  
     172A      0.436877   173A      0.436938   174A      0.438738  
     175A      0.438755   176A      0.442465   177A      0.443367  
     178A      0.444828   179A      0.445137   180A      0.446150  
     181A      0.448222   182A      0.448254   183A      0.452964  
     184A      0.453539   185A      0.453921   186A      0.454040  
     187A      0.459034   188A      0.463841   189A      0.463894  
     190A      0.466144   191A      0.466222   192A      0.470051  
     193A      0.470074   194A      0.471325   195A      0.471453  
     196A      0.481905   197A      0.481920   198A      0.485117  
     199A      0.485145   200A      0.486940   201A      0.492633  
     202A      0.494864   203A      0.494899   204A      0.501737  
     205A      0.503909   206A      0.507773   207A      0.507799  
     208A      0.508954   209A      0.510437   210A      0.514819  
     211A      0.515003   212A      0.515885   213A      0.515975  
     214A      0.516325   215A      0.520813   216A      0.520848  
     217A      0.521029   218A      0.523630   219A      0.523696  
     220A      0.524978   221A      0.526587   222A      0.526637  
     223A      0.531193   224A      0.531235   225A      0.532600  
     226A      0.536774   227A      0.539649   228A      0.545557  
     229A      0.545583   230A      0.555821   231A      0.555844  
     232A      0.557610   233A      0.557770   234A      0.562307  
     235A      0.562775   236A      0.562918   237A      0.564786  
     238A      0.565377   239A      0.565397   240A      0.566149  
     241A      0.571648   242A      0.571723   243A      0.573386  
     244A      0.573472   245A      0.578011   246A      0.580453  
     247A      0.582107   248A      0.582277   249A      0.590535  
     250A      0.590576   251A      0.593892   252A      0.601033  
     253A      0.604764   254A      0.604894   255A      0.606026  
     256A      0.608113   257A      0.608144   258A      0.608692  
     259A      0.608721   260A      0.609423   261A      0.611127  
     262A      0.611389   263A      0.616589   264A      0.616687  
     265A      0.631171   266A      0.635763   267A      0.635923  
     268A      0.637113   269A      0.637162   270A      0.638712  
     271A      0.638746   272A      0.645065   273A      0.648397  
     274A      0.648513   275A      0.649630   276A      0.649653  
     277A      0.654717   278A      0.654783   279A      0.659374  
     280A      0.660684   281A      0.662748   282A      0.662760  
     283A      0.670309   284A      0.670399   285A      0.678567  
     286A      0.678609   287A      0.679407   288A      0.681403  
     289A      0.681507   290A      0.688440   291A      0.690594  
     292A      0.690705   293A      0.695292   294A      0.695314  
     295A      0.697540   296A      0.697590   297A      0.703011  
     298A      0.705202   299A      0.705293   300A      0.709401  
     301A      0.719285   302A      0.719313   303A      0.725779  
     304A      0.728391   305A      0.728830   306A      0.728838  
     307A      0.730979   308A      0.731531   309A      0.735136  
     310A      0.743434   311A      0.743484   312A      0.746016  
     313A      0.747007   314A      0.747064   315A      0.752774  
     316A      0.758390   317A      0.762935   318A      0.762987  
     319A      0.771667   320A      0.771717   321A      0.772978  
     322A      0.775955   323A      0.776028   324A      0.777135  
     325A      0.780463   326A      0.780527   327A      0.784545  
     328A      0.788575   329A      0.793020   330A      0.793047  
     331A      0.798319   332A      0.800576   333A      0.800632  
     334A      0.803311   335A      0.808220   336A      0.808259  
     337A      0.816364   338A      0.816540   339A      0.823213  
     340A      0.823266   341A      0.827328   342A      0.830336  
     343A      0.830532   344A      0.832202   345A      0.836603  
     346A      0.836793   347A      0.840297   348A      0.843425  
     349A      0.843455   350A      0.846782   351A      0.858251  
     352A      0.860488   353A      0.860508   354A      0.863937  
     355A      0.864016   356A      0.870009   357A      0.870118  
     358A      0.879997   359A      0.880265   360A      0.880605  
     361A      0.882395   362A      0.882403   363A      0.884699  
     364A      0.884795   365A      0.885070   366A      0.891458  
     367A      0.892869   368A      0.892885   369A      0.893131  
     370A      0.893993   371A      0.894026   372A      0.894049  
     373A      0.911209   374A      0.912912   375A      0.912921  
     376A      0.918438   377A      0.918655   378A      0.933817  
     379A      0.933924   380A      0.935612   381A      0.935712  
     382A      0.939628   383A      0.961070   384A      0.969920  
     385A      0.971124   386A      0.971147   387A      0.984834  
     388A      0.984895   389A      0.986271   390A      0.986306  
     391A      0.988453   392A      0.988618   393A      0.988957  
     394A      0.993979   395A      1.004448   396A      1.027443  
     397A      1.027570   398A      1.039887   399A      1.044409  
     400A      1.044422   401A      1.050819   402A      1.050971  
     403A      1.058676   404A      1.058710   405A      1.064617  
     406A      1.066308   407A      1.072914   408A      1.072918  
     409A      1.075240   410A      1.075522   411A      1.075830  
     412A      1.105683   413A      1.105959   414A      1.116484  
     415A      1.134842   416A      1.134910   417A      1.147236  
     418A      1.147250   419A      1.150675   420A      1.161279  
     421A      1.161322   422A      1.167631   423A      1.167668  
     424A      1.185222   425A      1.185250   426A      1.186314  
     427A      1.197863   428A      1.249372   429A      1.256622  
     430A      1.256691   431A      1.257188   432A      1.257220  
     433A      1.266057   434A      1.266070   435A      1.273644  
     436A      1.291420   437A      1.291469   438A      1.313668  
     439A      1.313677   440A      1.320185   441A      1.331839  
     442A      1.334241   443A      1.369970   444A      1.370145  
     445A      1.393979   446A      1.398319   447A      1.398394  
     448A      1.401134   449A      1.401217   450A      1.407166  
     451A      1.413956   452A      1.414022   453A      1.426550  
     454A      1.431893   455A      1.451990   456A      1.468696  
     457A      1.468758   458A      1.525851   459A      1.553750  
     460A      1.553978   461A      1.565751   462A      1.565791  
     463A      1.573352   464A      1.573445   465A      1.584899  
     466A      1.589045   467A      1.589549   468A      1.609226  
     469A      1.651851   470A      1.659906   471A      1.660119  
     472A      1.674769   473A      1.675340   474A      1.676578  
     475A      1.683882   476A      1.683921   477A      1.698465  
     478A      1.717042   479A      1.741187   480A      1.744061  
     481A      1.744440   482A      1.760421   483A      1.769723  
     484A      1.770146   485A      1.780080   486A      1.788614  
     487A      1.789637   488A      1.797623   489A      1.798666  
     490A      1.807859   491A      1.826422   492A      1.836837  
     493A      1.837845   494A      1.839057   495A      1.840178  
     496A      1.842663   497A      1.846819   498A      1.846965  
     499A      1.857242   500A      1.864425   501A      1.875505  
     502A      1.876214   503A      1.877100   504A      1.884143  
     505A      1.884730   506A      1.887219   507A      1.888472  
     508A      1.911123   509A      1.915263   510A      1.916186  
     511A      1.918985   512A      1.919270   513A      1.920569  
     514A      1.920708   515A      1.920968   516A      1.930208  
     517A      1.930406   518A      1.930864   519A      1.931305  
     520A      1.939198   521A      1.939943   522A      1.940142  
     523A      1.950538   524A      1.951586   525A      1.968078  
     526A      1.969531   527A      1.972304   528A      1.972548  
     529A      1.975903   530A      1.980920   531A      1.981204  
     532A      1.990065   533A      1.995385   534A      1.995596  
     535A      2.005220   536A      2.005266   537A      2.007622  
     538A      2.008003   539A      2.009703   540A      2.012035  
     541A      2.015035   542A      2.015587   543A      2.021548  
     544A      2.022106   545A      2.030157   546A      2.030286  
     547A      2.032712   548A      2.039571   549A      2.045474  
     550A      2.045508   551A      2.057003   552A      2.057140  
     553A      2.058117   554A      2.063607   555A      2.064177  
     556A      2.065157   557A      2.074641   558A      2.074831  
     559A      2.084373   560A      2.084434   561A      2.084701  
     562A      2.085604   563A      2.085831   564A      2.091327  
     565A      2.091898   566A      2.094134   567A      2.094190  
     568A      2.095560   569A      2.103544   570A      2.103568  
     571A      2.117670   572A      2.117916   573A      2.140079  
     574A      2.140254   575A      2.140631   576A      2.158533  
     577A      2.158582   578A      2.164030   579A      2.170346  
     580A      2.170911   581A      2.171062   582A      2.172173  
     583A      2.181317   584A      2.184406   585A      2.184751  
     586A      2.185039   587A      2.188846   588A      2.189109  
     589A      2.190908   590A      2.206732   591A      2.215093  
     592A      2.215222   593A      2.217681   594A      2.223681  
     595A      2.223748   596A      2.226476   597A      2.226548  
     598A      2.230330   599A      2.230643   600A      2.237576  
     601A      2.237631   602A      2.237754   603A      2.239582  
     604A      2.239634   605A      2.244309   606A      2.245372  
     607A      2.246976   608A      2.247083   609A      2.248702  
     610A      2.248717   611A      2.251778   612A      2.251941  
     613A      2.253668   614A      2.253693   615A      2.256662  
     616A      2.256711   617A      2.256980   618A      2.263712  
     619A      2.263821   620A      2.264842   621A      2.267032  
     622A      2.267068   623A      2.274718   624A      2.277510  
     625A      2.281977   626A      2.282186   627A      2.283331  
     628A      2.283380   629A      2.287617   630A      2.287674  
     631A      2.293645   632A      2.294384   633A      2.294453  
     634A      2.295727   635A      2.314626   636A      2.314696  
     637A      2.325053   638A      2.335977   639A      2.337278  
     640A      2.341461   641A      2.341490   642A      2.343482  
     643A      2.343549   644A      2.352795   645A      2.353838  
     646A      2.354712   647A      2.360752   648A      2.360823  
     649A      2.368393   650A      2.369634   651A      2.369703  
     652A      2.370205   653A      2.371373   654A      2.371950  
     655A      2.378336   656A      2.378563   657A      2.378794  
     658A      2.382777   659A      2.382979   660A      2.386009  
     661A      2.400501   662A      2.400605   663A      2.403621  
     664A      2.403673   665A      2.405506   666A      2.412321  
     667A      2.427238   668A      2.427272   669A      2.428108  
     670A      2.438820   671A      2.438855   672A      2.451557  
     673A      2.452661   674A      2.455120   675A      2.455303  
     676A      2.455639   677A      2.461218   678A      2.464640  
     679A      2.464833   680A      2.465595   681A      2.471015  
     682A      2.471092   683A      2.473036   684A      2.473066  
     685A      2.473822   686A      2.481294   687A      2.491340  
     688A      2.491532   689A      2.491717   690A      2.505472  
     691A      2.507855   692A      2.508000   693A      2.515121  
     694A      2.515178   695A      2.520205   696A      2.520306  
     697A      2.520321   698A      2.521419   699A      2.531729  
     700A      2.538798   701A      2.538877   702A      2.560309  
     703A      2.560353   704A      2.564794   705A      2.567580  
     706A      2.567686   707A      2.571311   708A      2.575965  
     709A      2.576088   710A      2.583120   711A      2.583214  
     712A      2.586014   713A      2.598054   714A      2.598089  
     715A      2.601480   716A      2.601669   717A      2.601978  
     718A      2.606062   719A      2.615971   720A      2.619205  
     721A      2.619522   722A      2.621568   723A      2.629221  
     724A      2.631617   725A      2.631671   726A      2.634205  
     727A      2.642614   728A      2.648159   729A      2.648190  
     730A      2.655229   731A      2.655618   732A      2.660135  
     733A      2.660229   734A      2.660465   735A      2.661525  
     736A      2.666607   737A      2.679078   738A      2.679224  
     739A      2.698897   740A      2.698983   741A      2.706456  
     742A      2.714356   743A      2.714743   744A      2.718830  
     745A      2.718953   746A      2.721122   747A      2.724467  
     748A      2.725036   749A      2.725164   750A      2.729365  
     751A      2.737350   752A      2.737543   753A      2.745619  
     754A      2.750597   755A      2.750922   756A      2.758420  
     757A      2.758491   758A      2.763766   759A      2.764084  
     760A      2.771437   761A      2.775118   762A      2.775529  
     763A      2.782228   764A      2.782250   765A      2.795001  
     766A      2.795148   767A      2.799277   768A      2.800744  
     769A      2.810261   770A      2.810444   771A      2.812908  
     772A      2.818707   773A      2.818730   774A      2.823348  
[...]
     727A      1.451364   728A      1.453719   729A      1.455457  
     730A      1.455523   731A      1.465780   732A      1.465828  
     733A      1.486983   734A      1.487045   735A      1.507013  
     736A      1.516794   737A      1.516864   738A      1.525048  
     739A      1.525119   740A      1.528895   741A      1.529185  
     742A      1.539491   743A      1.552721   744A      1.596439  
     745A      1.601566   746A      1.602324   747A      1.606437  
     748A      1.611168   749A      1.611349   750A      1.624582  
     751A      1.624932   752A      1.625009   753A      1.630594  
     754A      1.630718   755A      1.642551   756A      1.642618  
     757A      1.643729   758A      1.643949   759A      1.644281  
     760A      1.645469   761A      1.648409   762A      1.648463  
     763A      1.658643   764A      1.663456   765A      1.663482  
     766A      1.667576   767A      1.671960   768A      1.677555  
     769A      1.677598   770A      1.677832   771A      1.681565  
     772A      1.681650   773A      1.688204   774A      1.690622  
     775A      1.690987   776A      1.691032   777A      1.698583  
     778A      1.699133   779A      1.699184   780A      1.709456  
     781A      1.709742   782A      1.709823   783A      1.715910  
     784A      1.715981   785A      1.742424   786A      1.748877  
     787A      1.751780   788A      1.761200   789A      1.762861  
     790A      1.763290   791A      1.763314   792A      1.769070  
     793A      1.769231   794A      1.790460   795A      1.790537  
     796A      1.795494   797A      1.795540   798A      1.816840  
     799A      1.818564   800A      1.818681   801A      1.825116  
     802A      1.825227   803A      1.839986   804A      1.840014  
     805A      1.841136   806A      1.842552   807A      1.850440  
     808A      1.853423   809A      1.853498   810A      1.858250  
     811A      1.863740   812A      1.863772   813A      1.865633  
     814A      1.870026   815A      1.872162   816A      1.872274  
     817A      1.885658   818A      1.885799   819A      1.887781  
     820A      1.899070   821A      1.899096   822A      1.906592  
     823A      1.909011   824A      1.909277   825A      1.913156  
     826A      1.913246   827A      1.919581   828A      1.919751  
     829A      1.921165   830A      1.922455   831A      1.922600  
     832A      1.924659   833A      1.924729   834A      1.927442  
     835A      1.941320   836A      1.943391   837A      1.945728  
     838A      1.945834   839A      1.948679   840A      1.948715  
     841A      1.957226   842A      1.957294   843A      1.958271  
     844A      1.969216   845A      1.969413   846A      1.982659  
     847A      1.994139   848A      1.994267   849A      1.997420  
     850A      2.002297   851A      2.002367   852A      2.006145  
     853A      2.009923   854A      2.014763   855A      2.014952  
     856A      2.015142   857A      2.030483   858A      2.031684  
     859A      2.031968   860A      2.032173   861A      2.036783  
     862A      2.038788   863A      2.038989   864A      2.048200  
     865A      2.055519   866A      2.055630   867A      2.062402  
     868A      2.062617   869A      2.070504   870A      2.071271  
     871A      2.071424   872A      2.076563   873A      2.077000  
     874A      2.079378   875A      2.079428   876A      2.080862  
     877A      2.092809   878A      2.095191   879A      2.098124  
     880A      2.099051   881A      2.100972   882A      2.102145  
     883A      2.102261   884A      2.106667   885A      2.106889  
     886A      2.111021   887A      2.111144   888A      2.113870  
     889A      2.119230   890A      2.119737   891A      2.119806  
     892A      2.122911   893A      2.123133   894A      2.125047  
     895A      2.125097   896A      2.131276   897A      2.134785  
     898A      2.135344   899A      2.135540   900A      2.138125  
     901A      2.138331   902A      2.145386   903A      2.145482  
     904A      2.147706   905A      2.163385   906A      2.163673  
     907A      2.163703   908A      2.174066   909A      2.176521  
     910A      2.176702   911A      2.181625   912A      2.181733  
     913A      2.193278   914A      2.195363   915A      2.197914  
     916A      2.198471   917A      2.198968   918A      2.199004  
     919A      2.199346   920A      2.219916   921A      2.223565  
     922A      2.223591   923A      2.233185   924A      2.233633  
     925A      2.238159   926A      2.238359   927A      2.245728  
     928A      2.245838   929A      2.247039   930A      2.247194  
     931A      2.248642   932A      2.255378   933A      2.262554  
     934A      2.262603   935A      2.270733   936A      2.270750  
     937A      2.273007   938A      2.273039   939A      2.281298  
     940A      2.301511   941A      2.307080   942A      2.317159  
     943A      2.317865   944A      2.329515   945A      2.333079  
     946A      2.333189   947A      2.340875   948A      2.343452  
     949A      2.353384   950A      2.353873   951A      2.354226  
     952A      2.354438   953A      2.359790   954A      2.370340  
     955A      2.370570   956A      2.378315   957A      2.401106  
     958A      2.417429   959A      2.424458   960A      2.424752  
     961A      2.424792   962A      2.436625   963A      2.442260  
     964A      2.442302   965A      2.471224   966A      2.480095  
     967A      2.480230   968A      2.490351   969A      2.490379  
     970A      2.505448   971A      2.523090   972A      2.531338  
     973A      2.539567   974A      2.547277   975A      2.547299  
     976A      2.550431   977A      2.554653   978A      2.554704  
     979A      2.555109   980A      2.560555   981A      2.560557  
     982A      2.573400   983A      2.573431   984A      2.577255  
     985A      2.577679   986A      2.588222   987A      2.588286  
     988A      2.590623   989A      2.593674   990A      2.596325  
     991A      2.610014   992A      2.625741   993A      2.625819  
     994A      2.633213   995A      2.633706   996A      2.635197  
     997A      2.643454   998A      2.643522   999A      2.654579  
    1000A      2.654868  1001A      2.659441  1002A      2.684464  
    1003A      2.688214  1004A      2.689031  1005A      2.697957  
    1006A      2.710217  1007A      2.710582  1008A      2.713480  
    1009A      2.713491  1010A      2.719340  1011A      2.719380  
    1012A      2.726887  1013A      2.727055  1014A      2.753417  
    1015A      2.758090  1016A      2.758394  1017A      2.777575  
    1018A      2.798454  1019A      2.798507  1020A      2.828430  
    1021A      2.829221  1022A      2.830118  1023A      2.856326  
    1024A      2.856528  1025A      2.856606  1026A      2.858652  
    1027A      2.864803  1028A      2.865070  1029A      2.876704  
    1030A      2.879966  1031A      2.903723  1032A      2.904275  
    1033A      2.920429  1034A      2.920464  1035A      2.928916  
    1036A      2.937003  1037A      2.937059  1038A      2.954586  
    1039A      2.954694  1040A      2.963746  1041A      3.014260  
    1042A      3.018605  1043A      3.018806  1044A      3.045487  
    1045A      3.064746  1046A      3.064789  1047A      3.073491  
    1048A      3.073546  1049A      3.118966  1050A      3.119527  
    1051A      3.133602  1052A      3.133835  1053A      3.134829  
    1054A      3.139495  1055A      3.148092  1056A      3.148155  
    1057A      3.148248  1058A      3.152411  1059A      3.152430  
    1060A      3.164453  1061A      3.165305  1062A      3.170208  
    1063A      3.170918  1064A      3.191904  1065A      3.211333  
    1066A      3.222405  1067A      3.247797  1068A      3.278233  
    1069A      3.278450  1070A      3.281018  1071A      3.291656  
    1072A      3.291709  1073A      3.421954  1074A      3.422246  
    1075A      3.482381  1076A      3.491793  1077A      3.493437  
    1078A      3.556652  1079A      3.598836  1080A      3.600343  
    1081A      3.610743  1082A      3.631618  1083A      3.633045  
    1084A      3.664782  1085A      3.676387  1086A      3.777158  
    1087A      3.801744  1088A      3.802780  1089A      3.871703  
    1090A      3.871722  1091A      3.915156  1092A      3.915208  
    1093A      3.978403  1094A      4.011771  1095A      4.070335  
    1096A      4.079598  1097A      4.129042  1098A      4.412906  
    1099A      4.498161  1100A      4.498609  1101A      4.545066  
    1102A      5.766912  1103A      5.766969  1104A      5.767859  
    1105A      5.772990  1106A      5.773798  1107A      5.773917  
    1108A      5.782351  1109A      5.782491  1110A      5.824821  
    1111A      5.824958  1112A      5.837344  1113A      6.030529  
    1114A      6.030847  1115A      6.037069  1116A      6.213694  
    1117A      6.336061  1118A      6.336346  1119A      6.395681  
    1120A      6.396050  1121A      6.403761  1122A      7.311791  
    1123A      7.311995  1124A      7.377048  1125A      7.381733  
    1126A      7.382033  1127A      7.466117  1128A      7.466450  
    1129A      7.522129  1130A      7.569319  1131A      7.666425  
    1132A      7.666641  1133A      7.840529  1134A     12.765059  
    1135A     42.947980  1136A     42.973979  1137A     42.974057  
    1138A     42.979614  

    Final Occupation by Irrep:
              A 
    DOCC [   171 ]
    NA   [   171 ]
    NB   [   171 ]

  @DF-RHF Final Energy: -2055.89416987745471

   => Energetics <=

    Nuclear Repulsion Energy =           6452.5568002797781446
    One-Electron Energy =              -15636.4907022954776039
    Two-Electron Energy =                7128.0397321382442897
    Total Energy =                      -2055.8941698774542601

Computation Completed


Properties will be evaluated at   0.000000,   0.000000,   0.000000 [a0]

Properties computed using the SCF density matrix


 Multipole Moments:

 ------------------------------------------------------------------------------------
     Multipole            Electronic (a.u.)      Nuclear  (a.u.)        Total (a.u.)
 ------------------------------------------------------------------------------------

 L = 1.  Multiply by 2.5417464519 to convert [e a0] to [Debye]
 Dipole X            :          0.0000124            0.0000419            0.0000543
 Dipole Y            :          0.0000645           -0.0000426            0.0000220
 Dipole Z            :        246.3758725         -246.3739970            0.0018754
 Magnitude           :                                                    0.0018764

 ------------------------------------------------------------------------------------

*** tstop() called on n2cn0236 at Wed Feb  7 00:35:40 2024
Module time:
	user time   =    2639.54 seconds =      43.99 minutes
	system time =      74.47 seconds =       1.24 minutes
	total time  =        192 seconds =       3.20 minutes
Total time:
	user time   =    8078.54 seconds =     134.64 minutes
	system time =     259.20 seconds =       4.32 minutes
	total time  =        652 seconds =      10.87 minutes
  Constructing Basis Sets for SAPT...

   => Loading Basis Set <=

    Name: (JUN-CC-PVDZ AUX)
    Role: RIFIT
    Keyword: DF_BASIS_SAPT
    atoms 1     entry B          line    56 file /opt/software/pc2/EB-SW/software/PSI4/1.9-foss-2022a/share/psi4/basis/jun-cc-pvdz-ri.gbs 
    atoms 2-5   entry F          line   232 file /opt/software/pc2/EB-SW/software/PSI4/1.9-foss-2022a/share/psi4/basis/jun-cc-pvdz-ri.gbs 
    atoms 6-59  entry C          line   100 file /opt/software/pc2/EB-SW/software/PSI4/1.9-foss-2022a/share/psi4/basis/jun-cc-pvdz-ri.gbs 
    atoms 60-77 entry H          line    30 file /opt/software/pc2/EB-SW/software/PSI4/1.9-foss-2022a/share/psi4/basis/jun-cc-pvdz-ri.gbs 

   => Loading Basis Set <=

    Name: (JUN-CC-PVDZ AUX)
    Role: JKFIT
    Keyword: DF_BASIS_ELST
    atoms 1     entry B          line    90 file /opt/software/pc2/EB-SW/software/PSI4/1.9-foss-2022a/share/psi4/basis/jun-cc-pvdz-jkfit.gbs 
    atoms 2-5   entry F          line   314 file /opt/software/pc2/EB-SW/software/PSI4/1.9-foss-2022a/share/psi4/basis/jun-cc-pvdz-jkfit.gbs 
    atoms 6-59  entry C          line   146 file /opt/software/pc2/EB-SW/software/PSI4/1.9-foss-2022a/share/psi4/basis/jun-cc-pvdz-jkfit.gbs 
    atoms 60-77 entry H          line    70 file /opt/software/pc2/EB-SW/software/PSI4/1.9-foss-2022a/share/psi4/basis/jun-cc-pvdz-jkfit.gbs 


  //>>>>>>>>>>>>>>>>>>>>>>>>>>>>>>>>>>>//
  //               SSAPT0              //
  //<<<<<<<<<<<<<<<<<<<<<<<<<<<<<<<<<<<//


*** tstart() called on n2cn0236
*** at Wed Feb  7 00:35:41 2024

        SAPT0  
    Ed Hohenstein
     6 June 2009

      Orbital Information
  --------------------------
    NSO        =      1152
    NMO        =      1138
    NRI        =      4087
    NRI (Elst) =      5075
    NOCC A     =        21
    NOCC B     =       171
    FOCC A     =         5
    FOCC B     =        54
    NVIR A     =      1117
    NVIR B     =       967

    Elst10,r            =     0.003795470304 [Eh]
    Exch10              =     0.025262910021 [Eh]
    Exch10 (S^2)        =     0.025193375364 [Eh]

    Iter     Energy [mEh]          dE [mEh]         Residual      Time [s]
       1      -2.49070821       2.490708212       8.206169669            17
       2      -3.11184044       0.621132229       3.057232395            31
       3      -3.16038166       0.048541218       0.528060282            44
       4      -3.15138319      -0.008998473       0.152790677            57
       5      -3.15116781      -0.000215371       0.042361340            71
       6      -3.15148792       0.000320110       0.011449048            84
       7      -3.15155044       0.000062519       0.002063218            97
       8      -3.15153143      -0.000019016       0.000341743           111
       9      -3.15153350       0.000002073       0.000052576           124
      10      -3.15153338      -0.000000116       0.000009345           137
      11      -3.15153337      -0.000000014       0.000001648           151
      12      -3.15153338       0.000000006       0.000000449           166

    CHF Iterations converged


    Iter     Energy [mEh]          dE [mEh]         Residual      Time [s]
       1     -31.87611780      31.876117798      88.641816312            15
       2     -22.96173156      -8.914386233      11.534322175            24
       3     -23.10105366       0.139322095       4.037978665            33
       4     -23.57753907       0.476485413       1.023944315            41
       5     -23.59975629       0.022217215       0.371627736            50
       6     -23.57538277      -0.024373519       0.152234901            59
       7     -23.57435775      -0.001025016       0.067285788            68
       8     -23.57757249       0.003214737       0.024563330            76
       9     -23.57780879       0.000236297       0.011863820            85
      10     -23.57739776      -0.000411028       0.007300515            94
      11     -23.57736103      -0.000036725       0.005058064           103
      12     -23.57746631       0.000105278       0.002863017           111
      13     -23.57749103       0.000024714       0.001256631           120
      14     -23.57746656      -0.000024470       0.000571069           129
      15     -23.57746108      -0.000005480       0.000215855           138
      16     -23.57746522       0.000004149       0.000092297           146
      17     -23.57746606       0.000000833       0.000037069           155
      18     -23.57746574      -0.000000313       0.000013472           164
      19     -23.57746547      -0.000000273       0.000006610           173
      20     -23.57746551       0.000000034       0.000003374           182
      21     -23.57746559       0.000000080       0.000001751           190
      22     -23.57746557      -0.000000011       0.000001076           199
      23     -23.57746556      -0.000000019       0.000000559           208

    CHF Iterations converged

    Ind20,r (A<-B)      =    -0.003151533376 [Eh]
    Ind20,r (B<-A)      =    -0.023577465556 [Eh]
    Ind20,r             =    -0.026728998931 [Eh]
    Exch-Ind20,r (A<-B) =     0.002910498514 [Eh]
    Exch-Ind20,r (B<-A) =     0.006194717782 [Eh]
    Exch-Ind20,r        =     0.009105216296 [Eh]
    Disp20              =    -0.018306511443 [Eh]
    Disp20 (SS)         =    -0.009153255722 [Eh]
    Disp20 (OS)         =    -0.009153255722 [Eh]
    Exch-Disp20         =     0.003041459042 [Eh]
    Exch-Disp20 (SS)    =     0.001735997068 [Eh]
    Exch-Disp20 (OS)    =     0.001305461975 [Eh]

    SAPT Results 
  --------------------------------------------------------------------------------------------------------
    Electrostatics                  3.79547030 [mEh]       2.38169357 [kcal/mol]       9.96500591 [kJ/mol]
      Elst10,r                      3.79547030 [mEh]       2.38169357 [kcal/mol]       9.96500591 [kJ/mol]

    Exchange                       25.26291002 [mEh]      15.85271537 [kcal/mol]      66.32776112 [kJ/mol]
      Exch10                       25.26291002 [mEh]      15.85271537 [kcal/mol]      66.32776112 [kJ/mol]
      Exch10(S^2)                  25.19337536 [mEh]      15.80908172 [kcal/mol]      66.14519791 [kJ/mol]

    Induction                     -19.61372407 [mEh]     -12.30779767 [kcal/mol]     -51.49582546 [kJ/mol]
      Ind20,r                     -26.72899893 [mEh]     -16.77270005 [kcal/mol]     -70.17697703 [kJ/mol]
      Exch-Ind20,r                  9.10521630 [mEh]       5.71360949 [kcal/mol]      23.90574209 [kJ/mol]
      delta HF,r (2)               -1.98994144 [mEh]      -1.24870710 [kcal/mol]      -5.22459053 [kJ/mol]

    Dispersion                    -15.26505240 [mEh]      -9.57896500 [kcal/mol]     -40.07838956 [kJ/mol]
      Disp20                      -18.30651144 [mEh]     -11.48750936 [kcal/mol]     -48.06373917 [kJ/mol]
      Exch-Disp20                   3.04145904 [mEh]       1.90854436 [kcal/mol]       7.98534962 [kJ/mol]
      Disp20 (SS)                  -9.15325572 [mEh]      -5.74375468 [kcal/mol]     -24.03186959 [kJ/mol]
      Disp20 (OS)                  -9.15325572 [mEh]      -5.74375468 [kcal/mol]     -24.03186959 [kJ/mol]
      Exch-Disp20 (SS)              1.73599707 [mEh]       1.08935461 [kcal/mol]       4.55785967 [kJ/mol]
      Exch-Disp20 (OS)              1.30546197 [mEh]       0.81918976 [kcal/mol]       3.42748994 [kJ/mol]

  Total HF                          9.44465625 [mEh]       5.92661127 [kcal/mol]      24.79694157 [kJ/mol]
  Total SAPT0                      -5.82039615 [mEh]      -3.65235372 [kcal/mol]     -15.28144798 [kJ/mol]

  Special recipe for scaled SAPT0 (see Manual):
    Electrostatics sSAPT0           3.79547030 [mEh]       2.38169357 [kcal/mol]       9.96500591 [kJ/mol]
    Exchange sSAPT0                25.26291002 [mEh]      15.85271537 [kcal/mol]      66.32776112 [kJ/mol]
    Induction sSAPT0              -19.53812359 [mEh]     -12.26035765 [kcal/mol]     -51.29733641 [kJ/mol]
    Dispersion sSAPT0             -15.23979921 [mEh]      -9.56311838 [kcal/mol]     -40.01208731 [kJ/mol]
  Total sSAPT0                     -5.71954247 [mEh]      -3.58906708 [kcal/mol]     -15.01665668 [kJ/mol]
  --------------------------------------------------------------------------------------------------------

*** tstop() called on n2cn0236 at Wed Feb  7 00:57:12 2024
Module time:
	user time   =    8713.09 seconds =     145.22 minutes
	system time =     554.67 seconds =       9.24 minutes
	total time  =       1291 seconds =      21.52 minutes
Total time:
	user time   =   16792.32 seconds =     279.87 minutes
	system time =     813.88 seconds =      13.56 minutes
	total time  =       1944 seconds =      32.40 minutes

    Psi4 stopped on: Wednesday, 07 February 2024 12:57AM
    Psi4 wall time for execution: 0:32:24.77

*** Psi4 exiting successfully. Buy a developer a beer!
