
    -----------------------------------------------------------------------
          Psi4: An Open-Source Ab Initio Electronic Structure Package
                               Psi4 1.9 release

                         Git: Rev {} zzzzzzz 


    D. G. A. Smith, L. A. Burns, A. C. Simmonett, R. M. Parrish,
    M. C. Schieber, R. Galvelis, P. Kraus, H. Kruse, R. Di Remigio,
    A. Alenaizan, A. M. James, S. Lehtola, J. P. Misiewicz, M. Scheurer,
    R. A. Shaw, J. B. Schriber, Y. Xie, Z. L. Glick, D. A. Sirianni,
    J. S. O'Brien, J. M. Waldrop, A. Kumar, E. G. Hohenstein,
    B. P. Pritchard, B. R. Brooks, H. F. Schaefer III, A. Yu. Sokolov,
    K. Patkowski, A. E. DePrince III, U. Bozkaya, R. A. King,
    F. A. Evangelista, J. M. Turney, T. D. Crawford, C. D. Sherrill,
    J. Chem. Phys. 152(18) 184108 (2020). https://doi.org/10.1063/5.0006002

                            Additional Code Authors
    E. T. Seidl, C. L. Janssen, E. F. Valeev, M. L. Leininger,
    J. F. Gonthier, R. M. Richard, H. R. McAlexander, M. Saitow, X. Wang,
    P. Verma, M. H. Lechner, A. Jiang, S. Behnle, A. G. Heide,
    M. F. Herbst, and D. L. Poole

             Previous Authors, Complete List of Code Contributors,
                       and Citations for Specific Modules
    https://github.com/psi4/psi4/blob/master/codemeta.json
    https://github.com/psi4/psi4/graphs/contributors
    http://psicode.org/psi4manual/master/introduction.html#citing-psifour

    -----------------------------------------------------------------------


    Psi4 started on: Saturday, 27 January 2024 10:41AM

    Process ID: 2858438
    Host:       n2cn0434
    PSIDATADIR: /opt/software/pc2/EB-SW/software/PSI4/1.9-foss-2022a/share/psi4
    Memory:     500.0 MiB
    Threads:    16
    
  ==> Input File <==

--------------------------------------------------------------------------
memory 64 GB # how much memory is available ! Depends on the nodes/cores !

molecule dimer {
# monomer A
-1 1    # Charge and multiplicity
B -1.977592e-04  2.742729e-04 3.200034
F  1.123153e-16  1.430594e-17 4.612819
F  1.147860e+00  6.757812e-01 2.728893
F  1.191806e-02 -1.332011e+00 2.729095
F -1.159666e+00  6.560735e-01 2.729174
--
# monomer B
0 1     # Charge and multiplicity
C   -3.66844126402057      7.80375217008252      0.00190004133558
C   -4.84759871934653      7.13124183134024     -0.00046653359696
C   -4.89495929917518      5.69633040353158     -0.00103944469517
C   -3.65374067877320      4.98073034095895      0.00662099703436
C   -2.40942512149445      7.11398103667468      0.00209438359570
C   -2.42547734410473      5.68112195090346     -0.00491050527438
C   -1.19474401643570      7.78614419430947      0.00356656413763
C   0.03795902893699      7.09942164575698      0.00139585983271
C   0.03033258741920      5.66948955970466     -0.00408752508301
C   -1.20098450790502      4.96927034791531      0.00488220885047
C   1.27795782581485      7.77285944319479      0.00277170839332
C   2.48535808472416      7.08769688523756      0.00049722048857
C   2.48612868491717      5.65477081024076     -0.00644052849921
C   1.25408291964399      4.95607811366431      0.00518741308898
C   3.75171459140595      7.76391215098033      0.00062407186893
C   4.92356605618520      7.07878077698995     -0.00143240883900
C   4.95560727132542      5.64344746336949     -0.00159282164606
C   3.70680153420475      4.94121020833308      0.00349873852374
H   -3.65852113775815      8.89082741913536      0.00358502958574
H   -1.18921332975660      8.87412108735996      0.00753844057883
H   1.28429423888630      8.86083343548850      0.00693053253426
H   3.75354208679975      8.85103527897216      0.00214659618464
H   5.86995870320703      7.61379483465560     -0.00235777588134
H   -5.78823170750226      7.67630221293400     -0.00202638095293
C   -6.09197395869619      4.99326001364347     -0.00291168518608
C   -6.12866148031747      3.58258016879823     -0.00171050815740
C   -3.66457974004527      3.56418217974434     -0.00463560277484
C   -4.89429820469869      2.86108077590057      0.00453338221034
C   -2.43733499489796      2.84761165708481      0.00719617576166
C   -1.20922785759670      3.54788693497833     -0.00648285103018
C   1.24714157216223      3.53468075142962     -0.00729145743546
C   0.01517603956900      2.83311183930540      0.00439272578912
C   2.46764517244071      2.82128997725533      0.00449278391269
C   3.70254947457969      3.52466015442405     -0.00899517692985
C   6.14498038638375      4.92757236613191     -0.00282626685777
C   6.16658835886151      3.51658447594213     -0.00065971342101
C   4.92460995845939      2.80840792535402      0.00587903281610
H   7.08990550964105      5.46688776622306     -0.00658814770723
H   -7.03104175110130      5.54268795285765     -0.00714490013730
C   -7.33969804112295      2.85841153457957     -0.00333767559888
C   -7.36488195805880      1.47032337158330     -0.00157213747140
C   -4.90350460894690      1.44442681216000     -0.00628840166334
C   -6.13225715261081      0.73993935705394      0.00600164231964
C   -3.67687480051673      0.72669714267312      0.00433931473643
C   -2.44565658606518      1.42964113326212     -0.00597039546461
C   -1.22360068130162      0.71532450163492      0.00545886906656
C   0.00763786931376      1.41738314923765      0.00392452278437
C   1.23121980774686      0.70211669058719     -0.01490206287210
C   2.46082110053113      1.40329203612573      0.00460244601878
C   3.68443025419614      0.68719842821222      0.00377365974158
C   4.91870890153864      1.39173456118907     -0.00862816189375
C   7.36980207796101      2.77948220318441     -0.00242013321349
C   7.38016266612146      1.39121750785509     -0.00087345036788
C   6.13979953912259      0.67411862320065      0.00545489144369
H   -8.27919079934664      3.40711804112415     -0.00763522772059
H   8.31511347147953      3.31811809662368     -0.00663070901292
C   -8.59175593758115      0.72483255304480     -0.00123170985383
C   -8.59902460370342     -0.63263980622873      0.00089141472904
C   -6.13981313911873     -0.67413663715361     -0.00609792660607
C   -7.38018411213749     -1.39126618958160      0.00131813493501
C   -4.91868448025621     -1.39175501803000      0.00624257154343
C   -3.68443829568458     -0.68723731573599     -0.00478966852105
C   -2.46081704024768     -1.40334517882457      0.00575341766833
C   -1.23116201232071     -0.70217386488055     -0.00636696112346
C   -0.00756962538737     -1.41741884941102      0.00108956317991
C   1.22364771588843     -0.71527537726392      0.01109518512883
C   2.44567064933149     -1.42964328900682     -0.00065482763106
C   3.67686670284649     -0.72670743155550     -0.00479541202602
C   6.13224884641929     -0.73997883984993     -0.00632338623858
C   4.90351914550401     -1.44445752054090      0.00751768830159
C   8.59901484869081      0.63260386666793     -0.00101133422380
C   8.59174548810050     -0.72485086719319      0.00072504603735
C   7.36486276438985     -1.47033266560598      0.00049486934466
H   -9.52830597181814      1.27684744919284     -0.00270163681798
H   9.54141097460619      1.17457248844457     -0.00206336648518
C   -7.36983790976868     -2.77954514593389      0.00312634335708
C   -4.92459910905015     -2.80843725734101     -0.00460528907921
C   -6.16662249566744     -3.51665219282533      0.00169655107992
C   -3.70251035970491     -3.52468154912026      0.00571878010666
C   -2.46764698511392     -2.82132596280400     -0.00632585824990
C   -0.01513347410770     -2.83314164539971     -0.00604426974092
C   -1.24712184122656     -3.53473217556300      0.00551968366725
C   1.20924506964357     -3.54791467864352      0.00805871345849
C   2.43733602215464     -2.84764173817541     -0.00608104485234
C   4.89430234377080     -2.86112296828604     -0.00526030478103
C   3.66461525504104     -3.56421984553201      0.00761911515957
C   6.12863901474565     -3.58258405771778      0.00096495711699
C   7.33967266469532     -2.85841330737039      0.00248018319869
H   -9.54144911125902     -1.17456346666430      0.00226083090216
H   9.52826186807155     -1.27691907390448      0.00197485379837
H   -8.31516504384864     -3.31814985321231      0.00729857188773
H   8.27915514249207     -3.40714078989363      0.00681973918158
C   -6.14499418870218     -4.92764727278338      0.00302254913999
C   -3.70678334799751     -4.94126171411716     -0.00679841894792
C   -4.95559005800169     -5.64349397349412      0.00116871569699
C   -2.48612132622665     -5.65478557440947      0.00614125209662
C   -1.25405833548005     -4.95612205000132     -0.00503435388927
C   1.20101257386816     -4.96928038819302     -0.00385322963129
C   -0.03033667441341     -5.66952030313900      0.00398997003238
C   3.65375010132847     -4.98074377541453     -0.00309522988330
C   2.42549269587528     -5.68117463552727      0.00628170066869
C   6.09196561781097     -4.99325796338655      0.00325918379042
C   4.89497644461045     -5.69634842095790      0.00202298796027
H   -7.08989238804069     -5.46699984223871      0.00742531082125
H   7.03105520920009     -5.54265853633254      0.00683896355417
C   -4.92354532219813     -7.07882109967734      0.00061394679214
C   -2.48534208823777     -7.08772807792913     -0.00189594564379
C   -3.75168589177895     -7.76394715763627     -0.00170126671874
C   -0.03794895698805     -7.09946487446944     -0.00168022049625
C   -1.27795610040136     -7.77290438466689     -0.00366491325785
C   2.40944432072629     -7.11402201200282     -0.00081701968533
C   1.19474993715296     -7.78618536556242     -0.00296931056689
C   4.84762105249800     -7.13126211057943      0.00168979497423
C   3.66847160587561     -7.80378799294376     -0.00065863938960
H   -5.86994035041618     -7.61383059804164      0.00215798365757
H   5.78824962538815     -7.67633218931421      0.00281691445618
H   -3.75352693944918     -8.85107156923607     -0.00353718114765
H   -1.28430440589466     -8.86087539249706     -0.00809229711623
H   1.18922157469537     -8.87416062058945     -0.00706194725726
H   3.65854661482387     -8.89086063405326     -0.00231318081200

    units angstrom      # Angstroms are the default
    no_reorient         # Geometry fixed, default
    symmetry c1         # C1 symmetry, default
}

set {
    scf_type DF         # Density fitting, faster than exact integrals
    freeze_core True    # Freeze core electrons
    basis jun-cc-pVDZ   # Jun-cc-pVDZ basis set, recommended for sSAPT0 in https://doi.org/10.1063/1.4867135
}

energy('ssapt0')        # Compute sSAPT0 energy, includes also SAPT0
--------------------------------------------------------------------------

  Memory set to  59.605 GiB by Python driver.

Scratch directory: /tmp/
   => Loading Basis Set <=

    Name: JUN-CC-PVDZ
    Role: ORBITAL
    Keyword: BASIS
    atoms 1                                                   entry B          line   130 file /opt/software/pc2/EB-SW/software/PSI4/1.9-foss-2022a/share/psi4/basis/jun-cc-pvdz.gbs 
    atoms 2-5                                                 entry F          line   266 file /opt/software/pc2/EB-SW/software/PSI4/1.9-foss-2022a/share/psi4/basis/jun-cc-pvdz.gbs 
    atoms 6-23, 30-42, 45-59, 62-78, 81-93, 98-108, 111-119   entry C          line   164 file /opt/software/pc2/EB-SW/software/PSI4/1.9-foss-2022a/share/psi4/basis/jun-cc-pvdz.gbs 
    atoms 24-29, 43-44, 60-61, 79-80, 94-97, 109-110, 120-125 entry H          line    36 file /opt/software/pc2/EB-SW/software/PSI4/1.9-foss-2022a/share/psi4/basis/jun-cc-pvdz.gbs 

   => Loading Basis Set <=

    Name: JUN-CC-PVDZ
    Role: ORBITAL
    Keyword: BASIS
    atoms 1                                                   entry B          line   130 file /opt/software/pc2/EB-SW/software/PSI4/1.9-foss-2022a/share/psi4/basis/jun-cc-pvdz.gbs 
    atoms 2-5                                                 entry F          line   266 file /opt/software/pc2/EB-SW/software/PSI4/1.9-foss-2022a/share/psi4/basis/jun-cc-pvdz.gbs 
    atoms 6-23, 30-42, 45-59, 62-78, 81-93, 98-108, 111-119   entry C          line   164 file /opt/software/pc2/EB-SW/software/PSI4/1.9-foss-2022a/share/psi4/basis/jun-cc-pvdz.gbs 
    atoms 24-29, 43-44, 60-61, 79-80, 94-97, 109-110, 120-125 entry H          line    36 file /opt/software/pc2/EB-SW/software/PSI4/1.9-foss-2022a/share/psi4/basis/jun-cc-pvdz.gbs 


  //>>>>>>>>>>>>>>>>>>>>>>>>>>>>>>>>>>>//
  //              Dimer HF             //
  //<<<<<<<<<<<<<<<<<<<<<<<<<<<<<<<<<<<//

   => Libint2 <=

    Primary   basis highest AM E, G, H:  5, 4, 3
    Auxiliary basis highest AM E, G, H:  6, 5, 4
    Onebody   basis highest AM E, G, H:  6, 5, 4
    Solid Harmonics ordering:            gaussian

*** tstart() called on n2cn0434
*** at Sat Jan 27 10:41:50 2024

   => Loading Basis Set <=

    Name: JUN-CC-PVDZ
    Role: ORBITAL
    Keyword: BASIS
    atoms 1                                                   entry B          line   130 file /opt/software/pc2/EB-SW/software/PSI4/1.9-foss-2022a/share/psi4/basis/jun-cc-pvdz.gbs 
    atoms 2-5                                                 entry F          line   266 file /opt/software/pc2/EB-SW/software/PSI4/1.9-foss-2022a/share/psi4/basis/jun-cc-pvdz.gbs 
    atoms 6-23, 30-42, 45-59, 62-78, 81-93, 98-108, 111-119   entry C          line   164 file /opt/software/pc2/EB-SW/software/PSI4/1.9-foss-2022a/share/psi4/basis/jun-cc-pvdz.gbs 
    atoms 24-29, 43-44, 60-61, 79-80, 94-97, 109-110, 120-125 entry H          line    36 file /opt/software/pc2/EB-SW/software/PSI4/1.9-foss-2022a/share/psi4/basis/jun-cc-pvdz.gbs 


         ---------------------------------------------------------
                                   SCF
               by Justin Turney, Rob Parrish, Andy Simmonett
                          and Daniel G. A. Smith
                              RHF Reference
                       16 Threads,  61035 MiB Core
         ---------------------------------------------------------

  ==> Geometry <==

    Molecular point group: c1
    Full point group: C1

    Geometry (in Angstrom), charge = -1, multiplicity = 1:

       Center              X                  Y                   Z               Mass       
    ------------   -----------------  -----------------  -----------------  -----------------
         B           -0.000201921932     0.000288800891     2.979629200586    11.009305360000
         F           -0.000004162732     0.000014527991     4.392414200586    18.998403162730
         F            1.147855837268     0.675795727991     2.508488200586    18.998403162730
         F            0.011913897268    -1.331996472009     2.508690200586    18.998403162730
         F           -1.159670162732     0.656088027991     2.508769200586    18.998403162730
         C           -3.668445426752     7.803766698073    -0.218504758079    12.000000000000
         C           -4.847602882078     7.131256359331    -0.220871333011    12.000000000000
         C           -4.894963461907     5.696344931522    -0.221444244109    12.000000000000
         C           -3.653744841505     4.980744868950    -0.213783802380    12.000000000000
         C           -2.409429284226     7.113995564665    -0.218310415819    12.000000000000
         C           -2.425481506836     5.681136478894    -0.225315304689    12.000000000000
         C           -1.194748179167     7.786158722300    -0.216838235277    12.000000000000
         C            0.037954866205     7.099436173748    -0.219008939581    12.000000000000
         C            0.030328424687     5.669504087695    -0.224492324497    12.000000000000
         C           -1.200988670637     4.969284875906    -0.215522590564    12.000000000000
         C            1.277953663083     7.772873971185    -0.217633091021    12.000000000000
         C            2.485353921992     7.087711413228    -0.219907578926    12.000000000000
         C            2.486124522185     5.654785338231    -0.226845327913    12.000000000000
         C            1.254078756912     4.956092641655    -0.215217386325    12.000000000000
         C            3.751710428674     7.763926678971    -0.219780727545    12.000000000000
         C            4.923561893453     7.078795304981    -0.221837208253    12.000000000000
         C            4.955603108594     5.643461991360    -0.221997621060    12.000000000000
         C            3.706797371473     4.941224736324    -0.216906060890    12.000000000000
         H           -3.658525300490     8.890841947126    -0.216819769828     1.007825032230
         H           -1.189217492488     8.874135615351    -0.212866358835     1.007825032230
         H            1.284290076155     8.860847963479    -0.213474266880     1.007825032230
         H            3.753537924068     8.851049806963    -0.218258203230     1.007825032230
         H            5.869954540475     7.613809362646    -0.222762575296     1.007825032230
         H           -5.788235870234     7.676316740925    -0.222431180367     1.007825032230
         C           -6.091978121428     4.993274541634    -0.223316484600    12.000000000000
         C           -6.128665643049     3.582594696789    -0.222115307572    12.000000000000
         C           -3.664583902777     3.564196707735    -0.225040402189    12.000000000000
         C           -4.894302367430     2.861095303891    -0.215871417204    12.000000000000
         C           -2.437339157630     2.847626185075    -0.213208623653    12.000000000000
         C           -1.209232020328     3.547901462969    -0.226887650444    12.000000000000
         C            1.247137409430     3.534695279420    -0.227696256850    12.000000000000
         C            0.015171876837     2.833126367296    -0.216012073625    12.000000000000
         C            2.467641009709     2.821304505246    -0.215912015502    12.000000000000
         C            3.702545311848     3.524674682415    -0.229399976344    12.000000000000
         C            6.144976223652     4.927586894122    -0.223231066272    12.000000000000
         C            6.166584196130     3.516599003933    -0.221064512835    12.000000000000
         C            4.924605795728     2.808422453345    -0.214525766598    12.000000000000
         H            7.089901346909     5.466902294214    -0.226992947121     1.007825032230
         H           -7.031045913833     5.542702480848    -0.227549699552     1.007825032230
         C           -7.339702203855     2.858426062570    -0.223742475013    12.000000000000
         C           -7.364886120791     1.470337899574    -0.221976936886    12.000000000000
         C           -4.903508771679     1.444441340151    -0.226693201078    12.000000000000
         C           -6.132261315343     0.739953885044    -0.214403157095    12.000000000000
         C           -3.676878963248     0.726711670664    -0.216065484678    12.000000000000
         C           -2.445660748797     1.429655661253    -0.226375194879    12.000000000000
         C           -1.223604844033     0.715339029625    -0.214945930348    12.000000000000
         C            0.007633706582     1.417397677228    -0.216480276630    12.000000000000
         C            1.231215645015     0.702131218578    -0.235306862286    12.000000000000
         C            2.460816937799     1.403306564116    -0.215802353395    12.000000000000
         C            3.684426091464     0.687212956203    -0.216631139673    12.000000000000
         C            4.918704738807     1.391749089180    -0.229032961308    12.000000000000
         C            7.369797915229     2.779496731175    -0.222824932628    12.000000000000
         C            7.380158503390     1.391232035846    -0.221278249782    12.000000000000
         C            6.139795376391     0.674133151191    -0.214949907971    12.000000000000
         H           -8.279194962078     3.407132569115    -0.228040027135     1.007825032230
         H            8.315109308748     3.318132624614    -0.227035508427     1.007825032230
         C           -8.591760100313     0.724847081035    -0.221636509268    12.000000000000
         C           -8.599028766435    -0.632625278238    -0.219513384685    12.000000000000
         C           -6.139817301850    -0.674122109163    -0.226502726020    12.000000000000
         C           -7.380188274869    -1.391251661591    -0.219086664479    12.000000000000
         C           -4.918688642988    -1.391740490039    -0.214162227871    12.000000000000
         C           -3.684442458416    -0.687222787745    -0.225194467935    12.000000000000
         C           -2.460821202979    -1.403330650834    -0.214651381746    12.000000000000
         C           -1.231166175052    -0.702159336890    -0.226771760538    12.000000000000
         C           -0.007573788119    -1.417404321420    -0.219315236234    12.000000000000
         C            1.223643553157    -0.715260849273    -0.209309614285    12.000000000000
         C            2.445666486600    -1.429628761016    -0.221059627045    12.000000000000
         C            3.676862540115    -0.726692903565    -0.225200211440    12.000000000000
         C            6.132244683688    -0.739964311859    -0.226728185653    12.000000000000
         C            4.903514982772    -1.444442992550    -0.212887111113    12.000000000000
         C            8.599010685959     0.632618394658    -0.221416133638    12.000000000000
         C            8.591741325369    -0.724836339203    -0.219679753377    12.000000000000
         C            7.364858601658    -1.470318137615    -0.219909930070    12.000000000000
         H           -9.528310134550     1.276861977183    -0.223106436232     1.007825032230
         H            9.541406811874     1.174587016435    -0.222468165899     1.007825032230
         C           -7.369842072500    -2.779530617943    -0.217278456057    12.000000000000
         C           -4.924603271782    -2.808422729350    -0.225010088493    12.000000000000
         C           -6.166626658399    -3.516637664835    -0.218708248334    12.000000000000
         C           -3.702514522437    -3.524667021130    -0.214686019308    12.000000000000
         C           -2.467651147846    -2.821311434813    -0.226730657664    12.000000000000
         C           -0.015137636839    -2.833127117409    -0.226449069155    12.000000000000
         C           -1.247126003958    -3.534717647572    -0.214885115747    12.000000000000
         C            1.209240906912    -3.547900150653    -0.212346085956    12.000000000000
         C            2.437331859423    -2.847627210185    -0.226485844267    12.000000000000
         C            4.894298181039    -2.861108440295    -0.225665104195    12.000000000000
         C            3.664611092309    -3.564205317541    -0.212785684255    12.000000000000
         C            6.128634852014    -3.582569529727    -0.219439842297    12.000000000000
         C            7.339668501964    -2.858398779380    -0.217924616216    12.000000000000
         H           -9.541453273991    -1.174548938674    -0.218143968512     1.007825032230
         H            9.528257705340    -1.276904545914    -0.218429945616     1.007825032230
         H           -8.315169206580    -3.318135325222    -0.213106227526     1.007825032230
         H            8.279150979760    -3.407126261903    -0.213585060233     1.007825032230
         C           -6.144998351434    -4.927632744793    -0.217382250274    12.000000000000
         C           -3.706787510729    -4.941247186127    -0.227203218362    12.000000000000
         C           -4.955594220733    -5.643479445504    -0.219236083717    12.000000000000
         C           -2.486125488958    -5.654771046419    -0.214263547318    12.000000000000
         C           -1.254062498212    -4.956107522011    -0.225439153303    12.000000000000
         C            1.201008411136    -4.969265860202    -0.224258029045    12.000000000000
         C           -0.030340837145    -5.669505775148    -0.216414829382    12.000000000000
         C            3.653745938597    -4.980729247424    -0.223500029298    12.000000000000
         C            2.425488533144    -5.681160107537    -0.214123098746    12.000000000000
         C            6.091961455079    -4.993243435396    -0.217145615624    12.000000000000
         C            4.894972281879    -5.696333892967    -0.218381811454    12.000000000000
         H           -7.089896550772    -5.466985314248    -0.212979488593     1.007825032230
         H            7.031051046468    -5.542644008342    -0.213565835860     1.007825032230
         C           -4.923549484930    -7.078806571687    -0.219790852622    12.000000000000
         C           -2.485346250970    -7.087713549939    -0.222300745058    12.000000000000
         C           -3.751690054511    -7.763932629646    -0.222106066133    12.000000000000
         C           -0.037953119720    -7.099450346479    -0.222085019910    12.000000000000
         C           -1.277960263133    -7.772889856676    -0.224069712672    12.000000000000
         C            2.409440157995    -7.114007484012    -0.221221819100    12.000000000000
         C            1.194745774421    -7.786170837572    -0.223374109981    12.000000000000
         C            4.847616889766    -7.131247582589    -0.218715004440    12.000000000000
         C            3.668467443144    -7.803773464953    -0.221063438804    12.000000000000
         H           -5.869944513148    -7.613816070051    -0.218246815757     1.007825032230
         H            5.788245462656    -7.676317661324    -0.217587884958     1.007825032230
         H           -3.753531102181    -8.851057041246    -0.223941980562     1.007825032230
         H           -1.284308568626    -8.860860864507    -0.228497096530     1.007825032230
         H            1.189217411964    -8.874146092599    -0.227466746671     1.007825032230
         H            3.658542452092    -8.890846106063    -0.222717980226     1.007825032230

  Running in c1 symmetry.

  Rotational constants: A =      0.00068  B =      0.00068  C =      0.00035 [cm^-1]
  Rotational constants: A =     20.35607  B =     20.35255  C =     10.55117 [MHz]
  Nuclear repulsion = 17814.409760286220262

  Charge       = -1
  Multiplicity = 1
  Electrons    = 642
  Nalpha       = 321
  Nbeta        = 321

  ==> Algorithm <==

  SCF Algorithm Type is DF.
  DIIS enabled.
  MOM disabled.
  Fractional occupation disabled.
  Guess Type is SAD.
  Energy threshold   = 1.00e-08
  Density threshold  = 1.00e-08
  Integral threshold = 1.00e-12

  ==> Primary Basis <==

  Basis Set: JUN-CC-PVDZ
    Blend: JUN-CC-PVDZ
    Number of shells: 880
    Number of basis functions: 1938
    Number of Cartesian functions: 2039
    Spherical Harmonics?: true
    Max angular momentum: 2

   => Loading Basis Set <=

    Name: (JUN-CC-PVDZ AUX)
    Role: JKFIT
    Keyword: DF_BASIS_SCF
    atoms 1                                                   entry B          line    90 file /opt/software/pc2/EB-SW/software/PSI4/1.9-foss-2022a/share/psi4/basis/jun-cc-pvdz-jkfit.gbs 
    atoms 2-5                                                 entry F          line   314 file /opt/software/pc2/EB-SW/software/PSI4/1.9-foss-2022a/share/psi4/basis/jun-cc-pvdz-jkfit.gbs 
    atoms 6-23, 30-42, 45-59, 62-78, 81-93, 98-108, 111-119   entry C          line   146 file /opt/software/pc2/EB-SW/software/PSI4/1.9-foss-2022a/share/psi4/basis/jun-cc-pvdz-jkfit.gbs 
    atoms 24-29, 43-44, 60-61, 79-80, 94-97, 109-110, 120-125 entry H          line    70 file /opt/software/pc2/EB-SW/software/PSI4/1.9-foss-2022a/share/psi4/basis/jun-cc-pvdz-jkfit.gbs 

  ==> Integral Setup <==

  ==> DiskDFJK: Density-Fitted J/K Matrices <==

    J tasked:                  Yes
    K tasked:                  Yes
    wK tasked:                  No
    OpenMP threads:             16
    Integrals threads:          16
    Memory [MiB]:            45776
    Algorithm:                Disk
    Integral Cache:           SAVE
    Schwarz Cutoff:          1E-12
    Fitting Condition:       1E-10

   => Auxiliary Basis Set <=

  Basis Set: (JUN-CC-PVDZ AUX)
    Blend: JUN-CC-PVDZ-JKFIT
    Number of shells: 2943
    Number of basis functions: 8531
    Number of Cartesian functions: 9791
    Spherical Harmonics?: true
    Max angular momentum: 3

  Minimum eigenvalue in the overlap matrix is 7.7159555913E-11.
  Reciprocal condition number of the overlap matrix is 3.1732221124E-12.
    Using canonical orthogonalization.
  Overall, 40 of 1938 possible MOs eliminated.


  ==> Pre-Iterations <==

  SCF Guess: Superposition of Atomic Densities via on-the-fly atomic UHF (no occupation information).

   -------------------------
    Irrep   Nso     Nmo    
   -------------------------
     A       1938    1898 
   -------------------------
    Total    1938    1898
   -------------------------

  ==> Iterations <==

                           Total Energy        Delta E     RMS |[F,P]|

   @DF-RHF iter SAD: -4085.30525183864074   -4.08531e+03   0.00000e+00 
   @DF-RHF iter   1: -4071.49241405397788    1.38128e+01   7.92638e-04 ADIIS/DIIS
   @DF-RHF iter   2: -4072.90244461705015   -1.41003e+00   3.13921e-04 ADIIS/DIIS
   @DF-RHF iter   3: -4073.07558336385500   -1.73139e-01   1.10622e-04 ADIIS/DIIS
   @DF-RHF iter   4: -4073.10045982101565   -2.48765e-02   4.71545e-05 DIIS
   @DF-RHF iter   5: -4073.10578525050323   -5.32543e-03   1.37856e-05 DIIS
   @DF-RHF iter   6: -4073.10640680413326   -6.21554e-04   4.93550e-06 DIIS
   @DF-RHF iter   7: -4073.10659968583559   -1.92882e-04   2.68172e-06 DIIS
   @DF-RHF iter   8: -4073.10666917332173   -6.94875e-05   1.26802e-06 DIIS
   @DF-RHF iter   9: -4073.10669216219503   -2.29889e-05   4.75694e-07 DIIS
   @DF-RHF iter  10: -4073.10669382177139   -1.65958e-06   1.92239e-07 DIIS
   @DF-RHF iter  11: -4073.10669411238041   -2.90609e-07   8.16710e-08 DIIS
   @DF-RHF iter  12: -4073.10669418531779   -7.29374e-08   5.24894e-08 DIIS
   @DF-RHF iter  13: -4073.10669422101000   -3.56922e-08   3.19054e-08 DIIS
   @DF-RHF iter  14: -4073.10669423818490   -1.71749e-08   2.28670e-08 DIIS
   @DF-RHF iter  15: -4073.10669425160995   -1.34251e-08   1.37823e-08 DIIS
   @DF-RHF iter  16: -4073.10669425756441   -5.95446e-09   7.02064e-09 DIIS
  Energy and wave function converged.


  ==> Post-Iterations <==

    Orbital Energies [Eh]
    ---------------------

    Doubly Occupied:                                                      

       1A    -26.103042     2A    -26.102848     3A    -26.102826  
       4A    -26.090750     5A    -11.195310     6A    -11.195299  
       7A    -11.195296     8A    -11.195281     9A    -11.195277  
      10A    -11.195269    11A    -11.195215    12A    -11.195206  
      13A    -11.195206    14A    -11.195201    15A    -11.195193  
      16A    -11.195189    17A    -11.194309    18A    -11.194282  
      19A    -11.194273    20A    -11.194207    21A    -11.194203  
      22A    -11.194185    23A    -11.192384    24A    -11.192379  
      25A    -11.192374    26A    -11.192371    27A    -11.192364  
      28A    -11.192361    29A    -11.190930    30A    -11.190926  
      31A    -11.190919    32A    -11.190918    33A    -11.190910  
      34A    -11.190908    35A    -11.190661    36A    -11.190644  
      37A    -11.190631    38A    -11.190567    39A    -11.190560  
      40A    -11.190498    41A    -11.190438    42A    -11.190343  
      43A    -11.190339    44A    -11.190216    45A    -11.190211  
      46A    -11.190143    47A    -11.189752    48A    -11.189698  
      49A    -11.189691    50A    -11.189458    51A    -11.189426  
      52A    -11.189382    53A    -11.188971    54A    -11.188900  
      55A    -11.188898    56A    -11.188783    57A    -11.188775  
      58A    -11.188706    59A    -11.188529    60A    -11.188492  
      61A    -11.188486    62A    -11.188415    63A    -11.188409  
      64A    -11.188378    65A    -11.187287    66A    -11.187285  
      67A    -11.187270    68A    -11.187188    69A    -11.187185  
      70A    -11.187172    71A    -11.186755    72A    -11.186753  
      73A    -11.186700    74A    -11.186655    75A    -11.186653  
      76A    -11.186609    77A    -11.185225    78A    -11.185207  
      79A    -11.185193    80A    -11.185150    81A    -11.185133  
      82A    -11.185111    83A    -11.184162    84A    -11.184124  
      85A    -11.184114    86A    -11.184003    87A    -11.183998  
      88A    -11.183959    89A    -11.181493    90A    -11.181431  
      91A    -11.181379    92A    -11.180206    93A    -11.180004  
      94A    -11.179970    95A    -11.178325    96A    -11.178065  
      97A    -11.177859    98A    -11.176241    99A    -11.176072  
     100A    -11.175747   101A     -7.571976   102A     -1.446016  
     103A     -1.389354   104A     -1.389152   105A     -1.377964  
     106A     -1.176698   107A     -1.166022   108A     -1.166015  
     109A     -1.149801   110A     -1.149791   111A     -1.139151  
     112A     -1.132229   113A     -1.125809   114A     -1.113663  
     115A     -1.113658   116A     -1.105364   117A     -1.105358  
     118A     -1.082707   119A     -1.082696   120A     -1.078547  
     121A     -1.076757   122A     -1.076753   123A     -1.057781  
     124A     -1.044965   125A     -1.044287   126A     -1.042336  
     127A     -1.039041   128A     -1.039017   129A     -1.017883  
     130A     -1.017865   131A     -1.009120   132A     -1.009116  
     133A     -0.995906   134A     -0.995876   135A     -0.991774  
     136A     -0.977203   137A     -0.977196   138A     -0.970854  
     139A     -0.970850   140A     -0.970380   141A     -0.952991  
     142A     -0.945802   143A     -0.945746   144A     -0.938292  
     145A     -0.936117   146A     -0.933145   147A     -0.928748  
     148A     -0.928704   149A     -0.923936   150A     -0.899731  
     151A     -0.899685   152A     -0.886939   153A     -0.886885  
     154A     -0.838972   155A     -0.838930   156A     -0.832428  
     157A     -0.832382   158A     -0.829404   159A     -0.818480  
     160A     -0.818422   161A     -0.818091   162A     -0.816851  
     163A     -0.816792   164A     -0.804234   165A     -0.803885  
     166A     -0.783781   167A     -0.776144   168A     -0.776126  
     169A     -0.772571   170A     -0.772074   171A     -0.765187  
     172A     -0.765179   173A     -0.760979   174A     -0.760976  
     175A     -0.717975   176A     -0.717957   177A     -0.711953  
     178A     -0.711933   179A     -0.710153   180A     -0.710130  
     181A     -0.709925   182A     -0.697805   183A     -0.688194  
     184A     -0.678562   185A     -0.666602   186A     -0.657648  
     187A     -0.657634   188A     -0.655156   189A     -0.655133  
     190A     -0.654859   191A     -0.645249   192A     -0.642112  
     193A     -0.642094   194A     -0.637137   195A     -0.631024  
     196A     -0.631014   197A     -0.618109   198A     -0.618106  
     199A     -0.613538   200A     -0.613404   201A     -0.613393  
     202A     -0.609093   203A     -0.585007   204A     -0.582070  
     205A     -0.582040   206A     -0.581784   207A     -0.578171  
     208A     -0.578157   209A     -0.571795   210A     -0.571388  
     211A     -0.569743   212A     -0.569715   213A     -0.565550  
     214A     -0.565506   215A     -0.564691   216A     -0.564573  
     217A     -0.564364   218A     -0.559619   219A     -0.547605  
     220A     -0.547582   221A     -0.540875   222A     -0.540872  
     223A     -0.538476   224A     -0.528849   225A     -0.528214  
     226A     -0.527926   227A     -0.527910   228A     -0.527407  
     229A     -0.527395   230A     -0.526267   231A     -0.526259  
     232A     -0.526153   233A     -0.520805   234A     -0.520801  
     235A     -0.518621   236A     -0.514130   237A     -0.512101  
     238A     -0.512089   239A     -0.505371   240A     -0.505345  
     241A     -0.505217   242A     -0.498827   243A     -0.498818  
     244A     -0.494967   245A     -0.494819   246A     -0.494773  
     247A     -0.494180   248A     -0.491911   249A     -0.487920  
     250A     -0.487898   251A     -0.486333   252A     -0.486194  
     253A     -0.483988   254A     -0.482444   255A     -0.482397  
     256A     -0.475051   257A     -0.465333   258A     -0.465327  
     259A     -0.459672   260A     -0.459630   261A     -0.458117  
     262A     -0.458054   263A     -0.455045   264A     -0.447753  
     265A     -0.447747   266A     -0.446624   267A     -0.446598  
     268A     -0.443010   269A     -0.442165   270A     -0.442130  
     271A     -0.441834   272A     -0.441744   273A     -0.428685  
     274A     -0.426125   275A     -0.426094   276A     -0.422242  
     277A     -0.421912   278A     -0.421845   279A     -0.416850  
     280A     -0.416793   281A     -0.413806   282A     -0.410037  
     283A     -0.410034   284A     -0.406644   285A     -0.405144  
     286A     -0.397729   287A     -0.396077   288A     -0.396060  
     289A     -0.388259   290A     -0.371995   291A     -0.371923  
     292A     -0.368693   293A     -0.368448   294A     -0.366197  
     295A     -0.363985   296A     -0.363870   297A     -0.336763  
     298A     -0.336741   299A     -0.318982   300A     -0.318968  
     301A     -0.313838   302A     -0.313786   303A     -0.308498  
     304A     -0.284640   305A     -0.284617   306A     -0.280423  
     307A     -0.266317   308A     -0.266313   309A     -0.261254  
     310A     -0.255072   311A     -0.254900   312A     -0.235077  
     313A     -0.231674   314A     -0.228163   315A     -0.228107  
     316A     -0.216927   317A     -0.191537   318A     -0.179439  
     319A     -0.179306   320A     -0.134255   321A     -0.134173  

    Virtual:                                                              

     322A      0.057542   323A      0.057622   324A      0.095001  
     325A      0.095028   326A      0.095588   327A      0.097460  
     328A      0.097815   329A      0.102862   330A      0.103539  
     331A      0.105213   332A      0.107334   333A      0.107421  
     334A      0.110721   335A      0.110723   336A      0.122003  
     337A      0.122011   338A      0.131010   339A      0.132214  
     340A      0.135603   341A      0.137835   342A      0.138264  
     343A      0.139164   344A      0.139900   345A      0.141268  
     346A      0.141571   347A      0.141835   348A      0.142019  
     349A      0.143506   350A      0.143542   351A      0.143581  
     352A      0.149415   353A      0.149787   354A      0.149915  
     355A      0.150092   356A      0.150127   357A      0.151016  
     358A      0.157235   359A      0.158399   360A      0.162408  
     361A      0.162757   362A      0.162777   363A      0.163996  
     364A      0.164914   365A      0.165300   366A      0.172097  
     367A      0.172183   368A      0.172794   369A      0.173173  
     370A      0.173511   371A      0.175033   372A      0.175447  
     373A      0.175990   374A      0.176160   375A      0.177045  
     376A      0.179221   377A      0.179338   378A      0.180252  
     379A      0.180289   380A      0.188381   381A      0.188401  
     382A      0.190329   383A      0.196071   384A      0.196210  
     385A      0.196805   386A      0.198799   387A      0.198815  
     388A      0.203457   389A      0.203884   390A      0.204715  
     391A      0.205190   392A      0.205493   393A      0.213828  
     394A      0.215074   395A      0.215933   396A      0.216173  
     397A      0.216430   398A      0.218312   399A      0.220066  
     400A      0.221803   401A      0.221998   402A      0.223580  
     403A      0.223773   404A      0.223792   405A      0.224427  
     406A      0.226284   407A      0.226437   408A      0.227677  
     409A      0.227695   410A      0.230231   411A      0.230558  
     412A      0.234018   413A      0.235331   414A      0.239762  
     415A      0.239781   416A      0.242469   417A      0.242859  
     418A      0.243410   419A      0.243547   420A      0.243836  
     421A      0.244100   422A      0.250755   423A      0.252060  
     424A      0.252250   425A      0.253026   426A      0.253974  
     427A      0.257731   428A      0.258036   429A      0.258310  
     430A      0.260629   431A      0.260868   432A      0.261357  
     433A      0.262673   434A      0.263049   435A      0.263939  
     436A      0.270180   437A      0.270289   438A      0.272619  
     439A      0.272833   440A      0.273020   441A      0.273629  
     442A      0.274083   443A      0.274153   444A      0.274258  
     445A      0.274652   446A      0.275708   447A      0.275936  
     448A      0.276501   449A      0.277142   450A      0.278353  
     451A      0.278434   452A      0.282427   453A      0.282842  
     454A      0.284617   455A      0.285256   456A      0.290182  
     457A      0.291931   458A      0.291985   459A      0.292273  
     460A      0.292448   461A      0.292760   462A      0.293490  
     463A      0.293567   464A      0.295210   465A      0.296192  
     466A      0.296450   467A      0.298754   468A      0.298820  
     469A      0.304545   470A      0.305367   471A      0.306085  
     472A      0.306237   473A      0.308568   474A      0.310321  
     475A      0.313594   476A      0.316031   477A      0.316102  
     478A      0.316185   479A      0.319154   480A      0.319350  
     481A      0.320868   482A      0.321270   483A      0.321945  
     484A      0.322477   485A      0.324690   486A      0.325708  
     487A      0.328190   488A      0.328240   489A      0.328687  
     490A      0.330366   491A      0.330465   492A      0.331927  
     493A      0.338668   494A      0.338728   495A      0.339177  
     496A      0.341199   497A      0.342671   498A      0.343377  
     499A      0.343831   500A      0.343846   501A      0.344315  
     502A      0.344779   503A      0.345178   504A      0.347701  
     505A      0.348464   506A      0.350181   507A      0.350423  
     508A      0.350955   509A      0.352977   510A      0.353206  
     511A      0.359212   512A      0.359231   513A      0.360453  
     514A      0.363333   515A      0.363588   516A      0.366255  
     517A      0.366490   518A      0.367229   519A      0.367796  
     520A      0.368392   521A      0.369490   522A      0.369962  
     523A      0.370632   524A      0.372473   525A      0.372700  
     526A      0.374044   527A      0.374185   528A      0.375088  
     529A      0.375199   530A      0.375240   531A      0.376425  
     532A      0.379032   533A      0.380846   534A      0.381176  
     535A      0.381774   536A      0.381892   537A      0.385224  
     538A      0.386657   539A      0.386787   540A      0.388281  
     541A      0.389699   542A      0.389918   543A      0.390611  
     544A      0.390972   545A      0.391550   546A      0.392745  
     547A      0.393015   548A      0.394432   549A      0.396531  
     550A      0.397403   551A      0.397517   552A      0.398766  
     553A      0.399654   554A      0.402036   555A      0.403107  
     556A      0.403212   557A      0.404229   558A      0.407183  
     559A      0.407243   560A      0.407662   561A      0.410249  
     562A      0.411776   563A      0.412576   564A      0.415801  
     565A      0.419845   566A      0.421638   567A      0.423488  
     568A      0.423680   569A      0.423955   570A      0.424452  
     571A      0.425364   572A      0.426268   573A      0.426365  
     574A      0.426861   575A      0.430531   576A      0.431309  
     577A      0.431362   578A      0.434112   579A      0.436776  
     580A      0.436826   581A      0.438896   582A      0.438950  
     583A      0.441447   584A      0.441667   585A      0.444278  
     586A      0.445186   587A      0.445237   588A      0.446675  
     589A      0.447910   590A      0.448668   591A      0.450577  
     592A      0.450766   593A      0.454614   594A      0.456210  
     595A      0.457232   596A      0.457728   597A      0.459561  
     598A      0.459568   599A      0.460043   600A      0.460722  
     601A      0.461090   602A      0.461964   603A      0.463042  
     604A      0.464151   605A      0.464425   606A      0.465625  
     607A      0.466178   608A      0.466467   609A      0.467091  
     610A      0.467432   611A      0.471231   612A      0.471358  
     613A      0.472480   614A      0.472569   615A      0.472623  
     616A      0.473889   617A      0.474563   618A      0.475102  
     619A      0.475918   620A      0.476050   621A      0.476216  
     622A      0.477608   623A      0.477706   624A      0.477810  
     625A      0.478016   626A      0.480971   627A      0.482411  
     628A      0.482509   629A      0.482888   630A      0.484709  
     631A      0.486242   632A      0.486384   633A      0.486443  
     634A      0.489335   635A      0.490852   636A      0.491079  
     637A      0.492036   638A      0.492168   639A      0.493129  
     640A      0.497922   641A      0.497934   642A      0.500707  
     643A      0.500780   644A      0.501230   645A      0.502431  
     646A      0.503891   647A      0.503983   648A      0.504464  
     649A      0.504969   650A      0.505192   651A      0.505454  
     652A      0.505530   653A      0.506282   654A      0.506672  
     655A      0.509607   656A      0.511000   657A      0.511640  
     658A      0.516189   659A      0.517040   660A      0.517653  
     661A      0.517696   662A      0.518934   663A      0.519047  
     664A      0.519355   665A      0.519522   666A      0.520189  
     667A      0.522138   668A      0.522235   669A      0.522859  
     670A      0.523400   671A      0.527200   672A      0.527781  
     673A      0.530159   674A      0.531684   675A      0.535468  
     676A      0.536307   677A      0.536590   678A      0.537368  
     679A      0.539012   680A      0.539438   681A      0.540897  
     682A      0.542786   683A      0.543007   684A      0.544077  
     685A      0.544651   686A      0.544829   687A      0.545109  
     688A      0.546076   689A      0.546289   690A      0.548708  
     691A      0.550751   692A      0.551238   693A      0.551401  
     694A      0.551678   695A      0.553160   696A      0.555040  
     697A      0.556419   698A      0.556675   699A      0.557468  
     700A      0.557667   701A      0.558093   702A      0.560089  
     703A      0.561730   704A      0.562737   705A      0.563549  
     706A      0.563772   707A      0.566746   708A      0.567500  
     709A      0.567543   710A      0.568382   711A      0.569255  
     712A      0.569867   713A      0.570084   714A      0.570570  
     715A      0.571868   716A      0.574911   717A      0.576311  
     718A      0.578974   719A      0.579932   720A      0.582739  
     721A      0.583642   722A      0.583936   723A      0.584390  
     724A      0.585658   725A      0.586093   726A      0.586584  
     727A      0.589406   728A      0.590217   729A      0.590534  
     730A      0.591577   731A      0.592434   732A      0.593987  
     733A      0.597573   734A      0.599204   735A      0.600180  
     736A      0.601508   737A      0.602337   738A      0.604315  
     739A      0.606650   740A      0.609187   741A      0.609646  
     742A      0.612565   743A      0.613230   744A      0.614266  
     745A      0.618417   746A      0.621861   747A      0.623981  
     748A      0.626355   749A      0.627243   750A      0.628320  
     751A      0.630082   752A      0.630151   753A      0.630503  
     754A      0.631414   755A      0.631790   756A      0.632934  
     757A      0.634176   758A      0.635884   759A      0.639511  
     760A      0.639609   761A      0.641073   762A      0.642884  
     763A      0.648619   764A      0.649017   765A      0.649661  
     766A      0.650634   767A      0.651190   768A      0.653206  
     769A      0.653984   770A      0.657566   771A      0.658224  
     772A      0.659046   773A      0.663225   774A      0.666215  
     775A      0.668560   776A      0.669225   777A      0.672769  
     778A      0.673198   779A      0.674372   780A      0.674546  
     781A      0.675091   782A      0.676036   783A      0.677070  
     784A      0.679775   785A      0.683355   786A      0.685432  
     787A      0.685674   788A      0.685888   789A      0.686601  
     790A      0.686744   791A      0.688489   792A      0.699526  
     793A      0.699806   794A      0.702222   795A      0.705791  
     796A      0.706812   797A      0.712025   798A      0.713226  
     799A      0.714453   800A      0.717087   801A      0.718344  
     802A      0.722447   803A      0.722500   804A      0.728235  
     805A      0.731528   806A      0.731725   807A      0.732017  
     808A      0.732723   809A      0.736333   810A      0.740928  
     811A      0.741640   812A      0.743236   813A      0.745172  
     814A      0.747505   815A      0.748384   816A      0.751721  
     817A      0.752965   818A      0.757214   819A      0.757908  
     820A      0.758368   821A      0.761755   822A      0.764481  
     823A      0.764849   824A      0.767297   825A      0.768945  
     826A      0.772759   827A      0.774553   828A      0.776853  
     829A      0.778718   830A      0.785272   831A      0.785901  
     832A      0.786506   833A      0.787152   834A      0.801450  
     835A      0.801959   836A      0.802204   837A      0.802502  
     838A      0.808482   839A      0.808506   840A      0.810224  
     841A      0.814960   842A      0.820319   843A      0.823570  
     844A      0.824416   845A      0.827686   846A      0.827922  
     847A      0.837387   848A      0.837680   849A      0.845533  
     850A      0.850107   851A      0.851787   852A      0.855811  
     853A      0.857104   854A      0.864364   855A      0.865007  
     856A      0.865200   857A      0.866071   858A      0.867548  
     859A      0.868342   860A      0.869829   861A      0.872371  
     862A      0.873392   863A      0.877392   864A      0.879780  
     865A      0.880505   866A      0.881450   867A      0.882577  
     868A      0.884213   869A      0.884610   870A      0.887464  
     871A      0.888660   872A      0.894201   873A      0.894800  
     874A      0.897249   875A      0.898763   876A      0.900381  
     877A      0.905209   878A      0.905646   879A      0.905899  
     880A      0.910006   881A      0.913556   882A      0.913644  
     883A      0.918852   884A      0.920808   885A      0.921321  
     886A      0.922900   887A      0.926787   888A      0.928307  
     889A      0.929386   890A      0.930518   891A      0.931163  
     892A      0.932883   893A      0.937173   894A      0.938261  
     895A      0.939921   896A      0.940872   897A      0.941694  
     898A      0.945135   899A      0.945688   900A      0.947314  
     901A      0.949726   902A      0.950497   903A      0.952311  
     904A      0.952538   905A      0.953415   906A      0.954804  
     907A      0.961043   908A      0.962291   909A      0.963500  
     910A      0.963958   911A      0.965503   912A      0.966670  
     913A      0.972227   914A      0.972497   915A      0.973003  
     916A      0.973608   917A      0.976140   918A      0.977417  
     919A      0.979603   920A      0.981534   921A      0.982720  
     922A      0.983644   923A      0.986191   924A      0.986214  
     925A      0.988258   926A      0.989388   927A      0.989856  
     928A      0.993110   929A      0.994691   930A      0.996423  
     931A      0.999537   932A      0.999804   933A      1.001481  
     934A      1.003483   935A      1.003743   936A      1.005948  
     937A      1.008162   938A      1.010419   939A      1.010571  
     940A      1.010856   941A      1.014323   942A      1.014562  
     943A      1.016736   944A      1.016850   945A      1.017167  
     946A      1.019376   947A      1.019868   948A      1.022200  
     949A      1.022508   950A      1.022686   951A      1.024781  
     952A      1.026889   953A      1.027711   954A      1.030207  
     955A      1.030762   956A      1.032191   957A      1.040259  
     958A      1.041951   959A      1.046609   960A      1.046785  
     961A      1.053052   962A      1.053584   963A      1.055798  
     964A      1.057531   965A      1.060404   966A      1.060733  
     967A      1.064669   968A      1.065229   969A      1.065580  
     970A      1.069312   971A      1.070917   972A      1.071862  
     973A      1.071936   974A      1.073178   975A      1.073306  
     976A      1.076352   977A      1.082326   978A      1.082630  
     979A      1.085098   980A      1.086026   981A      1.088592  
     982A      1.089370   983A      1.092804   984A      1.093247  
     985A      1.094521   986A      1.098167   987A      1.098326  
     988A      1.101372   989A      1.103582   990A      1.105770  
     991A      1.112129   992A      1.114003   993A      1.114122  
     994A      1.115341   995A      1.115995   996A      1.116056  
     997A      1.116863   998A      1.119315   999A      1.121036  
    1000A      1.122567  1001A      1.122675  1002A      1.124402  
    1003A      1.124827  1004A      1.128682  1005A      1.128854  
    1006A      1.131098  1007A      1.131681  1008A      1.132139  
    1009A      1.132972  1010A      1.133663  1011A      1.138129  
    1012A      1.138523  1013A      1.139158  1014A      1.139427  
    1015A      1.140162  1016A      1.140804  1017A      1.141501  
    1018A      1.142262  1019A      1.142618  1020A      1.144262  
    1021A      1.144783  1022A      1.145620  1023A      1.145751  
    1024A      1.146417  1025A      1.147792  1026A      1.148265  
    1027A      1.149718  1028A      1.149948  1029A      1.150575  
    1030A      1.152417  1031A      1.152824  1032A      1.153257  
    1033A      1.154569  1034A      1.154831  1035A      1.155159  
    1036A      1.155504  1037A      1.155687  1038A      1.156554  
    1039A      1.157629  1040A      1.159657  1041A      1.162690  
    1042A      1.163150  1043A      1.169172  1044A      1.170958  
    1045A      1.173021  1046A      1.173307  1047A      1.175699  
    1048A      1.176327  1049A      1.177028  1050A      1.177663  
    1051A      1.179130  1052A      1.180406  1053A      1.181804  
    1054A      1.183061  1055A      1.184808  1056A      1.185478  
    1057A      1.187859  1058A      1.188840  1059A      1.193065  
    1060A      1.194886  1061A      1.196846  1062A      1.197922  
    1063A      1.199216  1064A      1.201701  1065A      1.203526  
    1066A      1.204107  1067A      1.206755  1068A      1.207357  
    1069A      1.208827  1070A      1.209120  1071A      1.209604  
    1072A      1.215635  1073A      1.219902  1074A      1.221388  
    1075A      1.221810  1076A      1.222558  1077A      1.224145  
    1078A      1.227049  1079A      1.227392  1080A      1.227987  
    1081A      1.231042  1082A      1.233259  1083A      1.236984  
    1084A      1.240160  1085A      1.240913  1086A      1.241473  
    1087A      1.242178  1088A      1.243796  1089A      1.244941  
    1090A      1.245753  1091A      1.250408  1092A      1.252867  
    1093A      1.253759  1094A      1.257664  1095A      1.257955  
    1096A      1.258632  1097A      1.260146  1098A      1.260889  
    1099A      1.266164  1100A      1.266866  1101A      1.269188  
    1102A      1.270530  1103A      1.271668  1104A      1.276084  
    1105A      1.276853  1106A      1.279157  1107A      1.279910  
    1108A      1.281064  1109A      1.281443  1110A      1.281554  
    1111A      1.282779  1112A      1.286079  1113A      1.287215  
    1114A      1.288580  1115A      1.290298  1116A      1.292166  
    1117A      1.296393  1118A      1.300649  1119A      1.302362  
    1120A      1.303858  1121A      1.307931  1122A      1.311998  
    1123A      1.315235  1124A      1.319854  1125A      1.321741  
    1126A      1.323860  1127A      1.324770  1128A      1.326012  
    1129A      1.326617  1130A      1.328822  1131A      1.328998  
    1132A      1.329800  1133A      1.334660  1134A      1.334946  
    1135A      1.335399  1136A      1.340454  1137A      1.341305  
    1138A      1.347593  1139A      1.348209  1140A      1.355006  
    1141A      1.356885  1142A      1.360646  1143A      1.360774  
    1144A      1.361466  1145A      1.362244  1146A      1.362874  
    1147A      1.363142  1148A      1.366370  1149A      1.371173  
    1150A      1.372034  1151A      1.372215  1152A      1.374920  
    1153A      1.380847  1154A      1.382558  1155A      1.384221  
    1156A      1.385560  1157A      1.385682  1158A      1.386479  
    1159A      1.389687  1160A      1.393244  1161A      1.396492  
    1162A      1.396607  1163A      1.397451  1164A      1.398662  
    1165A      1.398753  1166A      1.400726  1167A      1.400990  
    1168A      1.403716  1169A      1.409022  1170A      1.410598  
    1171A      1.410993  1172A      1.412208  1173A      1.412929  
    1174A      1.427356  1175A      1.427751  1176A      1.429745  
    1177A      1.430193  1178A      1.430780  1179A      1.431509  
    1180A      1.432089  1181A      1.432267  1182A      1.434013  
    1183A      1.434684  1184A      1.444051  1185A      1.445080  
    1186A      1.445453  1187A      1.445848  1188A      1.452577  
    1189A      1.452986  1190A      1.455705  1191A      1.456572  
    1192A      1.458745  1193A      1.460392  1194A      1.461015  
    1195A      1.467786  1196A      1.468947  1197A      1.474303  
    1198A      1.475693  1199A      1.477490  1200A      1.477543  
    1201A      1.478821  1202A      1.479028  1203A      1.479480  
    1204A      1.479504  1205A      1.487821  1206A      1.488722  
    1207A      1.490510  1208A      1.491284  1209A      1.497305  
    1210A      1.499593  1211A      1.499680  1212A      1.500857  
    1213A      1.502138  1214A      1.505011  1215A      1.508013  
    1216A      1.508308  1217A      1.511193  1218A      1.511676  
    1219A      1.511841  1220A      1.519361  1221A      1.520750  
    1222A      1.521932  1223A      1.524587  1224A      1.527941  
    1225A      1.528922  1226A      1.529187  1227A      1.531790  
    1228A      1.535495  1229A      1.536758  1230A      1.539099  
    1231A      1.543576  1232A      1.546219  1233A      1.546541  
    1234A      1.550386  1235A      1.552936  1236A      1.553734  
    1237A      1.556310  1238A      1.560157  1239A      1.562922  
    1240A      1.563216  1241A      1.563462  1242A      1.572187  
    1243A      1.572384  1244A      1.574838  1245A      1.582948  
    1246A      1.586286  1247A      1.588263  1248A      1.596976  
    1249A      1.597914  1250A      1.606670  1251A      1.607076  
    1252A      1.609827  1253A      1.619908  1254A      1.627000  
    1255A      1.627074  1256A      1.650518  1257A      1.652289  
    1258A      1.655751  1259A      1.657877  1260A      1.671171  
    1261A      1.676880  1262A      1.678415  1263A      1.679056  
    1264A      1.680120  1265A      1.680631  1266A      1.683022  
    1267A      1.685196  1268A      1.686479  1269A      1.688161  
    1270A      1.688794  1271A      1.689078  1272A      1.689872  
    1273A      1.690851  1274A      1.693098  1275A      1.694236  
    1276A      1.695515  1277A      1.698050  1278A      1.698587  
    1279A      1.701765  1280A      1.702143  1281A      1.702459  
    1282A      1.703886  1283A      1.704429  1284A      1.707176  
    1285A      1.707953  1286A      1.709050  1287A      1.709524  
    1288A      1.710657  1289A      1.711236  1290A      1.713936  
    1291A      1.715631  1292A      1.717985  1293A      1.718474  
    1294A      1.718742  1295A      1.719922  1296A      1.721122  
    1297A      1.723056  1298A      1.724296  1299A      1.724666  
    1300A      1.725436  1301A      1.727114  1302A      1.728941  
    1303A      1.737621  1304A      1.738680  1305A      1.739297  
    1306A      1.740277  1307A      1.740675  1308A      1.741496  
    1309A      1.742321  1310A      1.745931  1311A      1.746750  
    1312A      1.747037  1313A      1.751927  1314A      1.753275  
    1315A      1.753430  1316A      1.757200  1317A      1.762943  
    1318A      1.764883  1319A      1.765619  1320A      1.768552  
    1321A      1.771601  1322A      1.772059  1323A      1.776031  
    1324A      1.778773  1325A      1.778938  1326A      1.784310  
    1327A      1.784540  1328A      1.785158  1329A      1.789675  
    1330A      1.790072  1331A      1.792362  1332A      1.793781  
    1333A      1.794284  1334A      1.797696  1335A      1.798592  
    1336A      1.798633  1337A      1.807493  1338A      1.818765  
    1339A      1.818790  1340A      1.820337  1341A      1.820477  
    1342A      1.825060  1343A      1.835819  1344A      1.836563  
    1345A      1.837082  1346A      1.844268  1347A      1.849156  
    1348A      1.853283  1349A      1.853393  1350A      1.873203  
    1351A      1.877899  1352A      1.878207  1353A      1.886434  
    1354A      1.892636  1355A      1.894395  1356A      1.895223  
    1357A      1.895550  1358A      1.896506  1359A      1.896824  
    1360A      1.899542  1361A      1.902156  1362A      1.902789  
    1363A      1.903603  1364A      1.908561  1365A      1.916016  
    1366A      1.919422  1367A      1.919455  1368A      1.920159  
    1369A      1.922085  1370A      1.922372  1371A      1.924910  
    1372A      1.929111  1373A      1.929921  1374A      1.934772  
    1375A      1.934855  1376A      1.935766  1377A      1.937113  
    1378A      1.939487  1379A      1.939641  1380A      1.940921  
    1381A      1.942836  1382A      1.942993  1383A      1.947152  
    1384A      1.947502  1385A      1.952511  1386A      1.954008  
    1387A      1.954507  1388A      1.955953  1389A      1.957233  
    1390A      1.959344  1391A      1.960469  1392A      1.962110  
    1393A      1.971134  1394A      1.971521  1395A      1.975409  
    1396A      1.975705  1397A      1.977442  1398A      1.983789  
    1399A      1.986089  1400A      1.990247  1401A      1.990697  
    1402A      1.992697  1403A      1.994677  1404A      1.998036  
    1405A      2.000292  1406A      2.000548  1407A      2.001902  
    1408A      2.001939  1409A      2.008195  1410A      2.009098  
    1411A      2.011466  1412A      2.014424  1413A      2.014826  
    1414A      2.015175  1415A      2.015685  1416A      2.016631  
    1417A      2.018714  1418A      2.024760  1419A      2.025347  
    1420A      2.026745  1421A      2.029370  1422A      2.029626  
    1423A      2.030359  1424A      2.034998  1425A      2.036663  
    1426A      2.038313  1427A      2.039254  1428A      2.041276  
    1429A      2.042737  1430A      2.046809  1431A      2.048560  
    1432A      2.050015  1433A      2.052579  1434A      2.055664  
    1435A      2.058479  1436A      2.059038  1437A      2.059806  
    1438A      2.062688  1439A      2.065024  1440A      2.067726  
    1441A      2.070893  1442A      2.071841  1443A      2.076674  
    1444A      2.080494  1445A      2.080889  1446A      2.084537  
    1447A      2.085129  1448A      2.089410  1449A      2.089747  
    1450A      2.090370  1451A      2.090686  1452A      2.091541  
    1453A      2.094664  1454A      2.097724  1455A      2.100758  
    1456A      2.101306  1457A      2.102896  1458A      2.105021  
    1459A      2.105917  1460A      2.106564  1461A      2.108705  
    1462A      2.109995  1463A      2.110502  1464A      2.112111  
    1465A      2.116934  1466A      2.118702  1467A      2.118865  
    1468A      2.123257  1469A      2.124682  1470A      2.127052  
    1471A      2.128077  1472A      2.131208  1473A      2.131671  
    1474A      2.134440  1475A      2.135762  1476A      2.138725  
    1477A      2.141790  1478A      2.143259  1479A      2.146512  
    1480A      2.147241  1481A      2.148873  1482A      2.150325  
    1483A      2.151860  1484A      2.152434  1485A      2.153025  
    1486A      2.154066  1487A      2.155388  1488A      2.156890  
    1489A      2.157498  1490A      2.157600  1491A      2.158247  
    1492A      2.159102  1493A      2.159263  1494A      2.160413  
    1495A      2.162326  1496A      2.162782  1497A      2.165523  
    1498A      2.165997  1499A      2.168258  1500A      2.169073  
    1501A      2.171252  1502A      2.171763  1503A      2.173463  
    1504A      2.174161  1505A      2.177657  1506A      2.180902  
    1507A      2.181325  1508A      2.182753  1509A      2.183853  
    1510A      2.184681  1511A      2.187504  1512A      2.188603  
    1513A      2.189529  1514A      2.191162  1515A      2.194228  
    1516A      2.194787  1517A      2.195662  1518A      2.195936  
    1519A      2.196524  1520A      2.198371  1521A      2.200117  
    1522A      2.203373  1523A      2.205527  1524A      2.206468  
    1525A      2.209070  1526A      2.209445  1527A      2.210038  
    1528A      2.215034  1529A      2.215785  1530A      2.218487  
    1531A      2.219877  1532A      2.220310  1533A      2.220787  
    1534A      2.223040  1535A      2.225453  1536A      2.228821  
    1537A      2.228904  1538A      2.230698  1539A      2.233059  
    1540A      2.233681  1541A      2.240245  1542A      2.240790  
    1543A      2.241399  1544A      2.243356  1545A      2.245131  
    1546A      2.248298  1547A      2.249571  1548A      2.252383  
    1549A      2.253440  1550A      2.257817  1551A      2.261969  
    1552A      2.263119  1553A      2.264977  1554A      2.265175  
    1555A      2.269084  1556A      2.269877  1557A      2.270870  
    1558A      2.271285  1559A      2.271791  1560A      2.272815  
    1561A      2.274660  1562A      2.278486  1563A      2.279629  
    1564A      2.280254  1565A      2.280646  1566A      2.282342  
    1567A      2.282688  1568A      2.288893  1569A      2.290161  
    1570A      2.292377  1571A      2.294704  1572A      2.294870  
    1573A      2.296180  1574A      2.297642  1575A      2.299183  
    1576A      2.299948  1577A      2.301230  1578A      2.301563  
    1579A      2.308214  1580A      2.308913  1581A      2.314216  
    1582A      2.315016  1583A      2.316174  1584A      2.319246  
    1585A      2.319741  1586A      2.325899  1587A      2.327436  
    1588A      2.333728  1589A      2.334527  1590A      2.335916  
    1591A      2.342783  1592A      2.344766  1593A      2.350597  
    1594A      2.352139  1595A      2.353587  1596A      2.358013  
    1597A      2.358880  1598A      2.359797  1599A      2.368777  
    1600A      2.369461  1601A      2.371576  1602A      2.374469  
    1603A      2.374907  1604A      2.377986  1605A      2.385956  
    1606A      2.394480  1607A      2.398325  1608A      2.398419  
    1609A      2.401304  1610A      2.402185  1611A      2.403976  
    1612A      2.405104  1613A      2.406021  1614A      2.406593  
    1615A      2.409181  1616A      2.410450  1617A      2.412819  
    1618A      2.413142  1619A      2.414266  1620A      2.414773  
    1621A      2.415469  1622A      2.426578  1623A      2.427464  
    1624A      2.433134  1625A      2.435439  1626A      2.438358  
    1627A      2.444520  1628A      2.452331  1629A      2.455302  
    1630A      2.457715  1631A      2.458927  1632A      2.463683  
    1633A      2.471074  1634A      2.476195  1635A      2.487470  
    1636A      2.491941  1637A      2.495798  1638A      2.497518  
    1639A      2.499128  1640A      2.509939  1641A      2.513906  
    1642A      2.514498  1643A      2.515442  1644A      2.518505  
    1645A      2.525551  1646A      2.532057  1647A      2.535260  
    1648A      2.535450  1649A      2.538035  1650A      2.540336  
    1651A      2.541064  1652A      2.541696  1653A      2.559670  
    1654A      2.560231  1655A      2.570115  1656A      2.573779  
    1657A      2.575802  1658A      2.578035  1659A      2.578310  
    1660A      2.587227  1661A      2.609488  1662A      2.611518  
    1663A      2.611728  1664A      2.613594  1665A      2.614312  
    1666A      2.616817  1667A      2.618170  1668A      2.619858  
    1669A      2.622552  1670A      2.626836  1671A      2.631284  
    1672A      2.631496  1673A      2.633896  1674A      2.637280  
    1675A      2.640401  1676A      2.649554  1677A      2.650514  
    1678A      2.650614  1679A      2.653903  1680A      2.654178  
    1681A      2.655133  1682A      2.657412  1683A      2.657676  
    1684A      2.661758  1685A      2.670456  1686A      2.670893  
    1687A      2.681500  1688A      2.682632  1689A      2.683259  
    1690A      2.683504  1691A      2.684111  1692A      2.689122  
    1693A      2.703061  1694A      2.711874  1695A      2.712688  
    1696A      2.715626  1697A      2.717203  1698A      2.719693  
    1699A      2.719763  1700A      2.723596  1701A      2.724391  
    1702A      2.725664  1703A      2.726366  1704A      2.735105  
    1705A      2.737649  1706A      2.738159  1707A      2.741469  
    1708A      2.741572  1709A      2.747822  1710A      2.748322  
    1711A      2.748361  1712A      2.758520  1713A      2.759553  
    1714A      2.761509  1715A      2.762092  1716A      2.764230  
    1717A      2.765127  1718A      2.765773  1719A      2.766740  
    1720A      2.769333  1721A      2.789483  1722A      2.791247  
    1723A      2.795597  1724A      2.797513  1725A      2.797724  
    1726A      2.801833  1727A      2.801913  1728A      2.827806  
    1729A      2.843580  1730A      2.845162  1731A      2.852387  
    1732A      2.854601  1733A      2.855988  1734A      2.856985  
    1735A      2.872582  1736A      2.872604  1737A      2.874645  
    1738A      2.874688  1739A      2.888107  1740A      2.888473  
    1741A      2.889626  1742A      2.889788  1743A      2.890413  
    1744A      2.892865  1745A      2.898056  1746A      2.905608  
    1747A      2.905956  1748A      2.912380  1749A      2.915773  
    1750A      2.918777  1751A      2.923473  1752A      2.924597  
    1753A      2.937832  1754A      2.938305  1755A      2.941196  
    1756A      2.942195  1757A      2.945573  1758A      2.951302  
    1759A      2.973236  1760A      2.973912  1761A      2.984378  
    1762A      2.984581  1763A      2.993736  1764A      2.996635  
    1765A      2.997997  1766A      3.004298  1767A      3.004932  
    1768A      3.032628  1769A      3.034030  1770A      3.034513  
    1771A      3.043942  1772A      3.063086  1773A      3.063833  
    1774A      3.101843  1775A      3.102343  1776A      3.106543  
    1777A      3.108935  1778A      3.117451  1779A      3.120354  
    1780A      3.120912  1781A      3.129032  1782A      3.129231  
    1783A      3.129552  1784A      3.142808  1785A      3.174587  
    1786A      3.176477  1787A      3.178850  1788A      3.192791  
    1789A      3.198575  1790A      3.198801  1791A      3.204433  
    1792A      3.206078  1793A      3.208854  1794A      3.210066  
    1795A      3.212651  1796A      3.217726  1797A      3.218054  
    1798A      3.222144  1799A      3.223158  1800A      3.225041  
    1801A      3.227581  1802A      3.238867  1803A      3.242223  
    1804A      3.242547  1805A      3.249135  1806A      3.256969  
    1807A      3.258963  1808A      3.290915  1809A      3.296447  
    1810A      3.299629  1811A      3.323486  1812A      3.327844  
    1813A      3.329855  1814A      3.331708  1815A      3.334458  
    1816A      3.335041  1817A      3.342617  1818A      3.343515  
    1819A      3.348526  1820A      3.349699  1821A      3.369027  
    1822A      3.371296  1823A      3.382707  1824A      3.386585  
    1825A      3.390417  1826A      3.436936  1827A      3.437435  
    1828A      3.474239  1829A      3.492665  1830A      3.517613  
    1831A      3.521696  1832A      3.533973  1833A      3.537289  
    1834A      3.543232  1835A      3.550782  1836A      3.552483  
    1837A      3.554640  1838A      3.561322  1839A      3.570623  
    1840A      3.574224  1841A      3.583641  1842A      3.617534  
    1843A      3.620131  1844A      3.648922  1845A      3.653426  
    1846A      3.659799  1847A      3.662310  1848A      3.719056  
    1849A      3.724411  1850A      3.733495  1851A      3.745088  
    1852A      3.747767  1853A      3.781663  1854A      3.828626  
    1855A      3.830604  1856A      3.833927  1857A      3.846852  
    1858A      3.849553  1859A      3.914001  1860A      3.917856  
    1861A      3.921782  1862A      3.944857  1863A      3.948261  
    1864A      3.991826  1865A      3.994481  1866A      4.019156  
    1867A      4.019779  1868A      4.030922  1869A      4.032363  
    1870A      4.046065  1871A      4.057760  1872A      4.059489  
    1873A      4.099603  1874A      4.102860  1875A      4.138071  
    1876A      4.154554  1877A      4.158924  1878A      4.169100  
    1879A      4.183637  1880A      4.193887  1881A      4.194230  
    1882A      4.207093  1883A      4.210432  1884A      4.279942  
    1885A      4.283077  1886A      4.287588  1887A      4.374853  
    1888A      4.406956  1889A      4.423660  1890A      4.427715  
    1891A      4.508354  1892A      4.567634  1893A      4.635220  
    1894A      4.635689  1895A      4.667436  1896A      4.729815  
    1897A      4.765855  1898A      4.766212  

    Final Occupation by Irrep:
              A 
    DOCC [   321 ]
    NA   [   321 ]
    NB   [   321 ]

  @DF-RHF Final Energy: -4073.10669425756441

   => Energetics <=

    Nuclear Repulsion Energy =          17814.4097602862202621
    One-Electron Energy =              -41119.1488987635239027
    Two-Electron Energy =               19231.6324442197401368
    Total Energy =                      -4073.1066942575635039

Computation Completed


Properties will be evaluated at   0.000000,   0.000000,   0.000000 [a0]

Properties computed using the SCF density matrix


 Multipole Moments:

 ------------------------------------------------------------------------------------
     Multipole            Electronic (a.u.)      Nuclear  (a.u.)        Total (a.u.)
 ------------------------------------------------------------------------------------

 L = 1.  Multiply by 2.5417464519 to convert [e a0] to [Debye]
 Dipole X            :          0.0023528           -0.0000548            0.0022980
 Dipole Y            :          0.0019743           -0.0002464            0.0017279
 Dipole Z            :         15.0932783          -19.0440599           -3.9507816
 Magnitude           :                                                    3.9507826

 ------------------------------------------------------------------------------------

*** tstop() called on n2cn0434 at Sat Jan 27 13:38:28 2024
Module time:
	user time   =   26098.16 seconds =     434.97 minutes
	system time =    1558.20 seconds =      25.97 minutes
	total time  =      10598 seconds =     176.63 minutes
Total time:
	user time   =   26098.16 seconds =     434.97 minutes
	system time =    1558.20 seconds =      25.97 minutes
	total time  =      10598 seconds =     176.63 minutes

  //>>>>>>>>>>>>>>>>>>>>>>>>>>>>>>>>>>>//
  //            Monomer A HF           //
  //<<<<<<<<<<<<<<<<<<<<<<<<<<<<<<<<<<<//

   => Libint2 <=

    Primary   basis highest AM E, G, H:  5, 4, 3
    Auxiliary basis highest AM E, G, H:  6, 5, 4
    Onebody   basis highest AM E, G, H:  6, 5, 4
    Solid Harmonics ordering:            gaussian

*** tstart() called on n2cn0434
*** at Sat Jan 27 13:38:29 2024

   => Loading Basis Set <=

    Name: JUN-CC-PVDZ
    Role: ORBITAL
    Keyword: BASIS
    atoms 1                                                   entry B          line   130 file /opt/software/pc2/EB-SW/software/PSI4/1.9-foss-2022a/share/psi4/basis/jun-cc-pvdz.gbs 
    atoms 2-5                                                 entry F          line   266 file /opt/software/pc2/EB-SW/software/PSI4/1.9-foss-2022a/share/psi4/basis/jun-cc-pvdz.gbs 
    atoms 6-23, 30-42, 45-59, 62-78, 81-93, 98-108, 111-119   entry C          line   164 file /opt/software/pc2/EB-SW/software/PSI4/1.9-foss-2022a/share/psi4/basis/jun-cc-pvdz.gbs 
    atoms 24-29, 43-44, 60-61, 79-80, 94-97, 109-110, 120-125 entry H          line    36 file /opt/software/pc2/EB-SW/software/PSI4/1.9-foss-2022a/share/psi4/basis/jun-cc-pvdz.gbs 


         ---------------------------------------------------------
                                   SCF
               by Justin Turney, Rob Parrish, Andy Simmonett
                          and Daniel G. A. Smith
                              RHF Reference
                       16 Threads,  61035 MiB Core
         ---------------------------------------------------------

  ==> Geometry <==

    Molecular point group: c1
    Full point group: C1

    Geometry (in Angstrom), charge = -1, multiplicity = 1:

       Center              X                  Y                   Z               Mass       
    ------------   -----------------  -----------------  -----------------  -----------------
         B           -0.000201921932     0.000288800891     2.979629200586    11.009305360000
         F           -0.000004162732     0.000014527991     4.392414200586    18.998403162730
         F            1.147855837268     0.675795727991     2.508488200586    18.998403162730
         F            0.011913897268    -1.331996472009     2.508690200586    18.998403162730
         F           -1.159670162732     0.656088027991     2.508769200586    18.998403162730
      Gh(C)          -3.668445426752     7.803766698073    -0.218504758079    12.000000000000
      Gh(C)          -4.847602882078     7.131256359331    -0.220871333011    12.000000000000
      Gh(C)          -4.894963461907     5.696344931522    -0.221444244109    12.000000000000
      Gh(C)          -3.653744841505     4.980744868950    -0.213783802380    12.000000000000
      Gh(C)          -2.409429284226     7.113995564665    -0.218310415819    12.000000000000
      Gh(C)          -2.425481506836     5.681136478894    -0.225315304689    12.000000000000
      Gh(C)          -1.194748179167     7.786158722300    -0.216838235277    12.000000000000
      Gh(C)           0.037954866205     7.099436173748    -0.219008939581    12.000000000000
      Gh(C)           0.030328424687     5.669504087695    -0.224492324497    12.000000000000
      Gh(C)          -1.200988670637     4.969284875906    -0.215522590564    12.000000000000
      Gh(C)           1.277953663083     7.772873971185    -0.217633091021    12.000000000000
      Gh(C)           2.485353921992     7.087711413228    -0.219907578926    12.000000000000
      Gh(C)           2.486124522185     5.654785338231    -0.226845327913    12.000000000000
      Gh(C)           1.254078756912     4.956092641655    -0.215217386325    12.000000000000
      Gh(C)           3.751710428674     7.763926678971    -0.219780727545    12.000000000000
      Gh(C)           4.923561893453     7.078795304981    -0.221837208253    12.000000000000
      Gh(C)           4.955603108594     5.643461991360    -0.221997621060    12.000000000000
      Gh(C)           3.706797371473     4.941224736324    -0.216906060890    12.000000000000
      Gh(H)          -3.658525300490     8.890841947126    -0.216819769828     1.007825032230
      Gh(H)          -1.189217492488     8.874135615351    -0.212866358835     1.007825032230
      Gh(H)           1.284290076155     8.860847963479    -0.213474266880     1.007825032230
      Gh(H)           3.753537924068     8.851049806963    -0.218258203230     1.007825032230
      Gh(H)           5.869954540475     7.613809362646    -0.222762575296     1.007825032230
[...]
    1510A      2.135790  1511A      2.142293  1512A      2.143416  
    1513A      2.143729  1514A      2.144359  1515A      2.144780  
    1516A      2.144991  1517A      2.147595  1518A      2.151272  
    1519A      2.160355  1520A      2.160772  1521A      2.160839  
    1522A      2.161201  1523A      2.161710  1524A      2.163413  
    1525A      2.164771  1526A      2.166073  1527A      2.168311  
    1528A      2.168909  1529A      2.173745  1530A      2.174325  
    1531A      2.176213  1532A      2.180867  1533A      2.183661  
    1534A      2.184009  1535A      2.192122  1536A      2.192835  
    1537A      2.194670  1538A      2.195755  1539A      2.196332  
    1540A      2.197234  1541A      2.200701  1542A      2.202142  
    1543A      2.203223  1544A      2.203394  1545A      2.204319  
    1546A      2.206752  1547A      2.207727  1548A      2.210873  
    1549A      2.213195  1550A      2.213564  1551A      2.216496  
    1552A      2.220359  1553A      2.222922  1554A      2.224294  
    1555A      2.224449  1556A      2.228210  1557A      2.230180  
    1558A      2.231963  1559A      2.232614  1560A      2.233423  
    1561A      2.235312  1562A      2.236734  1563A      2.238592  
    1564A      2.242269  1565A      2.242376  1566A      2.246668  
    1567A      2.249447  1568A      2.249664  1569A      2.249755  
    1570A      2.261008  1571A      2.261973  1572A      2.265093  
    1573A      2.265862  1574A      2.269280  1575A      2.275326  
    1576A      2.275652  1577A      2.280433  1578A      2.281054  
    1579A      2.283182  1580A      2.287215  1581A      2.287773  
    1582A      2.295964  1583A      2.297010  1584A      2.297670  
    1585A      2.301274  1586A      2.306740  1587A      2.307573  
    1588A      2.313072  1589A      2.325392  1590A      2.328587  
    1591A      2.329439  1592A      2.329712  1593A      2.330669  
    1594A      2.331012  1595A      2.333956  1596A      2.335266  
    1597A      2.336817  1598A      2.338077  1599A      2.341246  
    1600A      2.341990  1601A      2.342525  1602A      2.344634  
    1603A      2.346176  1604A      2.346508  1605A      2.348076  
    1606A      2.350229  1607A      2.350524  1608A      2.371639  
    1609A      2.375045  1610A      2.380130  1611A      2.383180  
    1612A      2.387497  1613A      2.388893  1614A      2.398243  
    1615A      2.400047  1616A      2.412517  1617A      2.418314  
    1618A      2.420512  1619A      2.422338  1620A      2.426583  
    1621A      2.428075  1622A      2.439490  1623A      2.443817  
    1624A      2.445004  1625A      2.453248  1626A      2.457807  
    1627A      2.465572  1628A      2.466653  1629A      2.468439  
    1630A      2.470931  1631A      2.472030  1632A      2.472411  
    1633A      2.491741  1634A      2.492290  1635A      2.502344  
    1636A      2.503051  1637A      2.506441  1638A      2.508495  
    1639A      2.512322  1640A      2.517081  1641A      2.540127  
    1642A      2.540459  1643A      2.540922  1644A      2.543563  
    1645A      2.544655  1646A      2.547447  1647A      2.548587  
    1648A      2.549850  1649A      2.550334  1650A      2.556723  
    1651A      2.557005  1652A      2.559879  1653A      2.564349  
    1654A      2.571590  1655A      2.572017  1656A      2.583090  
    1657A      2.585709  1658A      2.585825  1659A      2.585969  
    1660A      2.587932  1661A      2.588531  1662A      2.589831  
    1663A      2.593301  1664A      2.594041  1665A      2.602470  
    1666A      2.602828  1667A      2.611884  1668A      2.614367  
    1669A      2.614610  1670A      2.615409  1671A      2.615450  
    1672A      2.619434  1673A      2.633325  1674A      2.642316  
    1675A      2.642910  1676A      2.645900  1677A      2.648180  
    1678A      2.650056  1679A      2.651185  1680A      2.651634  
    1681A      2.654042  1682A      2.657235  1683A      2.657292  
    1684A      2.666267  1685A      2.668769  1686A      2.669811  
    1687A      2.671356  1688A      2.671684  1689A      2.674269  
    1690A      2.681089  1691A      2.681282  1692A      2.686682  
    1693A      2.688320  1694A      2.691455  1695A      2.691838  
    1696A      2.694108  1697A      2.695193  1698A      2.695692  
    1699A      2.697895  1700A      2.701129  1701A      2.711523  
    1702A      2.723497  1703A      2.727599  1704A      2.731085  
    1705A      2.731187  1706A      2.732008  1707A      2.732071  
    1708A      2.758238  1709A      2.770115  1710A      2.771012  
    1711A      2.777495  1712A      2.782787  1713A      2.783463  
    1714A      2.784042  1715A      2.800186  1716A      2.800227  
    1717A      2.802461  1718A      2.802468  1719A      2.813005  
    1720A      2.813919  1721A      2.814908  1722A      2.816099  
    1723A      2.817558  1724A      2.819321  1725A      2.821537  
    1726A      2.831425  1727A      2.831736  1728A      2.841073  
    1729A      2.845755  1730A      2.847960  1731A      2.848182  
    1732A      2.848632  1733A      2.864473  1734A      2.864672  
    1735A      2.870906  1736A      2.872202  1737A      2.873705  
    1738A      2.875386  1739A      2.896137  1740A      2.896794  
    1741A      2.899217  1742A      2.916599  1743A      2.917120  
    1744A      2.919727  1745A      2.920436  1746A      2.921138  
    1747A      2.928114  1748A      2.931387  1749A      2.938758  
    1750A      2.938788  1751A      2.963912  1752A      2.968000  
    1753A      2.968478  1754A      2.976366  1755A      2.996455  
    1756A      2.997543  1757A      3.031307  1758A      3.031662  
    1759A      3.039762  1760A      3.041832  1761A      3.050227  
    1762A      3.051005  1763A      3.051229  1764A      3.058430  
    1765A      3.058567  1766A      3.068645  1767A      3.073376  
    1768A      3.109830  1769A      3.111780  1770A      3.114357  
    1771A      3.124096  1772A      3.129758  1773A      3.129997  
    1774A      3.138488  1775A      3.139846  1776A      3.142197  
    1777A      3.143541  1778A      3.150634  1779A      3.150939  
    1780A      3.155324  1781A      3.156137  1782A      3.156566  
    1783A      3.162230  1784A      3.168944  1785A      3.173331  
    1786A      3.178493  1787A      3.178789  1788A      3.192866  
    1789A      3.195094  1790A      3.221280  1791A      3.260572  
    1792A      3.262434  1793A      3.262585  1794A      3.263369  
    1795A      3.263808  1796A      3.265858  1797A      3.271661  
    1798A      3.274361  1799A      3.276373  1800A      3.277117  
    1801A      3.297557  1802A      3.300454  1803A      3.308194  
    1804A      3.315209  1805A      3.363709  1806A      3.364376  
    1807A      3.395499  1808A      3.419074  1809A      3.443317  
    1810A      3.446533  1811A      3.458161  1812A      3.462615  
    1813A      3.465659  1814A      3.468559  1815A      3.477705  
    1816A      3.478016  1817A      3.482151  1818A      3.489416  
    1819A      3.492122  1820A      3.510443  1821A      3.512236  
    1822A      3.544443  1823A      3.563687  1824A      3.580832  
    1825A      3.582293  1826A      3.591414  1827A      3.593210  
    1828A      3.646202  1829A      3.652744  1830A      3.673340  
    1831A      3.675797  1832A      3.708677  1833A      3.758844  
    1834A      3.760400  1835A      3.762506  1836A      3.775235  
    1837A      3.778802  1838A      3.801530  1839A      3.845122  
    1840A      3.849127  1841A      3.874908  1842A      3.878401  
    1843A      3.923332  1844A      3.925649  1845A      3.949105  
    1846A      3.949789  1847A      3.961082  1848A      3.963691  
    1849A      3.975581  1850A      3.982404  1851A      3.985596  
    1852A      4.024886  1853A      4.027690  1854A      4.090139  
    1855A      4.278407  1856A      4.367488  1857A      4.445853  
    1858A      4.452455  1859A      4.555470  1860A      4.567957  
    1861A      4.627878  1862A      5.768493  1863A      5.770105  
    1864A      5.770838  1865A      5.773865  1866A      5.775780  
    1867A      5.776039  1868A      5.787664  1869A      5.787943  
    1870A      5.839678  1871A      5.840074  1872A      5.858527  
    1873A      6.030681  1874A      6.031003  1875A      6.042610  
    1876A      6.217364  1877A      6.335720  1878A      6.336092  
    1879A      6.394936  1880A      6.395347  1881A      6.407565  
    1882A      7.328949  1883A      7.330220  1884A      7.408908  
    1885A      7.412930  1886A      7.420279  1887A      7.537371  
    1888A      7.547188  1889A      7.566823  1890A      7.606281  
    1891A      7.709028  1892A      7.710207  1893A      7.896029  
    1894A     12.803084  1895A     42.952026  1896A     42.979183  
    1897A     42.979461  1898A     42.987249  

    Final Occupation by Irrep:
              A 
    DOCC [   300 ]
    NA   [   300 ]
    NB   [   300 ]

  @DF-RHF Final Energy: -3650.34023178927509

   => Energetics <=

    Nuclear Repulsion Energy =          15611.4211649754324753
    One-Electron Energy =              -36072.1500148064224049
    Two-Electron Energy =               16810.3886180417139258
    Total Energy =                      -3650.3402317892760038

Computation Completed


Properties will be evaluated at   0.000000,   0.000000,   0.000000 [a0]

Properties computed using the SCF density matrix


 Multipole Moments:

 ------------------------------------------------------------------------------------
     Multipole            Electronic (a.u.)      Nuclear  (a.u.)        Total (a.u.)
 ------------------------------------------------------------------------------------

 L = 1.  Multiply by 2.5417464519 to convert [e a0] to [Debye]
 Dipole X            :          0.0001671            0.0002304            0.0003975
 Dipole Y            :          0.0014388           -0.0013052            0.0001336
 Dipole Z            :        249.9012770         -249.8994327            0.0018444
 Magnitude           :                                                    0.0018914

 ------------------------------------------------------------------------------------

*** tstop() called on n2cn0434 at Sat Jan 27 16:21:55 2024
Module time:
	user time   =   16376.25 seconds =     272.94 minutes
	system time =    1029.58 seconds =      17.16 minutes
	total time  =       6250 seconds =     104.17 minutes
Total time:
	user time   =   46347.13 seconds =     772.45 minutes
	system time =    2872.64 seconds =      47.88 minutes
	total time  =      20405 seconds =     340.08 minutes
  Constructing Basis Sets for SAPT...

   => Loading Basis Set <=

    Name: (JUN-CC-PVDZ AUX)
    Role: RIFIT
    Keyword: DF_BASIS_SAPT
    atoms 1                                                   entry B          line    56 file /opt/software/pc2/EB-SW/software/PSI4/1.9-foss-2022a/share/psi4/basis/jun-cc-pvdz-ri.gbs 
    atoms 2-5                                                 entry F          line   232 file /opt/software/pc2/EB-SW/software/PSI4/1.9-foss-2022a/share/psi4/basis/jun-cc-pvdz-ri.gbs 
    atoms 6-23, 30-42, 45-59, 62-78, 81-93, 98-108, 111-119   entry C          line   100 file /opt/software/pc2/EB-SW/software/PSI4/1.9-foss-2022a/share/psi4/basis/jun-cc-pvdz-ri.gbs 
    atoms 24-29, 43-44, 60-61, 79-80, 94-97, 109-110, 120-125 entry H          line    30 file /opt/software/pc2/EB-SW/software/PSI4/1.9-foss-2022a/share/psi4/basis/jun-cc-pvdz-ri.gbs 

   => Loading Basis Set <=

    Name: (JUN-CC-PVDZ AUX)
    Role: JKFIT
    Keyword: DF_BASIS_ELST
    atoms 1                                                   entry B          line    90 file /opt/software/pc2/EB-SW/software/PSI4/1.9-foss-2022a/share/psi4/basis/jun-cc-pvdz-jkfit.gbs 
    atoms 2-5                                                 entry F          line   314 file /opt/software/pc2/EB-SW/software/PSI4/1.9-foss-2022a/share/psi4/basis/jun-cc-pvdz-jkfit.gbs 
    atoms 6-23, 30-42, 45-59, 62-78, 81-93, 98-108, 111-119   entry C          line   146 file /opt/software/pc2/EB-SW/software/PSI4/1.9-foss-2022a/share/psi4/basis/jun-cc-pvdz-jkfit.gbs 
    atoms 24-29, 43-44, 60-61, 79-80, 94-97, 109-110, 120-125 entry H          line    70 file /opt/software/pc2/EB-SW/software/PSI4/1.9-foss-2022a/share/psi4/basis/jun-cc-pvdz-jkfit.gbs 


  //>>>>>>>>>>>>>>>>>>>>>>>>>>>>>>>>>>>//
  //               SSAPT0              //
  //<<<<<<<<<<<<<<<<<<<<<<<<<<<<<<<<<<<//


*** tstart() called on n2cn0434
*** at Sat Jan 27 16:21:56 2024

        SAPT0  
    Ed Hohenstein
     6 June 2009

      Orbital Information
  --------------------------
    NSO        =      1938
    NMO        =      1898
    NRI        =      6901
    NRI (Elst) =      8531
    NOCC A     =        21
    NOCC B     =       300
    FOCC A     =         5
    FOCC B     =        96
    NVIR A     =      1877
    NVIR B     =      1598

    Elst10,r            =    -0.001363064561 [Eh]
    Exch10              =     0.034743744328 [Eh]
    Exch10 (S^2)        =     0.034607172869 [Eh]

    Iter     Energy [mEh]          dE [mEh]         Residual      Time [s]
       1      -3.70497896       3.704978958      10.349197361           886
       2      -4.64212612       0.937147161       3.967860389          1546
       3      -4.72285029       0.080724168       0.680798469          2260
       4      -4.70839666      -0.014453629       0.188428173          2848
       5      -4.70813099      -0.000265671       0.052465656          3665
       6      -4.70861535       0.000484366       0.014058303          4383
       7      -4.70870550       0.000090144       0.002638548          5077
       8      -4.70867599      -0.000029503       0.000463840          5676
       9      -4.70867901       0.000003016       0.000073454          6248
      10      -4.70867895      -0.000000063       0.000012299          6716
      11      -4.70867889      -0.000000056       0.000002246          7207
      12      -4.70867890       0.000000012       0.000000513          7692

    CHF Iterations converged


    Iter     Energy [mEh]          dE [mEh]         Residual      Time [s]
       1     -43.10686185      43.106861855     106.043096463           513
       2     -29.90610199     -13.200759863      13.155754712          1101
       3     -30.06936675       0.163264759       4.730963917          1762
       4     -30.65087691       0.581510161       1.485478738          2248
       5     -30.70907026       0.058193352       0.587718319          2733
       6     -30.67531235      -0.033757919       0.320007882          3232
       7     -30.66427023      -0.011042111       0.131658642          3731
       8     -30.66897705       0.004706814       0.055471417          4308
       9     -30.67102704       0.002049995       0.018039189          4855
      10     -30.67056807      -0.000458976       0.009774803          5590
      11     -30.67024073      -0.000327341       0.006782686          6284
      12     -30.67035316       0.000112428       0.005535180          6929
      13     -30.67047510       0.000121948       0.002696172          7606
      14     -30.67044427      -0.000030835       0.001163422          8392
      15     -30.67042489      -0.000019383       0.000713584          9070
      16     -30.67042002      -0.000004862       0.000407650          9796
      17     -30.67042941       0.000009385       0.000184844         10610
      18     -30.67043036       0.000000953       0.000076904         11483
      19     -30.67042880      -0.000001565       0.000048639         12534
      20     -30.67042801      -0.000000781       0.000023410         13640
      21     -30.67042860       0.000000588       0.000011309         14954
      22     -30.67042872       0.000000118       0.000004984         16080
      23     -30.67042862      -0.000000103       0.000002185         17120
      24     -30.67042860      -0.000000022       0.000001005         18103
      25     -30.67042861       0.000000015       0.000000540         19146

    CHF Iterations converged

    Ind20,r (A<-B)      =    -0.004708678903 [Eh]
    Ind20,r (B<-A)      =    -0.030670428611 [Eh]
    Ind20,r             =    -0.035379107514 [Eh]
    Exch-Ind20,r (A<-B) =     0.004336381905 [Eh]
    Exch-Ind20,r (B<-A) =     0.008711187026 [Eh]
    Exch-Ind20,r        =     0.013047568931 [Eh]
    Disp20              =    -0.022169632957 [Eh]
    Disp20 (SS)         =    -0.011084816479 [Eh]
    Disp20 (OS)         =    -0.011084816479 [Eh]
    Exch-Disp20         =     0.004025219030 [Eh]
    Exch-Disp20 (SS)    =     0.002279902108 [Eh]
    Exch-Disp20 (OS)    =     0.001745316922 [Eh]

    SAPT Results 
  --------------------------------------------------------------------------------------------------------
    Electrostatics                 -1.36306456 [mEh]      -0.85533593 [kcal/mol]      -3.57872551 [kJ/mol]
      Elst10,r                     -1.36306456 [mEh]      -0.85533593 [kcal/mol]      -3.57872551 [kJ/mol]

    Exchange                       34.74374433 [mEh]      21.80202872 [kcal/mol]      91.21968816 [kJ/mol]
      Exch10                       34.74374433 [mEh]      21.80202872 [kcal/mol]      91.21968816 [kJ/mol]
      Exch10(S^2)                  34.60717287 [mEh]      21.71632884 [kcal/mol]      90.86111985 [kJ/mol]

    Induction                     -25.23328971 [mEh]     -15.83412834 [kcal/mol]     -66.24999299 [kJ/mol]
      Ind20,r                     -35.37910751 [mEh]     -22.20072514 [kcal/mol]     -92.88783398 [kJ/mol]
      Exch-Ind20,r                 13.04756893 [mEh]       8.18747311 [kcal/mol]      34.25638751 [kJ/mol]
      delta HF,r (2)               -2.90175112 [mEh]      -1.82087632 [kcal/mol]      -7.61854652 [kJ/mol]

    Dispersion                    -18.14441393 [mEh]     -11.38579164 [kcal/mol]     -47.63815220 [kJ/mol]
      Disp20                      -22.16963296 [mEh]     -13.91165471 [kcal/mol]     -58.20636331 [kJ/mol]
      Exch-Disp20                   4.02521903 [mEh]       2.52586308 [kcal/mol]      10.56821111 [kJ/mol]
      Disp20 (SS)                 -11.08481648 [mEh]      -6.95582736 [kcal/mol]     -29.10318166 [kJ/mol]
      Disp20 (OS)                 -11.08481648 [mEh]      -6.95582736 [kcal/mol]     -29.10318166 [kJ/mol]
      Exch-Disp20 (SS)              2.27990211 [mEh]       1.43066017 [kcal/mol]       5.98588216 [kJ/mol]
      Exch-Disp20 (OS)              1.74531692 [mEh]       1.09520290 [kcal/mol]       4.58232895 [kJ/mol]

  Total HF                          8.14739006 [mEh]       5.11256445 [kcal/mol]      21.39096966 [kJ/mol]
  Total SAPT0                      -9.99702387 [mEh]      -6.27322719 [kcal/mol]     -26.24718254 [kJ/mol]

  Special recipe for scaled SAPT0 (see Manual):
    Electrostatics sSAPT0          -1.36306456 [mEh]      -0.85533593 [kcal/mol]      -3.57872551 [kJ/mol]
    Exchange sSAPT0                34.74374433 [mEh]      21.80202872 [kcal/mol]      91.21968816 [kJ/mol]
    Induction sSAPT0              -25.07820912 [mEh]     -15.73681381 [kcal/mol]     -65.84282898 [kJ/mol]
    Dispersion sSAPT0             -18.09657104 [mEh]     -11.35576977 [kcal/mol]     -47.51254073 [kJ/mol]
  Total sSAPT0                     -9.79410040 [mEh]      -6.14589079 [kcal/mol]     -25.71440706 [kJ/mol]
  --------------------------------------------------------------------------------------------------------

*** tstop() called on n2cn0434 at Mon Jan 29 10:15:30 2024
Module time:
	user time   =   65609.17 seconds =    1093.49 minutes
	system time =    3307.44 seconds =      55.12 minutes
	total time  =     150814 seconds =    2513.57 minutes
Total time:
	user time   =  111957.62 seconds =    1865.96 minutes
	system time =    6180.08 seconds =     103.00 minutes
	total time  =     171220 seconds =    2853.67 minutes

    Psi4 stopped on: Monday, 29 January 2024 10:15AM
    Psi4 wall time for execution: 1 day, 23:33:46.01

*** Psi4 exiting successfully. Buy a developer a beer!
