
    -----------------------------------------------------------------------
          Psi4: An Open-Source Ab Initio Electronic Structure Package
                               Psi4 1.9 release

                         Git: Rev {} zzzzzzz 


    D. G. A. Smith, L. A. Burns, A. C. Simmonett, R. M. Parrish,
    M. C. Schieber, R. Galvelis, P. Kraus, H. Kruse, R. Di Remigio,
    A. Alenaizan, A. M. James, S. Lehtola, J. P. Misiewicz, M. Scheurer,
    R. A. Shaw, J. B. Schriber, Y. Xie, Z. L. Glick, D. A. Sirianni,
    J. S. O'Brien, J. M. Waldrop, A. Kumar, E. G. Hohenstein,
    B. P. Pritchard, B. R. Brooks, H. F. Schaefer III, A. Yu. Sokolov,
    K. Patkowski, A. E. DePrince III, U. Bozkaya, R. A. King,
    F. A. Evangelista, J. M. Turney, T. D. Crawford, C. D. Sherrill,
    J. Chem. Phys. 152(18) 184108 (2020). https://doi.org/10.1063/5.0006002

                            Additional Code Authors
    E. T. Seidl, C. L. Janssen, E. F. Valeev, M. L. Leininger,
    J. F. Gonthier, R. M. Richard, H. R. McAlexander, M. Saitow, X. Wang,
    P. Verma, M. H. Lechner, A. Jiang, S. Behnle, A. G. Heide,
    M. F. Herbst, and D. L. Poole

             Previous Authors, Complete List of Code Contributors,
                       and Citations for Specific Modules
    https://github.com/psi4/psi4/blob/master/codemeta.json
    https://github.com/psi4/psi4/graphs/contributors
    http://psicode.org/psi4manual/master/introduction.html#citing-psifour

    -----------------------------------------------------------------------


    Psi4 started on: Wednesday, 24 January 2024 11:08PM

    Process ID: 566304
    Host:       n2cn0357
    PSIDATADIR: /opt/software/pc2/EB-SW/software/PSI4/1.9-foss-2022a/share/psi4
    Memory:     500.0 MiB
    Threads:    16
    
  ==> Input File <==

--------------------------------------------------------------------------
memory 47 GB # how much memory is available ! Depends on the nodes/cores !

molecule dimer {
# monomer A
-1 1    # Charge and multiplicity
B -1.977592e-04  2.742729e-04 -7.599966
F  1.123153e-16  1.430594e-17 -6.187181
F  1.147860e+00  6.757812e-01 -8.071107
F  1.191806e-02 -1.332011e+00 -8.070905
F -1.159666e+00  6.560735e-01 -8.070826
--
# monomer B
0 1     # Charge and multiplicity
C   -3.66844126402057      7.80375217008252      0.00190004133558
C   -4.84759871934653      7.13124183134024     -0.00046653359696
C   -4.89495929917518      5.69633040353158     -0.00103944469517
C   -3.65374067877320      4.98073034095895      0.00662099703436
C   -2.40942512149445      7.11398103667468      0.00209438359570
C   -2.42547734410473      5.68112195090346     -0.00491050527438
C   -1.19474401643570      7.78614419430947      0.00356656413763
C   0.03795902893699      7.09942164575698      0.00139585983271
C   0.03033258741920      5.66948955970466     -0.00408752508301
C   -1.20098450790502      4.96927034791531      0.00488220885047
C   1.27795782581485      7.77285944319479      0.00277170839332
C   2.48535808472416      7.08769688523756      0.00049722048857
C   2.48612868491717      5.65477081024076     -0.00644052849921
C   1.25408291964399      4.95607811366431      0.00518741308898
C   3.75171459140595      7.76391215098033      0.00062407186893
C   4.92356605618520      7.07878077698995     -0.00143240883900
C   4.95560727132542      5.64344746336949     -0.00159282164606
C   3.70680153420475      4.94121020833308      0.00349873852374
H   -3.65852113775815      8.89082741913536      0.00358502958574
H   -1.18921332975660      8.87412108735996      0.00753844057883
H   1.28429423888630      8.86083343548850      0.00693053253426
H   3.75354208679975      8.85103527897216      0.00214659618464
H   5.86995870320703      7.61379483465560     -0.00235777588134
H   -5.78823170750226      7.67630221293400     -0.00202638095293
C   -6.09197395869619      4.99326001364347     -0.00291168518608
C   -6.12866148031747      3.58258016879823     -0.00171050815740
C   -3.66457974004527      3.56418217974434     -0.00463560277484
C   -4.89429820469869      2.86108077590057      0.00453338221034
C   -2.43733499489796      2.84761165708481      0.00719617576166
C   -1.20922785759670      3.54788693497833     -0.00648285103018
C   1.24714157216223      3.53468075142962     -0.00729145743546
C   0.01517603956900      2.83311183930540      0.00439272578912
C   2.46764517244071      2.82128997725533      0.00449278391269
C   3.70254947457969      3.52466015442405     -0.00899517692985
C   6.14498038638375      4.92757236613191     -0.00282626685777
C   6.16658835886151      3.51658447594213     -0.00065971342101
C   4.92460995845939      2.80840792535402      0.00587903281610
H   7.08990550964105      5.46688776622306     -0.00658814770723
H   -7.03104175110130      5.54268795285765     -0.00714490013730
C   -7.33969804112295      2.85841153457957     -0.00333767559888
C   -7.36488195805880      1.47032337158330     -0.00157213747140
C   -4.90350460894690      1.44442681216000     -0.00628840166334
C   -6.13225715261081      0.73993935705394      0.00600164231964
C   -3.67687480051673      0.72669714267312      0.00433931473643
C   -2.44565658606518      1.42964113326212     -0.00597039546461
C   -1.22360068130162      0.71532450163492      0.00545886906656
C   0.00763786931376      1.41738314923765      0.00392452278437
C   1.23121980774686      0.70211669058719     -0.01490206287210
C   2.46082110053113      1.40329203612573      0.00460244601878
C   3.68443025419614      0.68719842821222      0.00377365974158
C   4.91870890153864      1.39173456118907     -0.00862816189375
C   7.36980207796101      2.77948220318441     -0.00242013321349
C   7.38016266612146      1.39121750785509     -0.00087345036788
C   6.13979953912259      0.67411862320065      0.00545489144369
H   -8.27919079934664      3.40711804112415     -0.00763522772059
H   8.31511347147953      3.31811809662368     -0.00663070901292
C   -8.59175593758115      0.72483255304480     -0.00123170985383
C   -8.59902460370342     -0.63263980622873      0.00089141472904
C   -6.13981313911873     -0.67413663715361     -0.00609792660607
C   -7.38018411213749     -1.39126618958160      0.00131813493501
C   -4.91868448025621     -1.39175501803000      0.00624257154343
C   -3.68443829568458     -0.68723731573599     -0.00478966852105
C   -2.46081704024768     -1.40334517882457      0.00575341766833
C   -1.23116201232071     -0.70217386488055     -0.00636696112346
C   -0.00756962538737     -1.41741884941102      0.00108956317991
C   1.22364771588843     -0.71527537726392      0.01109518512883
C   2.44567064933149     -1.42964328900682     -0.00065482763106
C   3.67686670284649     -0.72670743155550     -0.00479541202602
C   6.13224884641929     -0.73997883984993     -0.00632338623858
C   4.90351914550401     -1.44445752054090      0.00751768830159
C   8.59901484869081      0.63260386666793     -0.00101133422380
C   8.59174548810050     -0.72485086719319      0.00072504603735
C   7.36486276438985     -1.47033266560598      0.00049486934466
H   -9.52830597181814      1.27684744919284     -0.00270163681798
H   9.54141097460619      1.17457248844457     -0.00206336648518
C   -7.36983790976868     -2.77954514593389      0.00312634335708
C   -4.92459910905015     -2.80843725734101     -0.00460528907921
C   -6.16662249566744     -3.51665219282533      0.00169655107992
C   -3.70251035970491     -3.52468154912026      0.00571878010666
C   -2.46764698511392     -2.82132596280400     -0.00632585824990
C   -0.01513347410770     -2.83314164539971     -0.00604426974092
C   -1.24712184122656     -3.53473217556300      0.00551968366725
C   1.20924506964357     -3.54791467864352      0.00805871345849
C   2.43733602215464     -2.84764173817541     -0.00608104485234
C   4.89430234377080     -2.86112296828604     -0.00526030478103
C   3.66461525504104     -3.56421984553201      0.00761911515957
C   6.12863901474565     -3.58258405771778      0.00096495711699
C   7.33967266469532     -2.85841330737039      0.00248018319869
H   -9.54144911125902     -1.17456346666430      0.00226083090216
H   9.52826186807155     -1.27691907390448      0.00197485379837
H   -8.31516504384864     -3.31814985321231      0.00729857188773
H   8.27915514249207     -3.40714078989363      0.00681973918158
C   -6.14499418870218     -4.92764727278338      0.00302254913999
C   -3.70678334799751     -4.94126171411716     -0.00679841894792
C   -4.95559005800169     -5.64349397349412      0.00116871569699
C   -2.48612132622665     -5.65478557440947      0.00614125209662
C   -1.25405833548005     -4.95612205000132     -0.00503435388927
C   1.20101257386816     -4.96928038819302     -0.00385322963129
C   -0.03033667441341     -5.66952030313900      0.00398997003238
C   3.65375010132847     -4.98074377541453     -0.00309522988330
C   2.42549269587528     -5.68117463552727      0.00628170066869
C   6.09196561781097     -4.99325796338655      0.00325918379042
C   4.89497644461045     -5.69634842095790      0.00202298796027
H   -7.08989238804069     -5.46699984223871      0.00742531082125
H   7.03105520920009     -5.54265853633254      0.00683896355417
C   -4.92354532219813     -7.07882109967734      0.00061394679214
C   -2.48534208823777     -7.08772807792913     -0.00189594564379
C   -3.75168589177895     -7.76394715763627     -0.00170126671874
C   -0.03794895698805     -7.09946487446944     -0.00168022049625
C   -1.27795610040136     -7.77290438466689     -0.00366491325785
C   2.40944432072629     -7.11402201200282     -0.00081701968533
C   1.19474993715296     -7.78618536556242     -0.00296931056689
C   4.84762105249800     -7.13126211057943      0.00168979497423
C   3.66847160587561     -7.80378799294376     -0.00065863938960
H   -5.86994035041618     -7.61383059804164      0.00215798365757
H   5.78824962538815     -7.67633218931421      0.00281691445618
H   -3.75352693944918     -8.85107156923607     -0.00353718114765
H   -1.28430440589466     -8.86087539249706     -0.00809229711623
H   1.18922157469537     -8.87416062058945     -0.00706194725726
H   3.65854661482387     -8.89086063405326     -0.00231318081200

    units angstrom      # Angstroms are the default
    no_reorient         # Geometry fixed, default
    symmetry c1         # C1 symmetry, default
}

set {
    scf_type DF         # Density fitting, faster than exact integrals
    freeze_core True    # Freeze core electrons
    basis jun-cc-pVDZ   # Jun-cc-pVDZ basis set, recommended for sSAPT0 in https://doi.org/10.1063/1.4867135
}

energy('ssapt0')        # Compute sSAPT0 energy, includes also SAPT0
--------------------------------------------------------------------------

  Memory set to  43.772 GiB by Python driver.

Scratch directory: /tmp/
   => Loading Basis Set <=

    Name: JUN-CC-PVDZ
    Role: ORBITAL
    Keyword: BASIS
    atoms 1                                                   entry B          line   130 file /opt/software/pc2/EB-SW/software/PSI4/1.9-foss-2022a/share/psi4/basis/jun-cc-pvdz.gbs 
    atoms 2-5                                                 entry F          line   266 file /opt/software/pc2/EB-SW/software/PSI4/1.9-foss-2022a/share/psi4/basis/jun-cc-pvdz.gbs 
    atoms 6-23, 30-42, 45-59, 62-78, 81-93, 98-108, 111-119   entry C          line   164 file /opt/software/pc2/EB-SW/software/PSI4/1.9-foss-2022a/share/psi4/basis/jun-cc-pvdz.gbs 
    atoms 24-29, 43-44, 60-61, 79-80, 94-97, 109-110, 120-125 entry H          line    36 file /opt/software/pc2/EB-SW/software/PSI4/1.9-foss-2022a/share/psi4/basis/jun-cc-pvdz.gbs 

   => Loading Basis Set <=

    Name: JUN-CC-PVDZ
    Role: ORBITAL
    Keyword: BASIS
    atoms 1                                                   entry B          line   130 file /opt/software/pc2/EB-SW/software/PSI4/1.9-foss-2022a/share/psi4/basis/jun-cc-pvdz.gbs 
    atoms 2-5                                                 entry F          line   266 file /opt/software/pc2/EB-SW/software/PSI4/1.9-foss-2022a/share/psi4/basis/jun-cc-pvdz.gbs 
    atoms 6-23, 30-42, 45-59, 62-78, 81-93, 98-108, 111-119   entry C          line   164 file /opt/software/pc2/EB-SW/software/PSI4/1.9-foss-2022a/share/psi4/basis/jun-cc-pvdz.gbs 
    atoms 24-29, 43-44, 60-61, 79-80, 94-97, 109-110, 120-125 entry H          line    36 file /opt/software/pc2/EB-SW/software/PSI4/1.9-foss-2022a/share/psi4/basis/jun-cc-pvdz.gbs 


  //>>>>>>>>>>>>>>>>>>>>>>>>>>>>>>>>>>>//
  //              Dimer HF             //
  //<<<<<<<<<<<<<<<<<<<<<<<<<<<<<<<<<<<//

   => Libint2 <=

    Primary   basis highest AM E, G, H:  5, 4, 3
    Auxiliary basis highest AM E, G, H:  6, 5, 4
    Onebody   basis highest AM E, G, H:  6, 5, 4
    Solid Harmonics ordering:            gaussian

*** tstart() called on n2cn0357
*** at Wed Jan 24 23:08:17 2024

   => Loading Basis Set <=

    Name: JUN-CC-PVDZ
    Role: ORBITAL
    Keyword: BASIS
    atoms 1                                                   entry B          line   130 file /opt/software/pc2/EB-SW/software/PSI4/1.9-foss-2022a/share/psi4/basis/jun-cc-pvdz.gbs 
    atoms 2-5                                                 entry F          line   266 file /opt/software/pc2/EB-SW/software/PSI4/1.9-foss-2022a/share/psi4/basis/jun-cc-pvdz.gbs 
    atoms 6-23, 30-42, 45-59, 62-78, 81-93, 98-108, 111-119   entry C          line   164 file /opt/software/pc2/EB-SW/software/PSI4/1.9-foss-2022a/share/psi4/basis/jun-cc-pvdz.gbs 
    atoms 24-29, 43-44, 60-61, 79-80, 94-97, 109-110, 120-125 entry H          line    36 file /opt/software/pc2/EB-SW/software/PSI4/1.9-foss-2022a/share/psi4/basis/jun-cc-pvdz.gbs 


         ---------------------------------------------------------
                                   SCF
               by Justin Turney, Rob Parrish, Andy Simmonett
                          and Daniel G. A. Smith
                              RHF Reference
                       16 Threads,  44822 MiB Core
         ---------------------------------------------------------

  ==> Geometry <==

    Molecular point group: c1
    Full point group: C1

    Geometry (in Angstrom), charge = -1, multiplicity = 1:

       Center              X                  Y                   Z               Mass       
    ------------   -----------------  -----------------  -----------------  -----------------
         B           -0.000201921932     0.000288800891    -7.076515180033    11.009305360000
         F           -0.000004162732     0.000014527991    -5.663730180033    18.998403162730
         F            1.147855837268     0.675795727991    -7.547656180033    18.998403162730
         F            0.011913897268    -1.331996472009    -7.547454180033    18.998403162730
         F           -1.159670162732     0.656088027991    -7.547375180033    18.998403162730
         C           -3.668445426752     7.803766698073     0.525350861303    12.000000000000
         C           -4.847602882078     7.131256359331     0.522984286370    12.000000000000
         C           -4.894963461907     5.696344931522     0.522411375272    12.000000000000
         C           -3.653744841505     4.980744868950     0.530071817001    12.000000000000
         C           -2.409429284226     7.113995564665     0.525545203563    12.000000000000
         C           -2.425481506836     5.681136478894     0.518540314693    12.000000000000
         C           -1.194748179167     7.786158722300     0.527017384105    12.000000000000
         C            0.037954866205     7.099436173748     0.524846679800    12.000000000000
         C            0.030328424687     5.669504087695     0.519363294884    12.000000000000
         C           -1.200988670637     4.969284875906     0.528333028817    12.000000000000
         C            1.277953663083     7.772873971185     0.526222528360    12.000000000000
         C            2.485353921992     7.087711413228     0.523948040456    12.000000000000
         C            2.486124522185     5.654785338231     0.517010291468    12.000000000000
         C            1.254078756912     4.956092641655     0.528638233056    12.000000000000
         C            3.751710428674     7.763926678971     0.524074891836    12.000000000000
         C            4.923561893453     7.078795304981     0.522018411128    12.000000000000
         C            4.955603108594     5.643461991360     0.521857998321    12.000000000000
         C            3.706797371473     4.941224736324     0.526949558491    12.000000000000
         H           -3.658525300490     8.890841947126     0.527035849553     1.007825032230
         H           -1.189217492488     8.874135615351     0.530989260546     1.007825032230
         H            1.284290076155     8.860847963479     0.530381352501     1.007825032230
         H            3.753537924068     8.851049806963     0.525597416152     1.007825032230
         H            5.869954540475     7.613809362646     0.521093044086     1.007825032230
         H           -5.788235870234     7.676316740925     0.521424439014     1.007825032230
         C           -6.091978121428     4.993274541634     0.520539134781    12.000000000000
         C           -6.128665643049     3.582594696789     0.521740311810    12.000000000000
         C           -3.664583902777     3.564196707735     0.518815217192    12.000000000000
         C           -4.894302367430     2.861095303891     0.527984202177    12.000000000000
         C           -2.437339157630     2.847626185075     0.530646995729    12.000000000000
         C           -1.209232020328     3.547901462969     0.516967968937    12.000000000000
         C            1.247137409430     3.534695279420     0.516159362531    12.000000000000
         C            0.015171876837     2.833126367296     0.527843545756    12.000000000000
         C            2.467641009709     2.821304505246     0.527943603880    12.000000000000
         C            3.702545311848     3.524674682415     0.514455643037    12.000000000000
         C            6.144976223652     4.927586894122     0.520624553109    12.000000000000
         C            6.166584196130     3.516599003933     0.522791106546    12.000000000000
         C            4.924605795728     2.808422453345     0.529329852783    12.000000000000
         H            7.089901346909     5.466902294214     0.516862672260     1.007825032230
         H           -7.031045913833     5.542702480848     0.516305919830     1.007825032230
         C           -7.339702203855     2.858426062570     0.520113144368    12.000000000000
         C           -7.364886120791     1.470337899574     0.521878682496    12.000000000000
         C           -4.903508771679     1.444441340151     0.517162418304    12.000000000000
         C           -6.132261315343     0.739953885044     0.529452462287    12.000000000000
         C           -3.676878963248     0.726711670664     0.527790134703    12.000000000000
         C           -2.445660748797     1.429655661253     0.517480424502    12.000000000000
         C           -1.223604844033     0.715339029625     0.528909689034    12.000000000000
         C            0.007633706582     1.417397677228     0.527375342751    12.000000000000
         C            1.231215645015     0.702131218578     0.508548757095    12.000000000000
         C            2.460816937799     1.403306564116     0.528053265986    12.000000000000
         C            3.684426091464     0.687212956203     0.527224479709    12.000000000000
         C            4.918704738807     1.391749089180     0.514822658073    12.000000000000
         C            7.369797915229     2.779496731175     0.521030686753    12.000000000000
         C            7.380158503390     1.391232035846     0.522577369599    12.000000000000
         C            6.139795376391     0.674133151191     0.528905711411    12.000000000000
         H           -8.279194962078     3.407132569115     0.515815592246     1.007825032230
         H            8.315109308748     3.318132624614     0.516820110954     1.007825032230
         C           -8.591760100313     0.724847081035     0.522219110113    12.000000000000
         C           -8.599028766435    -0.632625278238     0.524342234696    12.000000000000
         C           -6.139817301850    -0.674122109163     0.517352893361    12.000000000000
         C           -7.380188274869    -1.391251661591     0.524768954902    12.000000000000
         C           -4.918688642988    -1.391740490039     0.529693391510    12.000000000000
         C           -3.684442458416    -0.687222787745     0.518661151446    12.000000000000
         C           -2.460821202979    -1.403330650834     0.529204237635    12.000000000000
         C           -1.231166175052    -0.702159336890     0.517083858843    12.000000000000
         C           -0.007573788119    -1.417404321420     0.524540383147    12.000000000000
         C            1.223643553157    -0.715260849273     0.534546005096    12.000000000000
         C            2.445666486600    -1.429628761016     0.522795992336    12.000000000000
         C            3.676862540115    -0.726692903565     0.518655407941    12.000000000000
         C            6.132244683688    -0.739964311859     0.517127433728    12.000000000000
         C            4.903514982772    -1.444442992550     0.530968508269    12.000000000000
         C            8.599010685959     0.632618394658     0.522439485743    12.000000000000
         C            8.591741325369    -0.724836339203     0.524175866004    12.000000000000
         C            7.364858601658    -1.470318137615     0.523945689312    12.000000000000
         H           -9.528310134550     1.276861977183     0.520749183149     1.007825032230
         H            9.541406811874     1.174587016435     0.521387453482     1.007825032230
         C           -7.369842072500    -2.779530617943     0.526577163324    12.000000000000
         C           -4.924603271782    -2.808422729350     0.518845530888    12.000000000000
         C           -6.166626658399    -3.516637664835     0.525147371047    12.000000000000
         C           -3.702514522437    -3.524667021130     0.529169600074    12.000000000000
         C           -2.467651147846    -2.821311434813     0.517124961717    12.000000000000
         C           -0.015137636839    -2.833127117409     0.517406550226    12.000000000000
         C           -1.247126003958    -3.534717647572     0.528970503634    12.000000000000
         C            1.209240906912    -3.547900150653     0.531509533425    12.000000000000
         C            2.437331859423    -2.847627210185     0.517369775115    12.000000000000
         C            4.894298181039    -2.861108440295     0.518190515186    12.000000000000
         C            3.664611092309    -3.564205317541     0.531069935127    12.000000000000
         C            6.128634852014    -3.582569529727     0.524415777084    12.000000000000
         C            7.339668501964    -2.858398779380     0.525931003166    12.000000000000
         H           -9.541453273991    -1.174548938674     0.525711650869     1.007825032230
         H            9.528257705340    -1.276904545914     0.525425673765     1.007825032230
         H           -8.315169206580    -3.318135325222     0.530749391855     1.007825032230
         H            8.279150979760    -3.407126261903     0.530270559149     1.007825032230
         C           -6.144998351434    -4.927632744793     0.526473369107    12.000000000000
         C           -3.706787510729    -4.941247186127     0.516652401019    12.000000000000
         C           -4.955594220733    -5.643479445504     0.524619535664    12.000000000000
         C           -2.486125488958    -5.654771046419     0.529592072064    12.000000000000
         C           -1.254062498212    -4.956107522011     0.518416466078    12.000000000000
         C            1.201008411136    -4.969265860202     0.519597590336    12.000000000000
         C           -0.030340837145    -5.669505775148     0.527440789999    12.000000000000
         C            3.653745938597    -4.980729247424     0.520355590084    12.000000000000
         C            2.425488533144    -5.681160107537     0.529732520636    12.000000000000
         C            6.091961455079    -4.993243435396     0.526710003757    12.000000000000
         C            4.894972281879    -5.696333892967     0.525473807927    12.000000000000
         H           -7.089896550772    -5.466985314248     0.530876130788     1.007825032230
         H            7.031051046468    -5.542644008342     0.530289783521     1.007825032230
         C           -4.923549484930    -7.078806571687     0.524064766759    12.000000000000
         C           -2.485346250970    -7.087713549939     0.521554874323    12.000000000000
         C           -3.751690054511    -7.763932629646     0.521749553248    12.000000000000
         C           -0.037953119720    -7.099450346479     0.521770599471    12.000000000000
         C           -1.277960263133    -7.772889856676     0.519785906709    12.000000000000
         C            2.409440157995    -7.114007484012     0.522633800282    12.000000000000
         C            1.194745774421    -7.786170837572     0.520481509400    12.000000000000
         C            4.847616889766    -7.131247582589     0.525140614941    12.000000000000
         C            3.668467443144    -7.803773464953     0.522792180577    12.000000000000
         H           -5.869944513148    -7.613816070051     0.525608803625     1.007825032230
         H            5.788245462656    -7.676317661324     0.526267734423     1.007825032230
         H           -3.753531102181    -8.851057041246     0.519913638819     1.007825032230
         H           -1.284308568626    -8.860860864507     0.515358522851     1.007825032230
         H            1.189217411964    -8.874146092599     0.516388872710     1.007825032230
         H            3.658542452092    -8.890846106063     0.521137639155     1.007825032230

  Running in c1 symmetry.

  Rotational constants: A =      0.00059  B =      0.00059  C =      0.00035 [cm^-1]
  Rotational constants: A =     17.62341  B =     17.62078  C =     10.55117 [MHz]
  Nuclear repulsion = 17128.340412620982534

  Charge       = -1
  Multiplicity = 1
  Electrons    = 642
  Nalpha       = 321
  Nbeta        = 321

  ==> Algorithm <==

  SCF Algorithm Type is DF.
  DIIS enabled.
  MOM disabled.
  Fractional occupation disabled.
  Guess Type is SAD.
  Energy threshold   = 1.00e-08
  Density threshold  = 1.00e-08
  Integral threshold = 1.00e-12

  ==> Primary Basis <==

  Basis Set: JUN-CC-PVDZ
    Blend: JUN-CC-PVDZ
    Number of shells: 880
    Number of basis functions: 1938
    Number of Cartesian functions: 2039
    Spherical Harmonics?: true
    Max angular momentum: 2

   => Loading Basis Set <=

    Name: (JUN-CC-PVDZ AUX)
    Role: JKFIT
    Keyword: DF_BASIS_SCF
    atoms 1                                                   entry B          line    90 file /opt/software/pc2/EB-SW/software/PSI4/1.9-foss-2022a/share/psi4/basis/jun-cc-pvdz-jkfit.gbs 
    atoms 2-5                                                 entry F          line   314 file /opt/software/pc2/EB-SW/software/PSI4/1.9-foss-2022a/share/psi4/basis/jun-cc-pvdz-jkfit.gbs 
    atoms 6-23, 30-42, 45-59, 62-78, 81-93, 98-108, 111-119   entry C          line   146 file /opt/software/pc2/EB-SW/software/PSI4/1.9-foss-2022a/share/psi4/basis/jun-cc-pvdz-jkfit.gbs 
    atoms 24-29, 43-44, 60-61, 79-80, 94-97, 109-110, 120-125 entry H          line    70 file /opt/software/pc2/EB-SW/software/PSI4/1.9-foss-2022a/share/psi4/basis/jun-cc-pvdz-jkfit.gbs 

  ==> Integral Setup <==

  ==> DiskDFJK: Density-Fitted J/K Matrices <==

    J tasked:                  Yes
    K tasked:                  Yes
    wK tasked:                  No
    OpenMP threads:             16
    Integrals threads:          16
    Memory [MiB]:            33617
    Algorithm:                Disk
    Integral Cache:           SAVE
    Schwarz Cutoff:          1E-12
    Fitting Condition:       1E-10

   => Auxiliary Basis Set <=

  Basis Set: (JUN-CC-PVDZ AUX)
    Blend: JUN-CC-PVDZ-JKFIT
    Number of shells: 2943
    Number of basis functions: 8531
    Number of Cartesian functions: 9791
    Spherical Harmonics?: true
    Max angular momentum: 3

  Minimum eigenvalue in the overlap matrix is 9.0502626857E-11.
  Reciprocal condition number of the overlap matrix is 3.9689756257E-12.
    Using canonical orthogonalization.
  Overall, 38 of 1938 possible MOs eliminated.


  ==> Pre-Iterations <==

  SCF Guess: Superposition of Atomic Densities via on-the-fly atomic UHF (no occupation information).

   -------------------------
    Irrep   Nso     Nmo    
   -------------------------
     A       1938    1900 
   -------------------------
    Total    1938    1900
   -------------------------

  ==> Iterations <==

                           Total Energy        Delta E     RMS |[F,P]|

   @DF-RHF iter SAD: -4084.99846899670138   -4.08500e+03   0.00000e+00 
   @DF-RHF iter   1: -4071.52740841734339    1.34711e+01   7.87694e-04 ADIIS/DIIS
   @DF-RHF iter   2: -4072.91779396285256   -1.39039e+00   3.06772e-04 ADIIS/DIIS
   @DF-RHF iter   3: -4073.07870964561062   -1.60916e-01   1.01566e-04 ADIIS/DIIS
   @DF-RHF iter   4: -4073.10014311247687   -2.14335e-02   3.66690e-05 DIIS
   @DF-RHF iter   5: -4073.10330388219791   -3.16077e-03   1.07560e-05 DIIS
   @DF-RHF iter   6: -4073.10372489713291   -4.21015e-04   4.19469e-06 DIIS
   @DF-RHF iter   7: -4073.10390064608600   -1.75749e-04   2.16976e-06 DIIS
   @DF-RHF iter   8: -4073.10395309700880   -5.24509e-05   1.17219e-06 DIIS
   @DF-RHF iter   9: -4073.10396913454906   -1.60375e-05   3.65301e-07 DIIS
   @DF-RHF iter  10: -4073.10397013442889   -9.99880e-07   1.70658e-07 DIIS
   @DF-RHF iter  11: -4073.10397030569084   -1.71262e-07   6.16276e-08 DIIS
   @DF-RHF iter  12: -4073.10397033960680   -3.39160e-08   3.12634e-08 DIIS
   @DF-RHF iter  13: -4073.10397034670314   -7.09633e-09   1.02904e-08 DIIS
   @DF-RHF iter  14: -4073.10397034737343   -6.70298e-10   4.29040e-09 DIIS
  Energy and wave function converged.


  ==> Post-Iterations <==

    Orbital Energies [Eh]
    ---------------------

    Doubly Occupied:                                                      

       1A    -26.064647     2A    -26.064554     3A    -26.064480  
       4A    -26.064464     5A    -11.212504     6A    -11.212503  
       7A    -11.212497     8A    -11.212490     9A    -11.212488  
      10A    -11.212482    11A    -11.212480    12A    -11.212474  
      13A    -11.212467    14A    -11.212462    15A    -11.212460  
      16A    -11.212454    17A    -11.212343    18A    -11.212341  
      19A    -11.212329    20A    -11.212327    21A    -11.212322  
      22A    -11.212317    23A    -11.211374    24A    -11.211348  
      25A    -11.211344    26A    -11.211272    27A    -11.211269  
      28A    -11.211172    29A    -11.211169    30A    -11.211068  
      31A    -11.211065    32A    -11.210981    33A    -11.210979  
      34A    -11.210944    35A    -11.210654    36A    -11.210564  
      37A    -11.210558    38A    -11.210391    39A    -11.210389  
      40A    -11.210208    41A    -11.210131    42A    -11.210099  
      43A    -11.209902    44A    -11.209898    45A    -11.209851  
      46A    -11.209848    47A    -11.209701    48A    -11.209644  
      49A    -11.209642    50A    -11.209540    51A    -11.209537  
      52A    -11.209520    53A    -11.209279    54A    -11.209272  
      55A    -11.209199    56A    -11.208989    57A    -11.208969  
      58A    -11.208968    59A    -11.208870    60A    -11.208869  
      61A    -11.208847    62A    -11.208835    63A    -11.208834  
      64A    -11.208775    65A    -11.208684    66A    -11.208682  
      67A    -11.208674    68A    -11.208643    69A    -11.208520  
      70A    -11.208520    71A    -11.208502    72A    -11.208501  
      73A    -11.208454    74A    -11.208116    75A    -11.208102  
      76A    -11.207716    77A    -11.207420    78A    -11.207417  
      79A    -11.207413    80A    -11.207411    81A    -11.207407  
      82A    -11.207405    83A    -11.205959    84A    -11.205956  
      85A    -11.205952    86A    -11.205949    87A    -11.205946  
      88A    -11.205945    89A    -11.204828    90A    -11.204826  
      91A    -11.204821    92A    -11.204770    93A    -11.204767  
      94A    -11.204762    95A    -11.204737    96A    -11.204736  
      97A    -11.204730    98A    -11.204680    99A    -11.204677  
     100A    -11.204672   101A     -7.536831   102A     -1.408486  
     103A     -1.348792   104A     -1.348695   105A     -1.348606  
     106A     -1.201751   107A     -1.187871   108A     -1.187869  
     109A     -1.170008   110A     -1.170003   111A     -1.164101  
     112A     -1.151203   113A     -1.145411   114A     -1.137082  
     115A     -1.137079   116A     -1.124096   117A     -1.124093  
     118A     -1.104818   119A     -1.104816   120A     -1.101836  
     121A     -1.095250   122A     -1.095247   123A     -1.078352  
     124A     -1.063978   125A     -1.063745   126A     -1.062314  
     127A     -1.061760   128A     -1.061746   129A     -1.038335  
     130A     -1.038320   131A     -1.027639   132A     -1.027638  
     133A     -1.017162   134A     -1.017132   135A     -1.014262  
     136A     -0.996916   137A     -0.996908   138A     -0.990618  
     139A     -0.989409   140A     -0.989408   141A     -0.974530  
     142A     -0.970018   143A     -0.969968   144A     -0.957614  
     145A     -0.956420   146A     -0.953844   147A     -0.950147  
     148A     -0.950100   149A     -0.942022   150A     -0.920787  
     151A     -0.920740   152A     -0.906326   153A     -0.906271  
     154A     -0.856623   155A     -0.856582   156A     -0.854623  
     157A     -0.854581   158A     -0.853017   159A     -0.841271  
     160A     -0.841212   161A     -0.839638   162A     -0.839580  
     163A     -0.839065   164A     -0.822940   165A     -0.820643  
     166A     -0.802160   167A     -0.797415   168A     -0.797393  
     169A     -0.794916   170A     -0.792746   171A     -0.784842  
     172A     -0.784830   173A     -0.779167   174A     -0.779164  
     175A     -0.735566   176A     -0.735551   177A     -0.733131  
     178A     -0.733109   179A     -0.732391   180A     -0.732372  
     181A     -0.731613   182A     -0.717077   183A     -0.710064  
     184A     -0.700345   185A     -0.684506   186A     -0.677235  
     187A     -0.677221   188A     -0.675192   189A     -0.674672  
     190A     -0.674652   191A     -0.667940   192A     -0.663494  
     193A     -0.663489   194A     -0.650257   195A     -0.650245  
     196A     -0.636610   197A     -0.636607   198A     -0.635810  
     199A     -0.632536   200A     -0.632525   201A     -0.629124  
     202A     -0.604463   203A     -0.601459   204A     -0.601429  
     205A     -0.600295   206A     -0.599776   207A     -0.599561  
     208A     -0.599546   209A     -0.590877   210A     -0.590850  
     211A     -0.590598   212A     -0.589771   213A     -0.586128  
     214A     -0.586100   215A     -0.579420   216A     -0.566250  
     217A     -0.566221   218A     -0.564710   219A     -0.559379  
     220A     -0.559373   221A     -0.549150   222A     -0.548430  
     223A     -0.548420   224A     -0.548152   225A     -0.547596  
     226A     -0.547549   227A     -0.545826   228A     -0.545814  
     229A     -0.545340   230A     -0.543310   231A     -0.542111  
     232A     -0.542108   233A     -0.536764   234A     -0.529274  
     235A     -0.529264   236A     -0.525981   237A     -0.525943  
     238A     -0.525893   239A     -0.525061   240A     -0.525058  
     241A     -0.524002   242A     -0.518288   243A     -0.518273  
     244A     -0.517633   245A     -0.516932   246A     -0.516909  
     247A     -0.512406   248A     -0.509628   249A     -0.508772  
     250A     -0.508753   251A     -0.504480   252A     -0.500725  
     253A     -0.499280   254A     -0.494015   255A     -0.484234  
     256A     -0.484218   257A     -0.483454   258A     -0.483442  
     259A     -0.478716   260A     -0.478698   261A     -0.477318  
     262A     -0.467492   263A     -0.467460   264A     -0.465754  
     265A     -0.465747   266A     -0.460571   267A     -0.460553  
     268A     -0.448304   269A     -0.446564   270A     -0.446538  
     271A     -0.444829   272A     -0.444786   273A     -0.442698  
     274A     -0.442690   275A     -0.438082   276A     -0.432379  
     277A     -0.428082   278A     -0.428079   279A     -0.424555  
     280A     -0.418996   281A     -0.416593   282A     -0.416587  
     283A     -0.408474   284A     -0.405995   285A     -0.405970  
     286A     -0.405897   287A     -0.395695   288A     -0.395633  
     289A     -0.390055   290A     -0.389650   291A     -0.389635  
     292A     -0.385602   293A     -0.384659   294A     -0.382519  
     295A     -0.382486   296A     -0.382425   297A     -0.357136  
     298A     -0.357111   299A     -0.336672   300A     -0.336669  
     301A     -0.335524   302A     -0.335476   303A     -0.332622  
     304A     -0.304260   305A     -0.304244   306A     -0.300547  
     307A     -0.286013   308A     -0.283644   309A     -0.283639  
     310A     -0.283141   311A     -0.283062   312A     -0.255987  
     313A     -0.251074   314A     -0.250933   315A     -0.250866  
     316A     -0.236345   317A     -0.208023   318A     -0.202587  
     319A     -0.202530   320A     -0.154326   321A     -0.154236  

    Virtual:                                                              

     322A      0.038340   323A      0.038420   324A      0.085946  
     325A      0.086009   326A      0.086228   327A      0.086457  
     328A      0.086473   329A      0.087786   330A      0.088991  
     331A      0.089012   332A      0.094366   333A      0.096992  
     334A      0.102444   335A      0.102459   336A      0.113721  
     337A      0.113725   338A      0.116296   339A      0.116865  
     340A      0.120846   341A      0.120907   342A      0.122892  
     343A      0.124253   344A      0.124670   345A      0.124691  
     346A      0.126670   347A      0.126997   348A      0.127091  
     349A      0.129061   350A      0.132964   351A      0.132999  
     352A      0.133046   353A      0.137458   354A      0.137474  
     355A      0.138834   356A      0.141132   357A      0.141184  
     358A      0.144867   359A      0.149069   360A      0.149133  
     361A      0.150525   362A      0.151534   363A      0.153647  
     364A      0.155556   365A      0.155635   366A      0.155777  
     367A      0.155907   368A      0.158826   369A      0.160625  
     370A      0.160908   371A      0.160972   372A      0.161439  
     373A      0.161552   374A      0.166653   375A      0.168529  
     376A      0.168600   377A      0.168919   378A      0.171745  
     379A      0.171959   380A      0.175839   381A      0.175891  
     382A      0.181290   383A      0.182740   384A      0.182850  
     385A      0.187401   386A      0.187740   387A      0.188114  
     388A      0.188487   389A      0.188519   390A      0.194958  
     391A      0.195060   392A      0.198360   393A      0.199801  
     394A      0.200553   395A      0.200736   396A      0.201486  
     397A      0.201534   398A      0.203356   399A      0.203683  
     400A      0.204319   401A      0.206734   402A      0.207055  
     403A      0.207437   404A      0.207532   405A      0.209254  
     406A      0.211912   407A      0.212300   408A      0.213407  
     409A      0.213481   410A      0.214565   411A      0.216412  
     412A      0.216445   413A      0.221013   414A      0.221971  
     415A      0.225117   416A      0.225128   417A      0.230773  
     418A      0.230876   419A      0.233636   420A      0.233901  
     421A      0.234342   422A      0.235249   423A      0.236634  
     424A      0.237064   425A      0.239915   426A      0.240260  
     427A      0.241053   428A      0.241219   429A      0.242391  
     430A      0.246976   431A      0.247021   432A      0.247897  
     433A      0.248143   434A      0.248522   435A      0.249056  
     436A      0.249212   437A      0.249948   438A      0.252613  
     439A      0.257485   440A      0.257540   441A      0.258196  
     442A      0.258292   443A      0.258964   444A      0.259223  
     445A      0.260412   446A      0.262508   447A      0.263019  
     448A      0.263039   449A      0.264077   450A      0.264103  
     451A      0.266154   452A      0.266191   453A      0.266612  
     454A      0.266617   455A      0.269218   456A      0.269323  
     457A      0.270889   458A      0.273228   459A      0.274050  
     460A      0.274943   461A      0.277795   462A      0.279955  
     463A      0.281271   464A      0.281332   465A      0.281984  
     466A      0.283440   467A      0.284700   468A      0.284790  
     469A      0.286719   470A      0.286786   471A      0.289088  
     472A      0.291008   473A      0.294509   474A      0.295592  
     475A      0.296875   476A      0.298237   477A      0.299724  
     478A      0.300423   479A      0.301066   480A      0.302463  
     481A      0.303726   482A      0.305276   483A      0.306126  
     484A      0.306213   485A      0.306331   486A      0.307152  
     487A      0.309123   488A      0.309143   489A      0.313354  
     490A      0.313471   491A      0.313929   492A      0.314648  
     493A      0.314789   494A      0.318535   495A      0.318588  
     496A      0.324303   497A      0.325853   498A      0.325899  
     499A      0.327444   500A      0.327681   501A      0.328305  
     502A      0.329721   503A      0.331313   504A      0.331402  
     505A      0.332231   506A      0.332612   507A      0.334928  
     508A      0.334992   509A      0.336166   510A      0.339677  
     511A      0.341246   512A      0.342978   513A      0.343115  
     514A      0.346206   515A      0.346690   516A      0.346765  
     517A      0.347362   518A      0.351002   519A      0.351684  
     520A      0.351778   521A      0.353174   522A      0.353224  
     523A      0.354742   524A      0.355355   525A      0.355574  
     526A      0.356025   527A      0.356292   528A      0.358611  
     529A      0.358677   530A      0.360093   531A      0.360137  
     532A      0.362483   533A      0.362530   534A      0.363641  
     535A      0.368024   536A      0.368231   537A      0.368341  
     538A      0.372574   539A      0.372793   540A      0.373972  
     541A      0.374128   542A      0.374164   543A      0.376034  
     544A      0.376128   545A      0.376414   546A      0.377191  
     547A      0.377423   548A      0.377774   549A      0.378163  
     550A      0.378368   551A      0.381375   552A      0.384052  
     553A      0.386063   554A      0.386185   555A      0.386351  
     556A      0.389121   557A      0.389137   558A      0.390298  
     559A      0.392025   560A      0.392361   561A      0.392453  
     562A      0.395315   563A      0.396922   564A      0.397094  
     565A      0.399615   566A      0.400226   567A      0.400989  
     568A      0.402325   569A      0.403140   570A      0.403289  
     571A      0.403904   572A      0.405611   573A      0.406574  
     574A      0.408241   575A      0.409076   576A      0.410412  
     577A      0.411175   578A      0.411372   579A      0.414020  
     580A      0.414623   581A      0.414655   582A      0.417932  
     583A      0.418409   584A      0.418448   585A      0.425403  
     586A      0.425464   587A      0.425733   588A      0.427431  
     589A      0.427608   590A      0.429794   591A      0.429815  
     592A      0.433397   593A      0.434357   594A      0.434439  
     595A      0.434822   596A      0.434956   597A      0.435197  
     598A      0.438768   599A      0.438947   600A      0.440501  
     601A      0.440657   602A      0.441439   603A      0.441986  
     604A      0.443921   605A      0.443964   606A      0.445060  
     607A      0.446500   608A      0.446528   609A      0.446554  
     610A      0.446635   611A      0.448079   612A      0.449411  
     613A      0.450308   614A      0.450509   615A      0.451852  
     616A      0.454559   617A      0.454632   618A      0.454701  
     619A      0.454990   620A      0.455158   621A      0.455781  
     622A      0.459085   623A      0.459111   624A      0.459872  
     625A      0.460106   626A      0.460170   627A      0.463110  
     628A      0.463246   629A      0.463688   630A      0.463827  
     631A      0.464922   632A      0.465027   633A      0.466000  
     634A      0.466321   635A      0.467434   636A      0.467566  
     637A      0.468708   638A      0.470095   639A      0.470800  
     640A      0.470965   641A      0.473345   642A      0.473553  
     643A      0.474712   644A      0.476532   645A      0.477247  
     646A      0.477364   647A      0.478281   648A      0.478728  
     649A      0.479441   650A      0.480033   651A      0.481868  
     652A      0.482850   653A      0.482907   654A      0.483865  
     655A      0.484203   656A      0.486409   657A      0.487464  
     658A      0.488320   659A      0.488738   660A      0.489631  
     661A      0.490215   662A      0.490383   663A      0.493077  
     664A      0.493567   665A      0.493717   666A      0.496148  
     667A      0.497335   668A      0.499947   669A      0.502227  
     670A      0.502641   671A      0.503324   672A      0.503530  
     673A      0.504106   674A      0.504269   675A      0.504775  
     676A      0.506958   677A      0.508319   678A      0.508942  
     679A      0.509730   680A      0.511202   681A      0.511527  
     682A      0.511623   683A      0.515799   684A      0.515920  
     685A      0.515969   686A      0.517569   687A      0.522139  
     688A      0.522653   689A      0.522832   690A      0.524577  
     691A      0.524598   692A      0.525820   693A      0.525876  
     694A      0.527455   695A      0.527747   696A      0.529097  
     697A      0.529908   698A      0.531461   699A      0.532055  
     700A      0.532170   701A      0.533073   702A      0.534207  
     703A      0.535347   704A      0.535928   705A      0.536056  
     706A      0.537362   707A      0.538248   708A      0.538297  
     709A      0.540147   710A      0.542878   711A      0.543219  
     712A      0.544132   713A      0.544670   714A      0.545420  
     715A      0.545670   716A      0.545947   717A      0.548269  
     718A      0.549620   719A      0.550141   720A      0.550884  
     721A      0.551838   722A      0.552563   723A      0.555099  
     724A      0.555372   725A      0.558534   726A      0.558773  
     727A      0.559333   728A      0.560480   729A      0.560761  
     730A      0.566538   731A      0.566967   732A      0.567149  
     733A      0.567591   734A      0.567705   735A      0.568692  
     736A      0.570966   737A      0.574345   738A      0.574411  
     739A      0.575060   740A      0.575543   741A      0.576865  
     742A      0.579295   743A      0.582982   744A      0.584720  
     745A      0.586521   746A      0.586555   747A      0.586908  
     748A      0.587094   749A      0.593957   750A      0.594613  
     751A      0.599597   752A      0.599962   753A      0.603458  
     754A      0.608751   755A      0.608837   756A      0.610516  
     757A      0.611496   758A      0.613079   759A      0.613812  
     760A      0.614312   761A      0.616984   762A      0.617059  
     763A      0.621982   764A      0.623808   765A      0.624735  
     766A      0.627243   767A      0.627567   768A      0.629426  
     769A      0.632282   770A      0.633437   771A      0.633989  
     772A      0.635405   773A      0.635748   774A      0.636512  
     775A      0.637312   776A      0.637902   777A      0.638256  
     778A      0.641461   779A      0.641812   780A      0.646728  
     781A      0.647957   782A      0.648369   783A      0.651218  
     784A      0.654322   785A      0.655057   786A      0.655066  
     787A      0.656252   788A      0.656710   789A      0.657248  
     790A      0.665549   791A      0.667977   792A      0.668169  
     793A      0.670244   794A      0.670723   795A      0.671086  
     796A      0.674511   797A      0.676890   798A      0.678305  
     799A      0.682244   800A      0.684361   801A      0.685118  
     802A      0.687079   803A      0.692599   804A      0.693846  
     805A      0.696851   806A      0.700703   807A      0.700908  
     808A      0.702053   809A      0.708065   810A      0.708364  
     811A      0.710643   812A      0.710816   813A      0.710900  
     814A      0.714164   815A      0.714430   816A      0.715714  
     817A      0.722383   818A      0.722920   819A      0.726490  
     820A      0.729259   821A      0.734793   822A      0.735778  
     823A      0.737698   824A      0.738280   825A      0.740275  
     826A      0.740363   827A      0.741720   828A      0.742969  
     829A      0.743727   830A      0.743933   831A      0.744439  
     832A      0.749337   833A      0.754669   834A      0.754853  
     835A      0.759247   836A      0.761971   837A      0.762144  
     838A      0.762239   839A      0.764001   840A      0.772253  
     841A      0.776833   842A      0.779560   843A      0.782268  
     844A      0.783235   845A      0.789114   846A      0.791721  
     847A      0.791883   848A      0.794301   849A      0.797997  
     850A      0.798161   851A      0.802034   852A      0.802324  
     853A      0.804766   854A      0.822493   855A      0.827078  
     856A      0.833252   857A      0.834265   858A      0.838253  
     859A      0.838383   860A      0.842356   861A      0.843981  
     862A      0.845715   863A      0.848617   864A      0.850802  
     865A      0.852214   866A      0.854103   867A      0.855233  
     868A      0.856730   869A      0.857720   870A      0.863095  
     871A      0.863470   872A      0.864458   873A      0.865653  
     874A      0.866316   875A      0.867238   876A      0.875939  
     877A      0.877066   878A      0.877374   879A      0.880454  
     880A      0.884640   881A      0.885531   882A      0.886153  
     883A      0.886770   884A      0.887823   885A      0.888244  
     886A      0.892531   887A      0.893407   888A      0.894329  
     889A      0.897812   890A      0.901154   891A      0.902159  
     892A      0.905079   893A      0.905576   894A      0.909418  
     895A      0.909813   896A      0.910023   897A      0.911328  
     898A      0.912815   899A      0.915260   900A      0.917141  
     901A      0.919196   902A      0.920487   903A      0.920710  
     904A      0.921030   905A      0.923119   906A      0.924149  
     907A      0.924687   908A      0.926388   909A      0.926992  
     910A      0.929764   911A      0.931987   912A      0.934125  
     913A      0.936380   914A      0.936895   915A      0.937163  
     916A      0.937738   917A      0.939585   918A      0.942148  
     919A      0.942711   920A      0.943465   921A      0.945459  
     922A      0.946546   923A      0.949438   924A      0.950222  
     925A      0.953415   926A      0.953943   927A      0.954941  
     928A      0.955820   929A      0.962668   930A      0.963189  
     931A      0.968553   932A      0.968702   933A      0.969320  
     934A      0.969520   935A      0.970132   936A      0.970468  
     937A      0.970842   938A      0.970933   939A      0.976586  
     940A      0.977531   941A      0.980194   942A      0.981984  
     943A      0.982143   944A      0.982609   945A      0.984625  
     946A      0.987010   947A      0.988931   948A      0.989481  
     949A      0.993942   950A      0.997710   951A      0.997885  
     952A      0.998724   953A      0.999046   954A      0.999907  
     955A      1.000519   956A      1.000630   957A      1.002575  
     958A      1.005251   959A      1.005456   960A      1.005636  
     961A      1.005764   962A      1.008817   963A      1.013711  
     964A      1.014679   965A      1.016806   966A      1.017300  
     967A      1.021380   968A      1.024568   969A      1.031459  
     970A      1.031995   971A      1.032904   972A      1.033647  
     973A      1.041284   974A      1.041820   975A      1.043031  
     976A      1.043096   977A      1.049155   978A      1.051907  
     979A      1.052061   980A      1.053929   981A      1.054184  
     982A      1.054828   983A      1.055356   984A      1.055674  
     985A      1.063357   986A      1.063365   987A      1.065271  
     988A      1.068053   989A      1.068161   990A      1.070717  
     991A      1.070909   992A      1.071011   993A      1.078976  
     994A      1.080342   995A      1.080691   996A      1.081026  
     997A      1.085740   998A      1.086006   999A      1.091789  
    1000A      1.094739  1001A      1.094900  1002A      1.096116  
    1003A      1.096783  1004A      1.097427  1005A      1.098415  
    1006A      1.099076  1007A      1.099223  1008A      1.100483  
    1009A      1.102772  1010A      1.103099  1011A      1.106960  
    1012A      1.106990  1013A      1.110116  1014A      1.110491  
    1015A      1.110768  1016A      1.112917  1017A      1.114535  
    1018A      1.117776  1019A      1.118333  1020A      1.118676  
    1021A      1.118810  1022A      1.119976  1023A      1.120354  
    1024A      1.120851  1025A      1.122145  1026A      1.122874  
    1027A      1.123126  1028A      1.123368  1029A      1.123870  
    1030A      1.124296  1031A      1.124651  1032A      1.125406  
    1033A      1.127199  1034A      1.127267  1035A      1.128277  
    1036A      1.129125  1037A      1.130020  1038A      1.130673  
    1039A      1.131255  1040A      1.131656  1041A      1.132023  
    1042A      1.132288  1043A      1.132868  1044A      1.133428  
    1045A      1.133871  1046A      1.134979  1047A      1.135306  
    1048A      1.135376  1049A      1.136093  1050A      1.138148  
    1051A      1.138333  1052A      1.142933  1053A      1.143373  
    1054A      1.146805  1055A      1.147195  1056A      1.148510  
    1057A      1.149062  1058A      1.151321  1059A      1.151414  
    1060A      1.152392  1061A      1.152522  1062A      1.153767  
    1063A      1.157216  1064A      1.160823  1065A      1.161787  
    1066A      1.165160  1067A      1.172079  1068A      1.172849  
    1069A      1.173801  1070A      1.174393  1071A      1.180045  
    1072A      1.180732  1073A      1.181078  1074A      1.182725  
    1075A      1.183295  1076A      1.184126  1077A      1.186560  
    1078A      1.188799  1079A      1.189254  1080A      1.191824  
    1081A      1.192345  1082A      1.193900  1083A      1.196181  
    1084A      1.199111  1085A      1.200141  1086A      1.201662  
    1087A      1.201800  1088A      1.203183  1089A      1.204242  
    1090A      1.207478  1091A      1.207584  1092A      1.212370  
    1093A      1.215596  1094A      1.216549  1095A      1.219358  
    1096A      1.221201  1097A      1.221944  1098A      1.227106  
    1099A      1.227350  1100A      1.231637  1101A      1.235434  
    1102A      1.237286  1103A      1.238304  1104A      1.238579  
    1105A      1.239140  1106A      1.243699  1107A      1.244776  
    1108A      1.253170  1109A      1.253758  1110A      1.253915  
    1111A      1.254334  1112A      1.254385  1113A      1.260464  
    1114A      1.260938  1115A      1.262847  1116A      1.263293  
    1117A      1.264198  1118A      1.266389  1119A      1.268264  
    1120A      1.268746  1121A      1.269110  1122A      1.272643  
    1123A      1.275373  1124A      1.283631  1125A      1.284222  
    1126A      1.296416  1127A      1.300542  1128A      1.300972  
    1129A      1.301436  1130A      1.302455  1131A      1.302733  
    1132A      1.308896  1133A      1.311353  1134A      1.311592  
    1135A      1.314607  1136A      1.317211  1137A      1.317969  
    1138A      1.319097  1139A      1.319292  1140A      1.326544  
    1141A      1.332074  1142A      1.332193  1143A      1.338058  
    1144A      1.339427  1145A      1.340792  1146A      1.343516  
    1147A      1.343579  1148A      1.344319  1149A      1.345751  
    1150A      1.347210  1151A      1.347567  1152A      1.350567  
    1153A      1.352975  1154A      1.353564  1155A      1.354071  
    1156A      1.359225  1157A      1.361238  1158A      1.361479  
    1159A      1.363846  1160A      1.365113  1161A      1.367343  
    1162A      1.367558  1163A      1.368973  1164A      1.370206  
    1165A      1.371085  1166A      1.375706  1167A      1.375784  
    1168A      1.379211  1169A      1.379280  1170A      1.380423  
    1171A      1.384110  1172A      1.384230  1173A      1.388041  
    1174A      1.390575  1175A      1.390770  1176A      1.393242  
    1177A      1.398282  1178A      1.398378  1179A      1.405596  
    1180A      1.406464  1181A      1.407299  1182A      1.408489  
    1183A      1.409442  1184A      1.410361  1185A      1.412603  
    1186A      1.412796  1187A      1.418783  1188A      1.419352  
    1189A      1.421192  1190A      1.424372  1191A      1.424807  
    1192A      1.426257  1193A      1.437173  1194A      1.437454  
    1195A      1.438577  1196A      1.442291  1197A      1.442632  
    1198A      1.444160  1199A      1.444476  1200A      1.454068  
    1201A      1.456701  1202A      1.457114  1203A      1.457451  
    1204A      1.458453  1205A      1.458629  1206A      1.459535  
    1207A      1.461229  1208A      1.464120  1209A      1.464897  
    1210A      1.469476  1211A      1.470228  1212A      1.473418  
    1213A      1.473910  1214A      1.476259  1215A      1.477829  
    1216A      1.477898  1217A      1.477992  1218A      1.481876  
    1219A      1.482749  1220A      1.483657  1221A      1.484689  
    1222A      1.485021  1223A      1.489938  1224A      1.490111  
    1225A      1.492941  1226A      1.500435  1227A      1.500680  
    1228A      1.501838  1229A      1.502021  1230A      1.502141  
    1231A      1.502542  1232A      1.502892  1233A      1.515619  
    1234A      1.516627  1235A      1.518873  1236A      1.519776  
    1237A      1.520324  1238A      1.521758  1239A      1.522702  
    1240A      1.529482  1241A      1.533751  1242A      1.534044  
    1243A      1.534840  1244A      1.542211  1245A      1.548375  
    1246A      1.548458  1247A      1.552824  1248A      1.552986  
    1249A      1.555781  1250A      1.556034  1251A      1.567081  
    1252A      1.567770  1253A      1.588096  1254A      1.588454  
    1255A      1.590567  1256A      1.593791  1257A      1.604517  
    1258A      1.604572  1259A      1.635375  1260A      1.636204  
    1261A      1.636423  1262A      1.641565  1263A      1.644920  
    1264A      1.648579  1265A      1.652098  1266A      1.654611  
    1267A      1.657430  1268A      1.657929  1269A      1.658258  
    1270A      1.658850  1271A      1.659347  1272A      1.661412  
    1273A      1.662460  1274A      1.664684  1275A      1.666562  
    1276A      1.667228  1277A      1.667253  1278A      1.669543  
    1279A      1.670323  1280A      1.670625  1281A      1.671909  
    1282A      1.673313  1283A      1.673886  1284A      1.677049  
    1285A      1.677234  1286A      1.677502  1287A      1.682287  
    1288A      1.682650  1289A      1.685812  1290A      1.685983  
    1291A      1.686362  1292A      1.687273  1293A      1.688274  
    1294A      1.689267  1295A      1.690054  1296A      1.691343  
    1297A      1.691500  1298A      1.691650  1299A      1.694032  
    1300A      1.696920  1301A      1.701047  1302A      1.701298  
    1303A      1.705311  1304A      1.705738  1305A      1.705947  
    1306A      1.706017  1307A      1.715093  1308A      1.715807  
    1309A      1.719638  1310A      1.719740  1311A      1.719869  
    1312A      1.719940  1313A      1.720317  1314A      1.723045  
    1315A      1.725642  1316A      1.726579  1317A      1.728978  
    1318A      1.729492  1319A      1.737452  1320A      1.738907  
    1321A      1.743365  1322A      1.744957  1323A      1.746888  
    1324A      1.747052  1325A      1.747925  1326A      1.749747  
    1327A      1.758270  1328A      1.758365  1329A      1.760423  
    1330A      1.765041  1331A      1.765098  1332A      1.765441  
    1333A      1.768738  1334A      1.770561  1335A      1.773842  
    1336A      1.774451  1337A      1.774561  1338A      1.774673  
    1339A      1.782243  1340A      1.787524  1341A      1.797033  
    1342A      1.798072  1343A      1.798393  1344A      1.798592  
    1345A      1.799431  1346A      1.814114  1347A      1.815770  
    1348A      1.817627  1349A      1.830116  1350A      1.833075  
    1351A      1.834813  1352A      1.835497  1353A      1.854734  
    1354A      1.854935  1355A      1.859370  1356A      1.866635  
    1357A      1.872915  1358A      1.874174  1359A      1.876170  
    1360A      1.876374  1361A      1.876522  1362A      1.878190  
    1363A      1.882016  1364A      1.882401  1365A      1.882906  
    1366A      1.887126  1367A      1.887658  1368A      1.888115  
    1369A      1.889004  1370A      1.896449  1371A      1.897619  
    1372A      1.904229  1373A      1.904307  1374A      1.910174  
    1375A      1.910593  1376A      1.913834  1377A      1.914024  
    1378A      1.915541  1379A      1.915813  1380A      1.919712  
    1381A      1.920485  1382A      1.921161  1383A      1.921261  
    1384A      1.923217  1385A      1.929491  1386A      1.929944  
    1387A      1.930866  1388A      1.932927  1389A      1.933650  
    1390A      1.934210  1391A      1.935136  1392A      1.936568  
    1393A      1.938389  1394A      1.939151  1395A      1.940094  
    1396A      1.941753  1397A      1.952865  1398A      1.953096  
    1399A      1.953699  1400A      1.954113  1401A      1.960209  
    1402A      1.961724  1403A      1.966501  1404A      1.967561  
    1405A      1.971630  1406A      1.973441  1407A      1.973650  
    1408A      1.975913  1409A      1.976650  1410A      1.976878  
    1411A      1.984294  1412A      1.985412  1413A      1.985621  
    1414A      1.986556  1415A      1.987970  1416A      1.988638  
    1417A      1.990983  1418A      1.993223  1419A      1.993579  
    1420A      1.994994  1421A      1.995688  1422A      1.999987  
    1423A      2.001478  1424A      2.001709  1425A      2.003810  
    1426A      2.004278  1427A      2.006379  1428A      2.009082  
    1429A      2.009421  1430A      2.009828  1431A      2.010350  
    1432A      2.012080  1433A      2.016133  1434A      2.019037  
    1435A      2.019834  1436A      2.020503  1437A      2.021441  
    1438A      2.024464  1439A      2.028160  1440A      2.032325  
    1441A      2.032885  1442A      2.035973  1443A      2.037523  
    1444A      2.037950  1445A      2.038487  1446A      2.039970  
    1447A      2.040395  1448A      2.044428  1449A      2.044799  
    1450A      2.045467  1451A      2.054205  1452A      2.056588  
    1453A      2.061202  1454A      2.062388  1455A      2.062826  
    1456A      2.065829  1457A      2.065962  1458A      2.066961  
    1459A      2.067797  1460A      2.069955  1461A      2.070514  
    1462A      2.071808  1463A      2.072614  1464A      2.072851  
    1465A      2.078787  1466A      2.080867  1467A      2.082822  
    1468A      2.083345  1469A      2.085376  1470A      2.087182  
    1471A      2.088802  1472A      2.089790  1473A      2.097975  
    1474A      2.099350  1475A      2.102175  1476A      2.103904  
    1477A      2.106432  1478A      2.107239  1479A      2.109040  
    1480A      2.109581  1481A      2.110697  1482A      2.110824  
    1483A      2.117061  1484A      2.118316  1485A      2.119467  
    1486A      2.119677  1487A      2.122939  1488A      2.126017  
    1489A      2.127307  1490A      2.128491  1491A      2.129437  
    1492A      2.130636  1493A      2.131857  1494A      2.132073  
    1495A      2.133182  1496A      2.133418  1497A      2.134799  
    1498A      2.137359  1499A      2.138433  1500A      2.138545  
    1501A      2.138831  1502A      2.139160  1503A      2.139670  
    1504A      2.140042  1505A      2.142983  1506A      2.143330  
    1507A      2.143750  1508A      2.147826  1509A      2.148016  
    1510A      2.148456  1511A      2.149229  1512A      2.150023  
    1513A      2.150625  1514A      2.151755  1515A      2.156396  
    1516A      2.158156  1517A      2.161316  1518A      2.161730  
    1519A      2.162350  1520A      2.162756  1521A      2.163072  
    1522A      2.164924  1523A      2.166345  1524A      2.167975  
    1525A      2.170032  1526A      2.175850  1527A      2.176324  
    1528A      2.176783  1529A      2.177127  1530A      2.177800  
    1531A      2.178163  1532A      2.180353  1533A      2.181134  
    1534A      2.185367  1535A      2.185558  1536A      2.188763  
    1537A      2.189820  1538A      2.192353  1539A      2.192745  
    1540A      2.193281  1541A      2.193955  1542A      2.194828  
    1543A      2.204435  1544A      2.205409  1545A      2.208011  
    1546A      2.208315  1547A      2.209390  1548A      2.209657  
    1549A      2.210112  1550A      2.210155  1551A      2.211229  
    1552A      2.211774  1553A      2.220934  1554A      2.221267  
    1555A      2.229789  1556A      2.230283  1557A      2.230967  
    1558A      2.231910  1559A      2.238232  1560A      2.239076  
    1561A      2.241322  1562A      2.242964  1563A      2.243821  
    1564A      2.246179  1565A      2.247689  1566A      2.248773  
    1567A      2.250261  1568A      2.251040  1569A      2.251974  
    1570A      2.252384  1571A      2.253226  1572A      2.254044  
    1573A      2.254987  1574A      2.259067  1575A      2.263568  
    1576A      2.263937  1577A      2.270709  1578A      2.270795  
    1579A      2.271752  1580A      2.272903  1581A      2.275624  
    1582A      2.275808  1583A      2.278651  1584A      2.279851  
    1585A      2.281403  1586A      2.281923  1587A      2.289698  
    1588A      2.289970  1589A      2.290574  1590A      2.292159  
    1591A      2.296211  1592A      2.296713  1593A      2.299487  
    1594A      2.300325  1595A      2.308290  1596A      2.309533  
    1597A      2.312197  1598A      2.313576  1599A      2.315530  
    1600A      2.317430  1601A      2.325957  1602A      2.332333  
    1603A      2.333907  1604A      2.339277  1605A      2.339820  
    1606A      2.345100  1607A      2.347607  1608A      2.353090  
    1609A      2.353494  1610A      2.358719  1611A      2.366476  
    1612A      2.374542  1613A      2.374927  1614A      2.375348  
    1615A      2.377089  1616A      2.379297  1617A      2.379943  
    1618A      2.381332  1619A      2.383744  1620A      2.384905  
    1621A      2.385424  1622A      2.390041  1623A      2.391709  
    1624A      2.392296  1625A      2.392405  1626A      2.394910  
    1627A      2.395691  1628A      2.395979  1629A      2.400750  
    1630A      2.400996  1631A      2.420029  1632A      2.424189  
    1633A      2.424765  1634A      2.432928  1635A      2.437897  
    1636A      2.441176  1637A      2.442271  1638A      2.443465  
    1639A      2.447842  1640A      2.468048  1641A      2.469369  
    1642A      2.473764  1643A      2.477204  1644A      2.482790  
    1645A      2.491363  1646A      2.493222  1647A      2.502471  
    1648A      2.503481  1649A      2.513909  1650A      2.513984  
    1651A      2.517347  1652A      2.517671  1653A      2.521362  
    1654A      2.521641  1655A      2.539866  1656A      2.540234  
    1657A      2.545338  1658A      2.550721  1659A      2.554843  
    1660A      2.555693  1661A      2.560172  1662A      2.565473  
    1663A      2.589159  1664A      2.589262  1665A      2.589511  
    1666A      2.591351  1667A      2.592182  1668A      2.595284  
    1669A      2.596218  1670A      2.597762  1671A      2.598936  
    1672A      2.600749  1673A      2.607642  1674A      2.607824  
    1675A      2.614283  1676A      2.619936  1677A      2.620778  
    1678A      2.628181  1679A      2.631655  1680A      2.632100  
    1681A      2.634580  1682A      2.635652  1683A      2.636503  
    1684A      2.636668  1685A      2.641246  1686A      2.642852  
    1687A      2.650602  1688A      2.650787  1689A      2.662124  
    1690A      2.662286  1691A      2.662586  1692A      2.663157  
    1693A      2.665770  1694A      2.666843  1695A      2.682542  
    1696A      2.690408  1697A      2.691193  1698A      2.693387  
    1699A      2.695470  1700A      2.696497  1701A      2.698642  
    1702A      2.699531  1703A      2.701395  1704A      2.704698  
    1705A      2.705100  1706A      2.716184  1707A      2.716450  
    1708A      2.717216  1709A      2.718955  1710A      2.719157  
    1711A      2.724519  1712A      2.725955  1713A      2.726132  
    1714A      2.734013  1715A      2.735755  1716A      2.737176  
    1717A      2.740725  1718A      2.741278  1719A      2.741683  
    1720A      2.742239  1721A      2.746116  1722A      2.747272  
    1723A      2.754495  1724A      2.769674  1725A      2.779511  
    1726A      2.779787  1727A      2.780484  1728A      2.780613  
    1729A      2.780708  1730A      2.802290  1731A      2.811513  
    1732A      2.812191  1733A      2.824562  1734A      2.827255  
    1735A      2.830354  1736A      2.830619  1737A      2.850129  
    1738A      2.850717  1739A      2.852739  1740A      2.852967  
    1741A      2.853075  1742A      2.859855  1743A      2.862537  
    1744A      2.865191  1745A      2.865580  1746A      2.866015  
    1747A      2.867893  1748A      2.879273  1749A      2.879518  
    1750A      2.890487  1751A      2.891135  1752A      2.891709  
    1753A      2.891869  1754A      2.895633  1755A      2.911253  
    1756A      2.915412  1757A      2.915975  1758A      2.919479  
    1759A      2.920801  1760A      2.924304  1761A      2.947181  
    1762A      2.947691  1763A      2.947907  1764A      2.948766  
    1765A      2.963039  1766A      2.964402  1767A      2.966216  
    1768A      2.966328  1769A      2.975886  1770A      2.978456  
    1771A      2.983806  1772A      2.983825  1773A      3.012467  
    1774A      3.013613  1775A      3.014148  1776A      3.025276  
    1777A      3.041103  1778A      3.041849  1779A      3.078980  
    1780A      3.079807  1781A      3.084201  1782A      3.087454  
    1783A      3.096627  1784A      3.096980  1785A      3.097579  
    1786A      3.107834  1787A      3.107899  1788A      3.110700  
    1789A      3.122778  1790A      3.156952  1791A      3.161424  
    1792A      3.161770  1793A      3.172082  1794A      3.177139  
    1795A      3.177582  1796A      3.182192  1797A      3.183851  
    1798A      3.190869  1799A      3.191739  1800A      3.197992  
    1801A      3.198349  1802A      3.198721  1803A      3.199256  
    1804A      3.202103  1805A      3.210489  1806A      3.218861  
    1807A      3.221772  1808A      3.223436  1809A      3.223812  
    1810A      3.241824  1811A      3.242417  1812A      3.268415  
    1813A      3.271086  1814A      3.302304  1815A      3.307800  
    1816A      3.310879  1817A      3.311305  1818A      3.312008  
    1819A      3.313952  1820A      3.317582  1821A      3.320630  
    1822A      3.324039  1823A      3.324838  1824A      3.342204  
    1825A      3.343768  1826A      3.345054  1827A      3.351979  
    1828A      3.411911  1829A      3.412842  1830A      3.420757  
    1831A      3.466736  1832A      3.480427  1833A      3.483615  
    1834A      3.490687  1835A      3.497357  1836A      3.500477  
    1837A      3.512646  1838A      3.515400  1839A      3.516808  
    1840A      3.522004  1841A      3.524991  1842A      3.531967  
    1843A      3.536173  1844A      3.544918  1845A      3.560179  
    1846A      3.590388  1847A      3.625108  1848A      3.626838  
    1849A      3.633013  1850A      3.639837  1851A      3.686030  
    1852A      3.689244  1853A      3.714975  1854A      3.717069  
    1855A      3.755737  1856A      3.798421  1857A      3.799001  
    1858A      3.800902  1859A      3.814737  1860A      3.828187  
    1861A      3.830585  1862A      3.891516  1863A      3.893202  
    1864A      3.921367  1865A      3.924563  1866A      3.954795  
    1867A      3.963406  1868A      3.989543  1869A      3.991689  
    1870A      3.998355  1871A      3.999293  1872A      4.009308  
    1873A      4.016605  1874A      4.022367  1875A      4.075923  
    1876A      4.078908  1877A      4.122898  1878A      4.174818  
    1879A      4.175042  1880A      4.175104  1881A      4.202678  
    1882A      4.202688  1883A      4.203302  1884A      4.203453  
    1885A      4.203524  1886A      4.235387  1887A      4.235418  
    1888A      4.238680  1889A      4.281855  1890A      4.354797  
    1891A      4.446216  1892A      4.450097  1893A      4.450268  
    1894A      4.450576  1895A      4.650608  1896A      4.650727  
    1897A      4.651096  1898A      4.751362  1899A      4.786925  
    1900A      4.787264  

    Final Occupation by Irrep:
              A 
    DOCC [   321 ]
    NA   [   321 ]
    NB   [   321 ]

  @DF-RHF Final Energy: -4073.10397034737343

   => Energetics <=

    Nuclear Repulsion Energy =          17128.3404126209825336
    One-Electron Energy =              -39736.2124747758134617
    Two-Electron Energy =               18534.7680918074584042
    Total Energy =                      -4073.1039703473725240

Computation Completed


Properties will be evaluated at   0.000000,   0.000000,   0.000000 [a0]

Properties computed using the SCF density matrix


 Multipole Moments:

 ------------------------------------------------------------------------------------
     Multipole            Electronic (a.u.)      Nuclear  (a.u.)        Total (a.u.)
 ------------------------------------------------------------------------------------

 L = 1.  Multiply by 2.5417464519 to convert [e a0] to [Debye]
 Dipole X            :         -0.0008513           -0.0000548           -0.0009061
 Dipole Y            :          0.0009335           -0.0002464            0.0006872
 Dipole Z            :        -32.7487082           45.2282695           12.4795614
 Magnitude           :                                                   12.4795614

 ------------------------------------------------------------------------------------

*** tstop() called on n2cn0357 at Thu Jan 25 04:40:54 2024
Module time:
	user time   =   23614.78 seconds =     393.58 minutes
	system time =    1259.45 seconds =      20.99 minutes
	total time  =      19957 seconds =     332.62 minutes
Total time:
	user time   =   23614.78 seconds =     393.58 minutes
	system time =    1259.45 seconds =      20.99 minutes
	total time  =      19957 seconds =     332.62 minutes

  //>>>>>>>>>>>>>>>>>>>>>>>>>>>>>>>>>>>//
  //            Monomer A HF           //
  //<<<<<<<<<<<<<<<<<<<<<<<<<<<<<<<<<<<//

   => Libint2 <=

    Primary   basis highest AM E, G, H:  5, 4, 3
    Auxiliary basis highest AM E, G, H:  6, 5, 4
    Onebody   basis highest AM E, G, H:  6, 5, 4
    Solid Harmonics ordering:            gaussian

*** tstart() called on n2cn0357
*** at Thu Jan 25 04:40:56 2024

   => Loading Basis Set <=

    Name: JUN-CC-PVDZ
    Role: ORBITAL
    Keyword: BASIS
    atoms 1                                                   entry B          line   130 file /opt/software/pc2/EB-SW/software/PSI4/1.9-foss-2022a/share/psi4/basis/jun-cc-pvdz.gbs 
    atoms 2-5                                                 entry F          line   266 file /opt/software/pc2/EB-SW/software/PSI4/1.9-foss-2022a/share/psi4/basis/jun-cc-pvdz.gbs 
    atoms 6-23, 30-42, 45-59, 62-78, 81-93, 98-108, 111-119   entry C          line   164 file /opt/software/pc2/EB-SW/software/PSI4/1.9-foss-2022a/share/psi4/basis/jun-cc-pvdz.gbs 
    atoms 24-29, 43-44, 60-61, 79-80, 94-97, 109-110, 120-125 entry H          line    36 file /opt/software/pc2/EB-SW/software/PSI4/1.9-foss-2022a/share/psi4/basis/jun-cc-pvdz.gbs 


         ---------------------------------------------------------
                                   SCF
               by Justin Turney, Rob Parrish, Andy Simmonett
                          and Daniel G. A. Smith
                              RHF Reference
                       16 Threads,  44822 MiB Core
         ---------------------------------------------------------

  ==> Geometry <==

    Molecular point group: c1
    Full point group: C1

    Geometry (in Angstrom), charge = -1, multiplicity = 1:

       Center              X                  Y                   Z               Mass       
    ------------   -----------------  -----------------  -----------------  -----------------
         B           -0.000201921932     0.000288800891    -7.076515180033    11.009305360000
         F           -0.000004162732     0.000014527991    -5.663730180033    18.998403162730
         F            1.147855837268     0.675795727991    -7.547656180033    18.998403162730
         F            0.011913897268    -1.331996472009    -7.547454180033    18.998403162730
         F           -1.159670162732     0.656088027991    -7.547375180033    18.998403162730
      Gh(C)          -3.668445426752     7.803766698073     0.525350861303    12.000000000000
      Gh(C)          -4.847602882078     7.131256359331     0.522984286370    12.000000000000
      Gh(C)          -4.894963461907     5.696344931522     0.522411375272    12.000000000000
      Gh(C)          -3.653744841505     4.980744868950     0.530071817001    12.000000000000
      Gh(C)          -2.409429284226     7.113995564665     0.525545203563    12.000000000000
      Gh(C)          -2.425481506836     5.681136478894     0.518540314693    12.000000000000
      Gh(C)          -1.194748179167     7.786158722300     0.527017384105    12.000000000000
      Gh(C)           0.037954866205     7.099436173748     0.524846679800    12.000000000000
      Gh(C)           0.030328424687     5.669504087695     0.519363294884    12.000000000000
      Gh(C)          -1.200988670637     4.969284875906     0.528333028817    12.000000000000
      Gh(C)           1.277953663083     7.772873971185     0.526222528360    12.000000000000
      Gh(C)           2.485353921992     7.087711413228     0.523948040456    12.000000000000
      Gh(C)           2.486124522185     5.654785338231     0.517010291468    12.000000000000
      Gh(C)           1.254078756912     4.956092641655     0.528638233056    12.000000000000
      Gh(C)           3.751710428674     7.763926678971     0.524074891836    12.000000000000
      Gh(C)           4.923561893453     7.078795304981     0.522018411128    12.000000000000
      Gh(C)           4.955603108594     5.643461991360     0.521857998321    12.000000000000
      Gh(C)           3.706797371473     4.941224736324     0.526949558491    12.000000000000
      Gh(H)          -3.658525300490     8.890841947126     0.527035849553     1.007825032230
      Gh(H)          -1.189217492488     8.874135615351     0.530989260546     1.007825032230
      Gh(H)           1.284290076155     8.860847963479     0.530381352501     1.007825032230
      Gh(H)           3.753537924068     8.851049806963     0.525597416152     1.007825032230
      Gh(H)           5.869954540475     7.613809362646     0.521093044086     1.007825032230
      Gh(H)          -5.788235870234     7.676316740925     0.521424439014     1.007825032230
[...]
    1495A      2.103588  1496A      2.106657  1497A      2.109954  
    1498A      2.111318  1499A      2.111551  1500A      2.111811  
    1501A      2.112890  1502A      2.114430  1503A      2.116510  
    1504A      2.117760  1505A      2.119694  1506A      2.125753  
    1507A      2.126510  1508A      2.126804  1509A      2.126901  
    1510A      2.127297  1511A      2.127510  1512A      2.129020  
    1513A      2.130569  1514A      2.134598  1515A      2.135017  
    1516A      2.136946  1517A      2.137674  1518A      2.142927  
    1519A      2.143019  1520A      2.143109  1521A      2.143817  
    1522A      2.144183  1523A      2.154201  1524A      2.154858  
    1525A      2.157169  1526A      2.157357  1527A      2.158527  
    1528A      2.159217  1529A      2.159741  1530A      2.159918  
    1531A      2.162411  1532A      2.162723  1533A      2.171072  
    1534A      2.171380  1535A      2.179805  1536A      2.180777  
    1537A      2.181179  1538A      2.182229  1539A      2.188043  
    1540A      2.188698  1541A      2.190604  1542A      2.191455  
    1543A      2.192526  1544A      2.194937  1545A      2.196794  
    1546A      2.197936  1547A      2.200081  1548A      2.200397  
    1549A      2.200705  1550A      2.201261  1551A      2.202941  
    1552A      2.204088  1553A      2.205480  1554A      2.209007  
    1555A      2.213597  1556A      2.213878  1557A      2.220127  
    1558A      2.222115  1559A      2.222674  1560A      2.224105  
    1561A      2.224702  1562A      2.224747  1563A      2.228758  
    1564A      2.231985  1565A      2.232269  1566A      2.233042  
    1567A      2.238629  1568A      2.238784  1569A      2.239361  
    1570A      2.241276  1571A      2.247412  1572A      2.247820  
    1573A      2.248226  1574A      2.248735  1575A      2.260267  
    1576A      2.261439  1577A      2.263310  1578A      2.264834  
    1579A      2.266460  1580A      2.269493  1581A      2.275161  
    1582A      2.282777  1583A      2.284214  1584A      2.290238  
    1585A      2.290960  1586A      2.296238  1587A      2.296737  
    1588A      2.303690  1589A      2.304102  1590A      2.309031  
    1591A      2.314425  1592A      2.324405  1593A      2.324863  
    1594A      2.325157  1595A      2.327052  1596A      2.329348  
    1597A      2.330525  1598A      2.331050  1599A      2.332919  
    1600A      2.334210  1601A      2.334975  1602A      2.339584  
    1603A      2.341335  1604A      2.342119  1605A      2.342296  
    1606A      2.344747  1607A      2.345769  1608A      2.346264  
    1609A      2.349021  1610A      2.349380  1611A      2.367914  
    1612A      2.372145  1613A      2.372801  1614A      2.383554  
    1615A      2.387904  1616A      2.390176  1617A      2.391490  
    1618A      2.392479  1619A      2.396880  1620A      2.418277  
    1621A      2.419450  1622A      2.423455  1623A      2.427490  
    1624A      2.431895  1625A      2.441420  1626A      2.443277  
    1627A      2.451846  1628A      2.453043  1629A      2.464253  
    1630A      2.464289  1631A      2.467681  1632A      2.467958  
    1633A      2.471886  1634A      2.472145  1635A      2.490920  
    1636A      2.491298  1637A      2.494748  1638A      2.501567  
    1639A      2.505865  1640A      2.506875  1641A      2.511422  
    1642A      2.516140  1643A      2.539048  1644A      2.539097  
    1645A      2.539937  1646A      2.541762  1647A      2.542611  
    1648A      2.544713  1649A      2.547464  1650A      2.548386  
    1651A      2.549087  1652A      2.551090  1653A      2.556494  
    1654A      2.556649  1655A      2.564175  1656A      2.571083  
    1657A      2.571435  1658A      2.579937  1659A      2.583625  
    1660A      2.584087  1661A      2.585059  1662A      2.586216  
    1663A      2.588428  1664A      2.588581  1665A      2.593182  
    1666A      2.593468  1667A      2.601250  1668A      2.601394  
    1669A      2.612596  1670A      2.612830  1671A      2.613160  
    1672A      2.613616  1673A      2.616181  1674A      2.617258  
    1675A      2.632503  1676A      2.640497  1677A      2.641427  
    1678A      2.643605  1679A      2.645358  1680A      2.647281  
    1681A      2.648555  1682A      2.649167  1683A      2.652705  
    1684A      2.655641  1685A      2.656018  1686A      2.665946  
    1687A      2.666030  1688A      2.667526  1689A      2.670302  
    1690A      2.670513  1691A      2.673528  1692A      2.677078  
    1693A      2.677509  1694A      2.684177  1695A      2.685478  
    1696A      2.687002  1697A      2.690973  1698A      2.691183  
    1699A      2.691510  1700A      2.692293  1701A      2.696007  
    1702A      2.697235  1703A      2.703919  1704A      2.720554  
    1705A      2.730644  1706A      2.730731  1707A      2.730871  
    1708A      2.731052  1709A      2.731814  1710A      2.752614  
    1711A      2.759981  1712A      2.760643  1713A      2.772694  
    1714A      2.775780  1715A      2.779639  1716A      2.780079  
    1717A      2.798988  1718A      2.799831  1719A      2.801331  
    1720A      2.802143  1721A      2.802188  1722A      2.808031  
    1723A      2.809499  1724A      2.809953  1725A      2.811013  
    1726A      2.812018  1727A      2.814646  1728A      2.815270  
    1729A      2.815633  1730A      2.815869  1731A      2.827894  
    1732A      2.828127  1733A      2.840092  1734A      2.840620  
    1735A      2.841434  1736A      2.841528  1737A      2.845482  
    1738A      2.860466  1739A      2.864808  1740A      2.865304  
    1741A      2.869604  1742A      2.870917  1743A      2.874058  
    1744A      2.895869  1745A      2.896756  1746A      2.912339  
    1747A      2.917593  1748A      2.917712  1749A      2.927388  
    1750A      2.929589  1751A      2.934675  1752A      2.934708  
    1753A      2.962950  1754A      2.964670  1755A      2.965221  
    1756A      2.976067  1757A      2.991621  1758A      2.992376  
    1759A      3.029094  1760A      3.029836  1761A      3.035275  
    1762A      3.038485  1763A      3.046728  1764A      3.047372  
    1765A      3.047942  1766A      3.057431  1767A      3.057478  
    1768A      3.063160  1769A      3.072800  1770A      3.108356  
    1771A      3.112636  1772A      3.112934  1773A      3.122355  
    1774A      3.126923  1775A      3.127503  1776A      3.132339  
    1777A      3.133947  1778A      3.141825  1779A      3.142829  
    1780A      3.147999  1781A      3.148534  1782A      3.149366  
    1783A      3.149973  1784A      3.153471  1785A      3.162053  
    1786A      3.167635  1787A      3.173097  1788A      3.174673  
    1789A      3.175058  1790A      3.193002  1791A      3.193636  
    1792A      3.219971  1793A      3.252789  1794A      3.259337  
    1795A      3.260583  1796A      3.261290  1797A      3.261922  
    1798A      3.264186  1799A      3.268033  1800A      3.271091  
    1801A      3.274425  1802A      3.275234  1803A      3.292176  
    1804A      3.293636  1805A      3.294698  1806A      3.302158  
    1807A      3.361003  1808A      3.361975  1809A      3.369638  
    1810A      3.415628  1811A      3.429484  1812A      3.431969  
    1813A      3.436913  1814A      3.445144  1815A      3.448218  
    1816A      3.460597  1817A      3.464383  1818A      3.465166  
    1819A      3.470853  1820A      3.473788  1821A      3.480709  
    1822A      3.484221  1823A      3.493343  1824A      3.509052  
    1825A      3.538685  1826A      3.574235  1827A      3.575911  
    1828A      3.582106  1829A      3.589854  1830A      3.634899  
    1831A      3.638062  1832A      3.664443  1833A      3.666628  
    1834A      3.704893  1835A      3.747069  1836A      3.749119  
    1837A      3.750352  1838A      3.762979  1839A      3.778550  
    1840A      3.778623  1841A      3.841807  1842A      3.843088  
    1843A      3.871407  1844A      3.874548  1845A      3.904517  
    1846A      3.912844  1847A      3.937651  1848A      3.939550  
    1849A      3.948183  1850A      3.949118  1851A      3.958355  
    1852A      3.964405  1853A      3.970682  1854A      4.024587  
    1855A      4.027394  1856A      4.070667  1857A      4.181716  
    1858A      4.182017  1859A      4.197029  1860A      4.228676  
    1861A      4.301160  1862A      4.320998  1863A      4.392833  
    1864A      5.747027  1865A      5.747824  1866A      5.747830  
    1867A      5.751490  1868A      5.751498  1869A      5.756881  
    1870A      5.758273  1871A      5.758279  1872A      5.777254  
    1873A      5.777295  1874A      5.780047  1875A      6.018121  
    1876A      6.018853  1877A      6.019197  1878A      6.191292  
    1879A      6.325293  1880A      6.325621  1881A      6.371704  
    1882A      6.372064  1883A      6.373753  1884A      7.144120  
    1885A      7.144682  1886A      7.222385  1887A      7.222467  
    1888A      7.224102  1889A      7.237712  1890A      7.248536  
    1891A      7.248894  1892A      7.451865  1893A      7.452055  
    1894A      7.462360  1895A      7.584117  1896A     12.592426  
    1897A     42.906232  1898A     42.906322  1899A     42.910753  
    1900A     42.935713  

    Final Occupation by Irrep:
              A 
    DOCC [   300 ]
    NA   [   300 ]
    NB   [   300 ]

  @DF-RHF Final Energy: -3650.33752430978302

   => Energetics <=

    Nuclear Repulsion Energy =          15611.4211649754324753
    One-Electron Energy =              -36072.0721863641520031
    Two-Electron Energy =               16810.3134970789360523
    Total Energy =                      -3650.3375243097834755

Computation Completed


Properties will be evaluated at   0.000000,   0.000000,   0.000000 [a0]

Properties computed using the SCF density matrix


 Multipole Moments:

 ------------------------------------------------------------------------------------
     Multipole            Electronic (a.u.)      Nuclear  (a.u.)        Total (a.u.)
 ------------------------------------------------------------------------------------

 L = 1.  Multiply by 2.5417464519 to convert [e a0] to [Debye]
 Dipole X            :         -0.0009528            0.0002304           -0.0007224
 Dipole Y            :          0.0010592           -0.0013052           -0.0002460
 Dipole Z            :       -593.5097757          593.5106058            0.0008301
 Magnitude           :                                                    0.0011276

 ------------------------------------------------------------------------------------

*** tstop() called on n2cn0357 at Thu Jan 25 08:12:46 2024
Module time:
	user time   =   16494.20 seconds =     274.90 minutes
	system time =     918.73 seconds =      15.31 minutes
	total time  =       6967 seconds =     116.12 minutes
Total time:
	user time   =   44003.85 seconds =     733.40 minutes
	system time =    2451.12 seconds =      40.85 minutes
	total time  =      32669 seconds =     544.48 minutes
  Constructing Basis Sets for SAPT...

   => Loading Basis Set <=

    Name: (JUN-CC-PVDZ AUX)
    Role: RIFIT
    Keyword: DF_BASIS_SAPT
    atoms 1                                                   entry B          line    56 file /opt/software/pc2/EB-SW/software/PSI4/1.9-foss-2022a/share/psi4/basis/jun-cc-pvdz-ri.gbs 
    atoms 2-5                                                 entry F          line   232 file /opt/software/pc2/EB-SW/software/PSI4/1.9-foss-2022a/share/psi4/basis/jun-cc-pvdz-ri.gbs 
    atoms 6-23, 30-42, 45-59, 62-78, 81-93, 98-108, 111-119   entry C          line   100 file /opt/software/pc2/EB-SW/software/PSI4/1.9-foss-2022a/share/psi4/basis/jun-cc-pvdz-ri.gbs 
    atoms 24-29, 43-44, 60-61, 79-80, 94-97, 109-110, 120-125 entry H          line    30 file /opt/software/pc2/EB-SW/software/PSI4/1.9-foss-2022a/share/psi4/basis/jun-cc-pvdz-ri.gbs 

   => Loading Basis Set <=

    Name: (JUN-CC-PVDZ AUX)
    Role: JKFIT
    Keyword: DF_BASIS_ELST
    atoms 1                                                   entry B          line    90 file /opt/software/pc2/EB-SW/software/PSI4/1.9-foss-2022a/share/psi4/basis/jun-cc-pvdz-jkfit.gbs 
    atoms 2-5                                                 entry F          line   314 file /opt/software/pc2/EB-SW/software/PSI4/1.9-foss-2022a/share/psi4/basis/jun-cc-pvdz-jkfit.gbs 
    atoms 6-23, 30-42, 45-59, 62-78, 81-93, 98-108, 111-119   entry C          line   146 file /opt/software/pc2/EB-SW/software/PSI4/1.9-foss-2022a/share/psi4/basis/jun-cc-pvdz-jkfit.gbs 
    atoms 24-29, 43-44, 60-61, 79-80, 94-97, 109-110, 120-125 entry H          line    70 file /opt/software/pc2/EB-SW/software/PSI4/1.9-foss-2022a/share/psi4/basis/jun-cc-pvdz-jkfit.gbs 


  //>>>>>>>>>>>>>>>>>>>>>>>>>>>>>>>>>>>//
  //               SSAPT0              //
  //<<<<<<<<<<<<<<<<<<<<<<<<<<<<<<<<<<<//


*** tstart() called on n2cn0357
*** at Thu Jan 25 08:12:49 2024

        SAPT0  
    Ed Hohenstein
     6 June 2009

      Orbital Information
  --------------------------
    NSO        =      1938
    NMO        =      1900
    NRI        =      6901
    NRI (Elst) =      8531
    NOCC A     =        21
    NOCC B     =       300
    FOCC A     =         5
    FOCC B     =        96
    NVIR A     =      1879
    NVIR B     =      1600

    Elst10,r            =     0.007582816849 [Eh]
    Exch10              =    -0.000000154395 [Eh]
    Exch10 (S^2)        =    -0.000000154395 [Eh]

    Iter     Energy [mEh]          dE [mEh]         Residual      Time [s]
       1      -0.00303444       0.003034438       0.412647740           524
       2      -0.00357055       0.000536115       0.216251292          1349
       3      -0.00380724       0.000236683       0.038523380          2178
       4      -0.00380821       0.000000977       0.008511691          2794
       5      -0.00380255      -0.000005661       0.001202977          3512
       6      -0.00380339       0.000000836       0.000225414          4060
       7      -0.00380336      -0.000000025       0.000074441          4465
       8      -0.00380335      -0.000000016       0.000017319          4884
       9      -0.00380335      -0.000000002       0.000002665          5336
      10      -0.00380335       0.000000001       0.000000346          6571

    CHF Iterations converged


    Iter     Energy [mEh]          dE [mEh]         Residual      Time [s]
       1      -3.94614261       3.946142607      34.528496983           612
       2      -2.54127713      -1.404865476       4.012146425          1055
       3      -2.53048035      -0.010796784       1.361009320          1775
       4      -2.57646281       0.045982466       0.416858395          2322
       5      -2.58222737       0.005764563       0.142140354          2732
       6      -2.58171258      -0.000514792       0.091007928          3310
       7      -2.58045117      -0.001261414       0.039654198          3912
       8      -2.58055637       0.000105201       0.021103866          4388
       9      -2.58084067       0.000284302       0.012172037          4836
      10      -2.58077082      -0.000069855       0.010846177          5226
      11      -2.58071924      -0.000051578       0.004694670          5673
      12      -2.58072535       0.000006108       0.002060981          6072
      13      -2.58073593       0.000010587       0.000763506          6498
      14      -2.58073815       0.000002218       0.000254025          6916
      15      -2.58073691      -0.000001239       0.000148789          7453
      16      -2.58073585      -0.000001066       0.000085087          7883
      17      -2.58073642       0.000000571       0.000045921          8317
      18      -2.58073659       0.000000171       0.000016789          8724
      19      -2.58073648      -0.000000103       0.000008056          9286
      20      -2.58073646      -0.000000020       0.000003357          9720
      21      -2.58073648       0.000000013       0.000001752         10067
      22      -2.58073648       0.000000006       0.000000944         10363

    CHF Iterations converged

    Ind20,r (A<-B)      =    -0.000003803346 [Eh]
    Ind20,r (B<-A)      =    -0.002580736484 [Eh]
    Ind20,r             =    -0.002584539830 [Eh]
    Exch-Ind20,r (A<-B) =     0.000000047912 [Eh]
    Exch-Ind20,r (B<-A) =     0.000000155920 [Eh]
    Exch-Ind20,r        =     0.000000203833 [Eh]
    Disp20              =    -0.000338012295 [Eh]
    Disp20 (SS)         =    -0.000169006147 [Eh]
    Disp20 (OS)         =    -0.000169006147 [Eh]
    Exch-Disp20         =     0.000000079195 [Eh]
    Exch-Disp20 (SS)    =     0.000000062575 [Eh]
    Exch-Disp20 (OS)    =     0.000000016620 [Eh]

    SAPT Results 
  --------------------------------------------------------------------------------------------------------
    Electrostatics                  7.58281685 [mEh]       4.75828941 [kcal/mol]      19.90868289 [kJ/mol]
      Elst10,r                      7.58281685 [mEh]       4.75828941 [kcal/mol]      19.90868289 [kJ/mol]

    Exchange                       -0.00015440 [mEh]      -0.00009688 [kcal/mol]      -0.00040537 [kJ/mol]
      Exch10                       -0.00015440 [mEh]      -0.00009688 [kcal/mol]      -0.00040537 [kJ/mol]
      Exch10(S^2)                  -0.00015440 [mEh]      -0.00009688 [kcal/mol]      -0.00040537 [kJ/mol]

    Induction                      -2.57241572 [mEh]      -1.61421523 [kcal/mol]      -6.75387653 [kJ/mol]
      Ind20,r                      -2.58453983 [mEh]      -1.62182323 [kcal/mol]      -6.78570839 [kJ/mol]
      Exch-Ind20,r                  0.00020383 [mEh]       0.00012791 [kcal/mol]       0.00053516 [kJ/mol]
      delta HF,r (2)                0.01192028 [mEh]       0.00748009 [kcal/mol]       0.03129669 [kJ/mol]

    Dispersion                     -0.33793310 [mEh]      -0.21205622 [kcal/mol]      -0.88724323 [kJ/mol]
      Disp20                       -0.33801229 [mEh]      -0.21210592 [kcal/mol]      -0.88745116 [kJ/mol]
      Exch-Disp20                   0.00007919 [mEh]       0.00004970 [kcal/mol]       0.00020793 [kJ/mol]
      Disp20 (SS)                  -0.16900615 [mEh]      -0.10605296 [kcal/mol]      -0.44372558 [kJ/mol]
      Disp20 (OS)                  -0.16900615 [mEh]      -0.10605296 [kcal/mol]      -0.44372558 [kJ/mol]
      Exch-Disp20 (SS)              0.00006257 [mEh]       0.00003927 [kcal/mol]       0.00016429 [kJ/mol]
      Exch-Disp20 (OS)              0.00001662 [mEh]       0.00001043 [kcal/mol]       0.00004364 [kJ/mol]

  Total HF                          5.01024674 [mEh]       3.14397729 [kcal/mol]      13.15440100 [kJ/mol]
  Total SAPT0                       4.67231364 [mEh]       2.93192107 [kcal/mol]      12.26715776 [kJ/mol]

  Special recipe for scaled SAPT0 (see Manual):
    Electrostatics sSAPT0           7.58281685 [mEh]       4.75828941 [kcal/mol]      19.90868289 [kJ/mol]
    Exchange sSAPT0                -0.00015440 [mEh]      -0.00009688 [kcal/mol]      -0.00040537 [kJ/mol]
    Induction sSAPT0               -2.57241572 [mEh]      -1.61421523 [kcal/mol]      -6.75387653 [kJ/mol]
    Dispersion sSAPT0              -0.33793310 [mEh]      -0.21205622 [kcal/mol]      -0.88724323 [kJ/mol]
  Total sSAPT0                      4.67231364 [mEh]       2.93192107 [kcal/mol]      12.26715776 [kJ/mol]
  --------------------------------------------------------------------------------------------------------

*** tstop() called on n2cn0357 at Thu Jan 25 21:36:22 2024
Module time:
	user time   =   65035.50 seconds =    1083.92 minutes
	system time =    3163.82 seconds =      52.73 minutes
	total time  =      48213 seconds =     803.55 minutes
Total time:
	user time   =  109040.72 seconds =    1817.35 minutes
	system time =    5614.95 seconds =      93.58 minutes
	total time  =      80885 seconds =    1348.08 minutes

    Psi4 stopped on: Thursday, 25 January 2024 09:36PM
    Psi4 wall time for execution: 22:28:06.39

*** Psi4 exiting successfully. Buy a developer a beer!
