
    -----------------------------------------------------------------------
          Psi4: An Open-Source Ab Initio Electronic Structure Package
                               Psi4 1.9 release

                         Git: Rev {} zzzzzzz 


    D. G. A. Smith, L. A. Burns, A. C. Simmonett, R. M. Parrish,
    M. C. Schieber, R. Galvelis, P. Kraus, H. Kruse, R. Di Remigio,
    A. Alenaizan, A. M. James, S. Lehtola, J. P. Misiewicz, M. Scheurer,
    R. A. Shaw, J. B. Schriber, Y. Xie, Z. L. Glick, D. A. Sirianni,
    J. S. O'Brien, J. M. Waldrop, A. Kumar, E. G. Hohenstein,
    B. P. Pritchard, B. R. Brooks, H. F. Schaefer III, A. Yu. Sokolov,
    K. Patkowski, A. E. DePrince III, U. Bozkaya, R. A. King,
    F. A. Evangelista, J. M. Turney, T. D. Crawford, C. D. Sherrill,
    J. Chem. Phys. 152(18) 184108 (2020). https://doi.org/10.1063/5.0006002

                            Additional Code Authors
    E. T. Seidl, C. L. Janssen, E. F. Valeev, M. L. Leininger,
    J. F. Gonthier, R. M. Richard, H. R. McAlexander, M. Saitow, X. Wang,
    P. Verma, M. H. Lechner, A. Jiang, S. Behnle, A. G. Heide,
    M. F. Herbst, and D. L. Poole

             Previous Authors, Complete List of Code Contributors,
                       and Citations for Specific Modules
    https://github.com/psi4/psi4/blob/master/codemeta.json
    https://github.com/psi4/psi4/graphs/contributors
    http://psicode.org/psi4manual/master/introduction.html#citing-psifour

    -----------------------------------------------------------------------


    Psi4 started on: Wednesday, 24 January 2024 10:35PM

    Process ID: 4019644
    Host:       n2cn0892
    PSIDATADIR: /opt/software/pc2/EB-SW/software/PSI4/1.9-foss-2022a/share/psi4
    Memory:     500.0 MiB
    Threads:    16
    
  ==> Input File <==

--------------------------------------------------------------------------
memory 47 GB # how much memory is available ! Depends on the nodes/cores !

molecule dimer {
# monomer A
-1 1    # Charge and multiplicity
B -1.977592e-04  2.742729e-04 5.000034
F  1.123153e-16  1.430594e-17 6.412819
F  1.147860e+00  6.757812e-01 4.528893
F  1.191806e-02 -1.332011e+00 4.529095
F -1.159666e+00  6.560735e-01 4.529174
--
# monomer B
0 1     # Charge and multiplicity
C   -3.66844126402057      7.80375217008252      0.00190004133558
C   -4.84759871934653      7.13124183134024     -0.00046653359696
C   -4.89495929917518      5.69633040353158     -0.00103944469517
C   -3.65374067877320      4.98073034095895      0.00662099703436
C   -2.40942512149445      7.11398103667468      0.00209438359570
C   -2.42547734410473      5.68112195090346     -0.00491050527438
C   -1.19474401643570      7.78614419430947      0.00356656413763
C   0.03795902893699      7.09942164575698      0.00139585983271
C   0.03033258741920      5.66948955970466     -0.00408752508301
C   -1.20098450790502      4.96927034791531      0.00488220885047
C   1.27795782581485      7.77285944319479      0.00277170839332
C   2.48535808472416      7.08769688523756      0.00049722048857
C   2.48612868491717      5.65477081024076     -0.00644052849921
C   1.25408291964399      4.95607811366431      0.00518741308898
C   3.75171459140595      7.76391215098033      0.00062407186893
C   4.92356605618520      7.07878077698995     -0.00143240883900
C   4.95560727132542      5.64344746336949     -0.00159282164606
C   3.70680153420475      4.94121020833308      0.00349873852374
H   -3.65852113775815      8.89082741913536      0.00358502958574
H   -1.18921332975660      8.87412108735996      0.00753844057883
H   1.28429423888630      8.86083343548850      0.00693053253426
H   3.75354208679975      8.85103527897216      0.00214659618464
H   5.86995870320703      7.61379483465560     -0.00235777588134
H   -5.78823170750226      7.67630221293400     -0.00202638095293
C   -6.09197395869619      4.99326001364347     -0.00291168518608
C   -6.12866148031747      3.58258016879823     -0.00171050815740
C   -3.66457974004527      3.56418217974434     -0.00463560277484
C   -4.89429820469869      2.86108077590057      0.00453338221034
C   -2.43733499489796      2.84761165708481      0.00719617576166
C   -1.20922785759670      3.54788693497833     -0.00648285103018
C   1.24714157216223      3.53468075142962     -0.00729145743546
C   0.01517603956900      2.83311183930540      0.00439272578912
C   2.46764517244071      2.82128997725533      0.00449278391269
C   3.70254947457969      3.52466015442405     -0.00899517692985
C   6.14498038638375      4.92757236613191     -0.00282626685777
C   6.16658835886151      3.51658447594213     -0.00065971342101
C   4.92460995845939      2.80840792535402      0.00587903281610
H   7.08990550964105      5.46688776622306     -0.00658814770723
H   -7.03104175110130      5.54268795285765     -0.00714490013730
C   -7.33969804112295      2.85841153457957     -0.00333767559888
C   -7.36488195805880      1.47032337158330     -0.00157213747140
C   -4.90350460894690      1.44442681216000     -0.00628840166334
C   -6.13225715261081      0.73993935705394      0.00600164231964
C   -3.67687480051673      0.72669714267312      0.00433931473643
C   -2.44565658606518      1.42964113326212     -0.00597039546461
C   -1.22360068130162      0.71532450163492      0.00545886906656
C   0.00763786931376      1.41738314923765      0.00392452278437
C   1.23121980774686      0.70211669058719     -0.01490206287210
C   2.46082110053113      1.40329203612573      0.00460244601878
C   3.68443025419614      0.68719842821222      0.00377365974158
C   4.91870890153864      1.39173456118907     -0.00862816189375
C   7.36980207796101      2.77948220318441     -0.00242013321349
C   7.38016266612146      1.39121750785509     -0.00087345036788
C   6.13979953912259      0.67411862320065      0.00545489144369
H   -8.27919079934664      3.40711804112415     -0.00763522772059
H   8.31511347147953      3.31811809662368     -0.00663070901292
C   -8.59175593758115      0.72483255304480     -0.00123170985383
C   -8.59902460370342     -0.63263980622873      0.00089141472904
C   -6.13981313911873     -0.67413663715361     -0.00609792660607
C   -7.38018411213749     -1.39126618958160      0.00131813493501
C   -4.91868448025621     -1.39175501803000      0.00624257154343
C   -3.68443829568458     -0.68723731573599     -0.00478966852105
C   -2.46081704024768     -1.40334517882457      0.00575341766833
C   -1.23116201232071     -0.70217386488055     -0.00636696112346
C   -0.00756962538737     -1.41741884941102      0.00108956317991
C   1.22364771588843     -0.71527537726392      0.01109518512883
C   2.44567064933149     -1.42964328900682     -0.00065482763106
C   3.67686670284649     -0.72670743155550     -0.00479541202602
C   6.13224884641929     -0.73997883984993     -0.00632338623858
C   4.90351914550401     -1.44445752054090      0.00751768830159
C   8.59901484869081      0.63260386666793     -0.00101133422380
C   8.59174548810050     -0.72485086719319      0.00072504603735
C   7.36486276438985     -1.47033266560598      0.00049486934466
H   -9.52830597181814      1.27684744919284     -0.00270163681798
H   9.54141097460619      1.17457248844457     -0.00206336648518
C   -7.36983790976868     -2.77954514593389      0.00312634335708
C   -4.92459910905015     -2.80843725734101     -0.00460528907921
C   -6.16662249566744     -3.51665219282533      0.00169655107992
C   -3.70251035970491     -3.52468154912026      0.00571878010666
C   -2.46764698511392     -2.82132596280400     -0.00632585824990
C   -0.01513347410770     -2.83314164539971     -0.00604426974092
C   -1.24712184122656     -3.53473217556300      0.00551968366725
C   1.20924506964357     -3.54791467864352      0.00805871345849
C   2.43733602215464     -2.84764173817541     -0.00608104485234
C   4.89430234377080     -2.86112296828604     -0.00526030478103
C   3.66461525504104     -3.56421984553201      0.00761911515957
C   6.12863901474565     -3.58258405771778      0.00096495711699
C   7.33967266469532     -2.85841330737039      0.00248018319869
H   -9.54144911125902     -1.17456346666430      0.00226083090216
H   9.52826186807155     -1.27691907390448      0.00197485379837
H   -8.31516504384864     -3.31814985321231      0.00729857188773
H   8.27915514249207     -3.40714078989363      0.00681973918158
C   -6.14499418870218     -4.92764727278338      0.00302254913999
C   -3.70678334799751     -4.94126171411716     -0.00679841894792
C   -4.95559005800169     -5.64349397349412      0.00116871569699
C   -2.48612132622665     -5.65478557440947      0.00614125209662
C   -1.25405833548005     -4.95612205000132     -0.00503435388927
C   1.20101257386816     -4.96928038819302     -0.00385322963129
C   -0.03033667441341     -5.66952030313900      0.00398997003238
C   3.65375010132847     -4.98074377541453     -0.00309522988330
C   2.42549269587528     -5.68117463552727      0.00628170066869
C   6.09196561781097     -4.99325796338655      0.00325918379042
C   4.89497644461045     -5.69634842095790      0.00202298796027
H   -7.08989238804069     -5.46699984223871      0.00742531082125
H   7.03105520920009     -5.54265853633254      0.00683896355417
C   -4.92354532219813     -7.07882109967734      0.00061394679214
C   -2.48534208823777     -7.08772807792913     -0.00189594564379
C   -3.75168589177895     -7.76394715763627     -0.00170126671874
C   -0.03794895698805     -7.09946487446944     -0.00168022049625
C   -1.27795610040136     -7.77290438466689     -0.00366491325785
C   2.40944432072629     -7.11402201200282     -0.00081701968533
C   1.19474993715296     -7.78618536556242     -0.00296931056689
C   4.84762105249800     -7.13126211057943      0.00168979497423
C   3.66847160587561     -7.80378799294376     -0.00065863938960
H   -5.86994035041618     -7.61383059804164      0.00215798365757
H   5.78824962538815     -7.67633218931421      0.00281691445618
H   -3.75352693944918     -8.85107156923607     -0.00353718114765
H   -1.28430440589466     -8.86087539249706     -0.00809229711623
H   1.18922157469537     -8.87416062058945     -0.00706194725726
H   3.65854661482387     -8.89086063405326     -0.00231318081200

    units angstrom      # Angstroms are the default
    no_reorient         # Geometry fixed, default
    symmetry c1         # C1 symmetry, default
}

set {
    scf_type DF         # Density fitting, faster than exact integrals
    freeze_core True    # Freeze core electrons
    basis jun-cc-pVDZ   # Jun-cc-pVDZ basis set, recommended for sSAPT0 in https://doi.org/10.1063/1.4867135
}

energy('ssapt0')        # Compute sSAPT0 energy, includes also SAPT0
--------------------------------------------------------------------------

  Memory set to  43.772 GiB by Python driver.

Scratch directory: /tmp/
   => Loading Basis Set <=

    Name: JUN-CC-PVDZ
    Role: ORBITAL
    Keyword: BASIS
    atoms 1                                                   entry B          line   130 file /opt/software/pc2/EB-SW/software/PSI4/1.9-foss-2022a/share/psi4/basis/jun-cc-pvdz.gbs 
    atoms 2-5                                                 entry F          line   266 file /opt/software/pc2/EB-SW/software/PSI4/1.9-foss-2022a/share/psi4/basis/jun-cc-pvdz.gbs 
    atoms 6-23, 30-42, 45-59, 62-78, 81-93, 98-108, 111-119   entry C          line   164 file /opt/software/pc2/EB-SW/software/PSI4/1.9-foss-2022a/share/psi4/basis/jun-cc-pvdz.gbs 
    atoms 24-29, 43-44, 60-61, 79-80, 94-97, 109-110, 120-125 entry H          line    36 file /opt/software/pc2/EB-SW/software/PSI4/1.9-foss-2022a/share/psi4/basis/jun-cc-pvdz.gbs 

   => Loading Basis Set <=

    Name: JUN-CC-PVDZ
    Role: ORBITAL
    Keyword: BASIS
    atoms 1                                                   entry B          line   130 file /opt/software/pc2/EB-SW/software/PSI4/1.9-foss-2022a/share/psi4/basis/jun-cc-pvdz.gbs 
    atoms 2-5                                                 entry F          line   266 file /opt/software/pc2/EB-SW/software/PSI4/1.9-foss-2022a/share/psi4/basis/jun-cc-pvdz.gbs 
    atoms 6-23, 30-42, 45-59, 62-78, 81-93, 98-108, 111-119   entry C          line   164 file /opt/software/pc2/EB-SW/software/PSI4/1.9-foss-2022a/share/psi4/basis/jun-cc-pvdz.gbs 
    atoms 24-29, 43-44, 60-61, 79-80, 94-97, 109-110, 120-125 entry H          line    36 file /opt/software/pc2/EB-SW/software/PSI4/1.9-foss-2022a/share/psi4/basis/jun-cc-pvdz.gbs 


  //>>>>>>>>>>>>>>>>>>>>>>>>>>>>>>>>>>>//
  //              Dimer HF             //
  //<<<<<<<<<<<<<<<<<<<<<<<<<<<<<<<<<<<//

   => Libint2 <=

    Primary   basis highest AM E, G, H:  5, 4, 3
    Auxiliary basis highest AM E, G, H:  6, 5, 4
    Onebody   basis highest AM E, G, H:  6, 5, 4
    Solid Harmonics ordering:            gaussian

*** tstart() called on n2cn0892
*** at Wed Jan 24 22:35:34 2024

   => Loading Basis Set <=

    Name: JUN-CC-PVDZ
    Role: ORBITAL
    Keyword: BASIS
    atoms 1                                                   entry B          line   130 file /opt/software/pc2/EB-SW/software/PSI4/1.9-foss-2022a/share/psi4/basis/jun-cc-pvdz.gbs 
    atoms 2-5                                                 entry F          line   266 file /opt/software/pc2/EB-SW/software/PSI4/1.9-foss-2022a/share/psi4/basis/jun-cc-pvdz.gbs 
    atoms 6-23, 30-42, 45-59, 62-78, 81-93, 98-108, 111-119   entry C          line   164 file /opt/software/pc2/EB-SW/software/PSI4/1.9-foss-2022a/share/psi4/basis/jun-cc-pvdz.gbs 
    atoms 24-29, 43-44, 60-61, 79-80, 94-97, 109-110, 120-125 entry H          line    36 file /opt/software/pc2/EB-SW/software/PSI4/1.9-foss-2022a/share/psi4/basis/jun-cc-pvdz.gbs 


         ---------------------------------------------------------
                                   SCF
               by Justin Turney, Rob Parrish, Andy Simmonett
                          and Daniel G. A. Smith
                              RHF Reference
                       16 Threads,  44822 MiB Core
         ---------------------------------------------------------

  ==> Geometry <==

    Molecular point group: c1
    Full point group: C1

    Geometry (in Angstrom), charge = -1, multiplicity = 1:

       Center              X                  Y                   Z               Mass       
    ------------   -----------------  -----------------  -----------------  -----------------
         B           -0.000201921932     0.000288800891     4.655653264022    11.009305360000
         F           -0.000004162732     0.000014527991     6.068438264022    18.998403162730
         F            1.147855837268     0.675795727991     4.184512264022    18.998403162730
         F            0.011913897268    -1.331996472009     4.184714264022    18.998403162730
         F           -1.159670162732     0.656088027991     4.184793264022    18.998403162730
         C           -3.668445426752     7.803766698073    -0.342480694642    12.000000000000
         C           -4.847602882078     7.131256359331    -0.344847269575    12.000000000000
         C           -4.894963461907     5.696344931522    -0.345420180673    12.000000000000
         C           -3.653744841505     4.980744868950    -0.337759738943    12.000000000000
         C           -2.409429284226     7.113995564665    -0.342286352382    12.000000000000
         C           -2.425481506836     5.681136478894    -0.349291241252    12.000000000000
         C           -1.194748179167     7.786158722300    -0.340814171840    12.000000000000
         C            0.037954866205     7.099436173748    -0.342984876145    12.000000000000
         C            0.030328424687     5.669504087695    -0.348468261061    12.000000000000
         C           -1.200988670637     4.969284875906    -0.339498527127    12.000000000000
         C            1.277953663083     7.772873971185    -0.341609027584    12.000000000000
         C            2.485353921992     7.087711413228    -0.343883515489    12.000000000000
         C            2.486124522185     5.654785338231    -0.350821264477    12.000000000000
         C            1.254078756912     4.956092641655    -0.339193322889    12.000000000000
         C            3.751710428674     7.763926678971    -0.343756664109    12.000000000000
         C            4.923561893453     7.078795304981    -0.345813144817    12.000000000000
         C            4.955603108594     5.643461991360    -0.345973557624    12.000000000000
         C            3.706797371473     4.941224736324    -0.340881997454    12.000000000000
         H           -3.658525300490     8.890841947126    -0.340795706392     1.007825032230
         H           -1.189217492488     8.874135615351    -0.336842295399     1.007825032230
         H            1.284290076155     8.860847963479    -0.337450203443     1.007825032230
         H            3.753537924068     8.851049806963    -0.342234139793     1.007825032230
         H            5.869954540475     7.613809362646    -0.346738511859     1.007825032230
         H           -5.788235870234     7.676316740925    -0.346407116931     1.007825032230
         C           -6.091978121428     4.993274541634    -0.347292421164    12.000000000000
         C           -6.128665643049     3.582594696789    -0.346091244135    12.000000000000
         C           -3.664583902777     3.564196707735    -0.349016338753    12.000000000000
         C           -4.894302367430     2.861095303891    -0.339847353767    12.000000000000
         C           -2.437339157630     2.847626185075    -0.337184560216    12.000000000000
         C           -1.209232020328     3.547901462969    -0.350863587008    12.000000000000
         C            1.247137409430     3.534695279420    -0.351672193413    12.000000000000
         C            0.015171876837     2.833126367296    -0.339988010189    12.000000000000
         C            2.467641009709     2.821304505246    -0.339887952065    12.000000000000
         C            3.702545311848     3.524674682415    -0.353375912908    12.000000000000
         C            6.144976223652     4.927586894122    -0.347207002836    12.000000000000
         C            6.166584196130     3.516599003933    -0.345040449399    12.000000000000
         C            4.924605795728     2.808422453345    -0.338501703162    12.000000000000
         H            7.089901346909     5.466902294214    -0.350968883685     1.007825032230
         H           -7.031045913833     5.542702480848    -0.351525636115     1.007825032230
         C           -7.339702203855     2.858426062570    -0.347718411577    12.000000000000
         C           -7.364886120791     1.470337899574    -0.345952873449    12.000000000000
         C           -4.903508771679     1.444441340151    -0.350669137641    12.000000000000
         C           -6.132261315343     0.739953885044    -0.338379093658    12.000000000000
         C           -3.676878963248     0.726711670664    -0.340041421241    12.000000000000
         C           -2.445660748797     1.429655661253    -0.350351131442    12.000000000000
         C           -1.223604844033     0.715339029625    -0.338921866911    12.000000000000
         C            0.007633706582     1.417397677228    -0.340456213193    12.000000000000
         C            1.231215645015     0.702131218578    -0.359282798850    12.000000000000
         C            2.460816937799     1.403306564116    -0.339778289959    12.000000000000
         C            3.684426091464     0.687212956203    -0.340607076236    12.000000000000
         C            4.918704738807     1.391749089180    -0.353008897871    12.000000000000
         C            7.369797915229     2.779496731175    -0.346800869191    12.000000000000
         C            7.380158503390     1.391232035846    -0.345254186346    12.000000000000
         C            6.139795376391     0.674133151191    -0.338925844534    12.000000000000
         H           -8.279194962078     3.407132569115    -0.352015963698     1.007825032230
         H            8.315109308748     3.318132624614    -0.351011444991     1.007825032230
         C           -8.591760100313     0.724847081035    -0.345612445832    12.000000000000
         C           -8.599028766435    -0.632625278238    -0.343489321249    12.000000000000
         C           -6.139817301850    -0.674122109163    -0.350478662584    12.000000000000
         C           -7.380188274869    -1.391251661591    -0.343062601043    12.000000000000
         C           -4.918688642988    -1.391740490039    -0.338138164434    12.000000000000
         C           -3.684442458416    -0.687222787745    -0.349170404499    12.000000000000
         C           -2.460821202979    -1.403330650834    -0.338627318309    12.000000000000
         C           -1.231166175052    -0.702159336890    -0.350747697101    12.000000000000
         C           -0.007573788119    -1.417404321420    -0.343291172798    12.000000000000
         C            1.223643553157    -0.715260849273    -0.333285550849    12.000000000000
         C            2.445666486600    -1.429628761016    -0.345035563609    12.000000000000
         C            3.676862540115    -0.726692903565    -0.349176148004    12.000000000000
         C            6.132244683688    -0.739964311859    -0.350704122216    12.000000000000
         C            4.903514982772    -1.444442992550    -0.336863047676    12.000000000000
         C            8.599010685959     0.632618394658    -0.345392070202    12.000000000000
         C            8.591741325369    -0.724836339203    -0.343655689940    12.000000000000
         C            7.364858601658    -1.470318137615    -0.343885866633    12.000000000000
         H           -9.528310134550     1.276861977183    -0.347082372796     1.007825032230
         H            9.541406811874     1.174587016435    -0.346444102463     1.007825032230
         C           -7.369842072500    -2.779530617943    -0.341254392621    12.000000000000
         C           -4.924603271782    -2.808422729350    -0.348986025057    12.000000000000
         C           -6.166626658399    -3.516637664835    -0.342684184898    12.000000000000
         C           -3.702514522437    -3.524667021130    -0.338661955871    12.000000000000
         C           -2.467651147846    -2.821311434813    -0.350706594228    12.000000000000
         C           -0.015137636839    -2.833127117409    -0.350425005719    12.000000000000
         C           -1.247126003958    -3.534717647572    -0.338861052310    12.000000000000
         C            1.209240906912    -3.547900150653    -0.336322022519    12.000000000000
         C            2.437331859423    -2.847627210185    -0.350461780830    12.000000000000
         C            4.894298181039    -2.861108440295    -0.349641040759    12.000000000000
         C            3.664611092309    -3.564205317541    -0.336761620818    12.000000000000
         C            6.128634852014    -3.582569529727    -0.343415778861    12.000000000000
         C            7.339668501964    -2.858398779380    -0.341900552779    12.000000000000
         H           -9.541453273991    -1.174548938674    -0.342119905076     1.007825032230
         H            9.528257705340    -1.276904545914    -0.342405882179     1.007825032230
         H           -8.315169206580    -3.318135325222    -0.337082164090     1.007825032230
         H            8.279150979760    -3.407126261903    -0.337560996796     1.007825032230
         C           -6.144998351434    -4.927632744793    -0.341358186838    12.000000000000
         C           -3.706787510729    -4.941247186127    -0.351179154926    12.000000000000
         C           -4.955594220733    -5.643479445504    -0.343212020281    12.000000000000
         C           -2.486125488958    -5.654771046419    -0.338239483881    12.000000000000
         C           -1.254062498212    -4.956107522011    -0.349415089867    12.000000000000
         C            1.201008411136    -4.969265860202    -0.348233965609    12.000000000000
         C           -0.030340837145    -5.669505775148    -0.340390765945    12.000000000000
         C            3.653745938597    -4.980729247424    -0.347475965861    12.000000000000
         C            2.425488533144    -5.681160107537    -0.338099035309    12.000000000000
         C            6.091961455079    -4.993243435396    -0.341121552187    12.000000000000
         C            4.894972281879    -5.696333892967    -0.342357748017    12.000000000000
         H           -7.089896550772    -5.466985314248    -0.336955425156     1.007825032230
         H            7.031051046468    -5.542644008342    -0.337541772424     1.007825032230
         C           -4.923549484930    -7.078806571687    -0.343766789186    12.000000000000
         C           -2.485346250970    -7.087713549939    -0.346276681622    12.000000000000
         C           -3.751690054511    -7.763932629646    -0.346082002696    12.000000000000
         C           -0.037953119720    -7.099450346479    -0.346060956474    12.000000000000
         C           -1.277960263133    -7.772889856676    -0.348045649236    12.000000000000
         C            2.409440157995    -7.114007484012    -0.345197755663    12.000000000000
         C            1.194745774421    -7.786170837572    -0.347350046545    12.000000000000
         C            4.847616889766    -7.131247582589    -0.342690941004    12.000000000000
         C            3.668467443144    -7.803773464953    -0.345039375367    12.000000000000
         H           -5.869944513148    -7.613816070051    -0.342222752320     1.007825032230
         H            5.788245462656    -7.676317661324    -0.341563821522     1.007825032230
         H           -3.753531102181    -8.851057041246    -0.347917917125     1.007825032230
         H           -1.284308568626    -8.860860864507    -0.352473033094     1.007825032230
         H            1.189217411964    -8.874146092599    -0.351442683235     1.007825032230
         H            3.658542452092    -8.890846106063    -0.346693916790     1.007825032230

  Running in c1 symmetry.

  Rotational constants: A =      0.00065  B =      0.00065  C =      0.00035 [cm^-1]
  Rotational constants: A =     19.42073  B =     19.41753  C =     10.55117 [MHz]
  Nuclear repulsion = 17480.767422244225600

  Charge       = -1
  Multiplicity = 1
  Electrons    = 642
  Nalpha       = 321
  Nbeta        = 321

  ==> Algorithm <==

  SCF Algorithm Type is DF.
  DIIS enabled.
  MOM disabled.
  Fractional occupation disabled.
  Guess Type is SAD.
  Energy threshold   = 1.00e-08
  Density threshold  = 1.00e-08
  Integral threshold = 1.00e-12

  ==> Primary Basis <==

  Basis Set: JUN-CC-PVDZ
    Blend: JUN-CC-PVDZ
    Number of shells: 880
    Number of basis functions: 1938
    Number of Cartesian functions: 2039
    Spherical Harmonics?: true
    Max angular momentum: 2

   => Loading Basis Set <=

    Name: (JUN-CC-PVDZ AUX)
    Role: JKFIT
    Keyword: DF_BASIS_SCF
    atoms 1                                                   entry B          line    90 file /opt/software/pc2/EB-SW/software/PSI4/1.9-foss-2022a/share/psi4/basis/jun-cc-pvdz-jkfit.gbs 
    atoms 2-5                                                 entry F          line   314 file /opt/software/pc2/EB-SW/software/PSI4/1.9-foss-2022a/share/psi4/basis/jun-cc-pvdz-jkfit.gbs 
    atoms 6-23, 30-42, 45-59, 62-78, 81-93, 98-108, 111-119   entry C          line   146 file /opt/software/pc2/EB-SW/software/PSI4/1.9-foss-2022a/share/psi4/basis/jun-cc-pvdz-jkfit.gbs 
    atoms 24-29, 43-44, 60-61, 79-80, 94-97, 109-110, 120-125 entry H          line    70 file /opt/software/pc2/EB-SW/software/PSI4/1.9-foss-2022a/share/psi4/basis/jun-cc-pvdz-jkfit.gbs 

  ==> Integral Setup <==

  ==> DiskDFJK: Density-Fitted J/K Matrices <==

    J tasked:                  Yes
    K tasked:                  Yes
    wK tasked:                  No
    OpenMP threads:             16
    Integrals threads:          16
    Memory [MiB]:            33617
    Algorithm:                Disk
    Integral Cache:           SAVE
    Schwarz Cutoff:          1E-12
    Fitting Condition:       1E-10

   => Auxiliary Basis Set <=

  Basis Set: (JUN-CC-PVDZ AUX)
    Blend: JUN-CC-PVDZ-JKFIT
    Number of shells: 2943
    Number of basis functions: 8531
    Number of Cartesian functions: 9791
    Spherical Harmonics?: true
    Max angular momentum: 3

  Minimum eigenvalue in the overlap matrix is 8.9690745499E-11.
  Reciprocal condition number of the overlap matrix is 3.8846612725E-12.
    Using canonical orthogonalization.
  Overall, 38 of 1938 possible MOs eliminated.


  ==> Pre-Iterations <==

  SCF Guess: Superposition of Atomic Densities via on-the-fly atomic UHF (no occupation information).

   -------------------------
    Irrep   Nso     Nmo    
   -------------------------
     A       1938    1900 
   -------------------------
    Total    1938    1900
   -------------------------

  ==> Iterations <==

                           Total Energy        Delta E     RMS |[F,P]|

   @DF-RHF iter SAD: -4085.01361998219636   -4.08501e+03   0.00000e+00 
   @DF-RHF iter   1: -4071.51396962526769    1.34997e+01   7.90738e-04 DIIS/ADIIS
   @DF-RHF iter   2: -4072.91542489413678   -1.40146e+00   3.10088e-04 DIIS/ADIIS
   @DF-RHF iter   3: -4073.08144496956447   -1.66020e-01   1.02646e-04 DIIS/ADIIS
   @DF-RHF iter   4: -4073.10354940970319   -2.21044e-02   3.76979e-05 DIIS
   @DF-RHF iter   5: -4073.10694556163708   -3.39615e-03   1.07176e-05 DIIS
   @DF-RHF iter   6: -4073.10738075537574   -4.35194e-04   4.23187e-06 DIIS
   @DF-RHF iter   7: -4073.10755871442507   -1.77959e-04   2.12519e-06 DIIS
   @DF-RHF iter   8: -4073.10761090032747   -5.21859e-05   1.17586e-06 DIIS
   @DF-RHF iter   9: -4073.10762668840289   -1.57881e-05   3.56047e-07 DIIS
   @DF-RHF iter  10: -4073.10762766922107   -9.80818e-07   1.79826e-07 DIIS
   @DF-RHF iter  11: -4073.10762784820281   -1.78982e-07   6.32133e-08 DIIS
   @DF-RHF iter  12: -4073.10762788298598   -3.47832e-08   3.32564e-08 DIIS
   @DF-RHF iter  13: -4073.10762789100772   -8.02174e-09   1.16292e-08 DIIS
   @DF-RHF iter  14: -4073.10762789195769   -9.49967e-10   5.78870e-09 DIIS
  Energy and wave function converged.


  ==> Post-Iterations <==

    Orbital Energies [Eh]
    ---------------------

    Doubly Occupied:                                                      

       1A    -26.072822     2A    -26.072730     3A    -26.072645  
       4A    -26.070426     5A    -11.202865     6A    -11.202861  
       7A    -11.202856     8A    -11.202852     9A    -11.202843  
      10A    -11.202842    11A    -11.202804    12A    -11.202799  
      13A    -11.202796    14A    -11.202795    15A    -11.202789  
      16A    -11.202785    17A    -11.202331    18A    -11.202311  
      19A    -11.202307    20A    -11.202254    21A    -11.202238  
      22A    -11.202233    23A    -11.199995    24A    -11.199985  
      25A    -11.199977    26A    -11.199896    27A    -11.199890  
      28A    -11.199840    29A    -11.199788    30A    -11.199719  
      31A    -11.199713    32A    -11.199608    33A    -11.199600  
      34A    -11.199567    35A    -11.198932    36A    -11.198918  
      37A    -11.198916    38A    -11.198902    39A    -11.198900  
      40A    -11.198897    41A    -11.198807    42A    -11.198784  
      43A    -11.198783    44A    -11.198725    45A    -11.198719  
      46A    -11.198687    47A    -11.198076    48A    -11.198041  
      49A    -11.198038    50A    -11.197962    51A    -11.197961  
      52A    -11.197908    53A    -11.197822    54A    -11.197768  
      55A    -11.197762    56A    -11.197686    57A    -11.197684  
      58A    -11.197649    59A    -11.197425    60A    -11.197421  
      61A    -11.197419    62A    -11.197419    63A    -11.197418  
      64A    -11.197417    65A    -11.197401    66A    -11.197375  
      67A    -11.197371    68A    -11.197306    69A    -11.197301  
      70A    -11.197251    71A    -11.196652    72A    -11.196546  
      73A    -11.196528    74A    -11.196332    75A    -11.196323  
      76A    -11.196217    77A    -11.195665    78A    -11.195406  
      79A    -11.195403    80A    -11.195150    81A    -11.195119  
      82A    -11.195062    83A    -11.195023    84A    -11.195021  
      85A    -11.195008    86A    -11.194959    87A    -11.194955  
      88A    -11.194940    89A    -11.194929    90A    -11.194927  
      91A    -11.194914    92A    -11.194866    93A    -11.194861  
      94A    -11.194848    95A    -11.194650    96A    -11.194372  
      97A    -11.194347    98A    -11.193505    99A    -11.193455  
     100A    -11.192989   101A     -7.544170   102A     -1.416056  
     103A     -1.356908   104A     -1.356745   105A     -1.355144  
     106A     -1.188751   107A     -1.176146   108A     -1.176142  
     109A     -1.158979   110A     -1.158972   111A     -1.151603  
     112A     -1.140731   113A     -1.134649   114A     -1.125002  
     115A     -1.124998   116A     -1.113750   117A     -1.113747  
     118A     -1.093143   119A     -1.093135   120A     -1.089855  
     121A     -1.085047   122A     -1.085044   123A     -1.067269  
     124A     -1.053490   125A     -1.052449   126A     -1.052296  
     127A     -1.049996   128A     -1.049981   129A     -1.027342  
     130A     -1.027326   131A     -1.017493   132A     -1.017491  
     133A     -1.005853   134A     -1.005823   135A     -1.002538  
     136A     -0.986205   137A     -0.986197   138A     -0.979757  
     139A     -0.979249   140A     -0.979247   141A     -0.963032  
     142A     -0.957616   143A     -0.957565   144A     -0.947124  
     145A     -0.945367   146A     -0.942924   147A     -0.938822  
     148A     -0.938775   149A     -0.932064   150A     -0.909633  
     151A     -0.909587   152A     -0.895855   153A     -0.895800  
     154A     -0.846820   155A     -0.846779   156A     -0.842839  
     157A     -0.842796   158A     -0.840747   159A     -0.829310  
     160A     -0.829250   161A     -0.827883   162A     -0.827842  
     163A     -0.827824   164A     -0.812740   165A     -0.811260  
     166A     -0.791987   167A     -0.786083   168A     -0.786064  
     169A     -0.783251   170A     -0.781624   171A     -0.774215  
     172A     -0.774202   173A     -0.769215   174A     -0.769212  
     175A     -0.725796   176A     -0.725780   177A     -0.721477  
     178A     -0.721457   179A     -0.721305   180A     -0.721285  
     181A     -0.720185   182A     -0.706484   183A     -0.698473  
     184A     -0.688961   185A     -0.674596   186A     -0.666579  
     187A     -0.666565   188A     -0.664296   189A     -0.664030  
     190A     -0.664010   191A     -0.656181   192A     -0.652192  
     193A     -0.652184   194A     -0.639861   195A     -0.639851  
     196A     -0.626416   197A     -0.626415   198A     -0.624285  
     199A     -0.622083   200A     -0.622072   201A     -0.618423  
     202A     -0.607273   203A     -0.594095   204A     -0.590978  
     205A     -0.590948   206A     -0.590133   207A     -0.588250  
     208A     -0.588235   209A     -0.580281   210A     -0.579703  
     211A     -0.579676   212A     -0.579609   213A     -0.575180  
     214A     -0.575149   215A     -0.568732   216A     -0.556112  
     217A     -0.556088   218A     -0.551442   219A     -0.549165  
     220A     -0.549161   221A     -0.538387   222A     -0.537392  
     223A     -0.537378   224A     -0.537304   225A     -0.535858  
     226A     -0.535834   227A     -0.535718   228A     -0.535705  
     229A     -0.534929   230A     -0.533658   231A     -0.533575  
     232A     -0.533148   233A     -0.530958   234A     -0.530944  
     235A     -0.530939   236A     -0.525039   237A     -0.519718  
     238A     -0.519707   239A     -0.514148   240A     -0.514141  
     241A     -0.513710   242A     -0.507774   243A     -0.507764  
     244A     -0.505526   245A     -0.505486   246A     -0.504712  
     247A     -0.502779   248A     -0.499851   249A     -0.497730  
     250A     -0.497710   251A     -0.493585   252A     -0.490457  
     253A     -0.489902   254A     -0.483428   255A     -0.473931  
     256A     -0.473923   257A     -0.471148   258A     -0.471124  
     259A     -0.468377   260A     -0.468359   261A     -0.465734  
     262A     -0.456509   263A     -0.456479   264A     -0.455654  
     265A     -0.455648   266A     -0.452393   267A     -0.452349  
     268A     -0.450460   269A     -0.450442   270A     -0.437681  
     271A     -0.435711   272A     -0.435681   273A     -0.430950  
     274A     -0.430932   275A     -0.425785   276A     -0.422243  
     277A     -0.418169   278A     -0.418166   279A     -0.414093  
     280A     -0.413561   281A     -0.413481   282A     -0.413433  
     283A     -0.407699   284A     -0.405659   285A     -0.405651  
     286A     -0.397446   287A     -0.390549   288A     -0.389768  
     289A     -0.389707   290A     -0.383594   291A     -0.383534  
     292A     -0.378515   293A     -0.377622   294A     -0.377570  
     295A     -0.375930   296A     -0.374705   297A     -0.346138  
     298A     -0.346115   299A     -0.326922   300A     -0.326919  
     301A     -0.324005   302A     -0.323955   303A     -0.320641  
     304A     -0.293568   305A     -0.293551   306A     -0.289611  
     307A     -0.273940   308A     -0.273936   309A     -0.273209  
     310A     -0.269753   311A     -0.269673   312A     -0.244516  
     313A     -0.240550   314A     -0.239050   315A     -0.238991  
     316A     -0.225841   317A     -0.198713   318A     -0.190827  
     319A     -0.190770   320A     -0.143573   321A     -0.143487  

    Virtual:                                                              

     322A      0.048826   323A      0.048907   324A      0.091357  
     325A      0.091583   326A      0.091600   327A      0.093980  
     328A      0.093995   329A      0.096801   330A      0.097342  
     331A      0.097415   332A      0.099355   333A      0.101905  
     334A      0.107380   335A      0.107391   336A      0.118677  
     337A      0.118683   338A      0.125074   339A      0.127240  
     340A      0.127724   341A      0.131952   342A      0.132062  
     343A      0.132992   344A      0.133332   345A      0.134328  
     346A      0.134787   347A      0.135232   348A      0.135414  
     349A      0.135552   350A      0.139456   351A      0.139478  
     352A      0.142937   353A      0.145212   354A      0.145426  
     355A      0.145458   356A      0.146320   357A      0.146365  
     358A      0.152775   359A      0.157260   360A      0.157277  
     361A      0.157835   362A      0.160544   363A      0.160587  
     364A      0.160832   365A      0.162835   366A      0.164499  
     367A      0.164663   368A      0.166549   369A      0.167397  
     370A      0.168665   371A      0.168763   372A      0.169447  
     373A      0.169595   374A      0.173633   375A      0.175852  
     376A      0.175889   377A      0.178438   378A      0.178483  
     379A      0.180998   380A      0.183065   381A      0.183073  
     382A      0.186630   383A      0.187025   384A      0.190637  
     385A      0.190855   386A      0.194926   387A      0.194945  
     388A      0.196366   389A      0.197350   390A      0.197510  
     391A      0.200158   392A      0.200248   393A      0.206870  
     394A      0.210748   395A      0.211296   396A      0.211387  
     397A      0.212255   398A      0.213430   399A      0.214078  
     400A      0.214699   401A      0.214960   402A      0.215077  
     403A      0.219185   404A      0.219297   405A      0.219938  
     406A      0.219972   407A      0.220773   408A      0.221185  
     409A      0.221230   410A      0.223399   411A      0.223831  
     412A      0.230176   413A      0.231470   414A      0.233616  
     415A      0.233624   416A      0.235000   417A      0.238543  
     418A      0.238643   419A      0.239392   420A      0.239835  
     421A      0.239983   422A      0.243245   423A      0.246737  
     424A      0.247102   425A      0.249168   426A      0.249341  
     427A      0.252295   428A      0.252728   429A      0.253563  
     430A      0.255090   431A      0.255237   432A      0.255409  
     433A      0.255742   434A      0.255886   435A      0.259319  
     436A      0.259913   437A      0.259995   438A      0.265773  
     439A      0.265812   440A      0.267240   441A      0.267657  
     442A      0.267805   443A      0.268429   444A      0.268487  
     445A      0.269098   446A      0.270189   447A      0.270263  
     448A      0.270981   449A      0.271085   450A      0.272182  
     451A      0.272383   452A      0.274373   453A      0.274410  
     454A      0.280314   455A      0.281075   456A      0.281840  
     457A      0.281993   458A      0.282234   459A      0.284918  
     460A      0.286039   461A      0.287632   462A      0.287856  
     463A      0.287890   464A      0.289016   465A      0.290568  
     466A      0.290590   467A      0.291976   468A      0.293154  
     469A      0.293230   470A      0.300589   471A      0.300979  
     472A      0.301775   473A      0.302876   474A      0.304685  
     475A      0.306999   476A      0.310644   477A      0.311423  
     478A      0.311941   479A      0.312011   480A      0.313193  
     481A      0.313479   482A      0.314430   483A      0.316262  
     484A      0.316293   485A      0.316506   486A      0.319408  
     487A      0.320332   488A      0.320395   489A      0.321750  
     490A      0.321963   491A      0.323486   492A      0.325825  
     493A      0.325854   494A      0.326602   495A      0.326728  
     496A      0.333397   497A      0.333454   498A      0.334747  
     499A      0.335351   500A      0.335471   501A      0.337874  
     502A      0.338146   503A      0.338173   504A      0.342251  
     505A      0.342407   506A      0.342627   507A      0.342770  
     508A      0.344907   509A      0.346689   510A      0.349077  
     511A      0.354186   512A      0.354244   513A      0.354774  
     514A      0.354924   515A      0.356554   516A      0.357796  
     517A      0.360529   518A      0.360741   519A      0.361570  
     520A      0.361668   521A      0.363191   522A      0.363421  
     523A      0.363472   524A      0.364681   525A      0.365054  
     526A      0.366594   527A      0.366719   528A      0.367161  
     529A      0.370273   530A      0.370518   531A      0.370633  
     532A      0.371478   533A      0.371501   534A      0.374991  
     535A      0.375756   536A      0.375927   537A      0.379760  
     538A      0.380266   539A      0.380378   540A      0.382009  
     541A      0.382140   542A      0.384719   543A      0.384794  
     544A      0.385528   545A      0.385693   546A      0.385829  
     547A      0.385928   548A      0.386786   549A      0.389802  
     550A      0.389957   551A      0.391865   552A      0.393804  
     553A      0.393886   554A      0.395972   555A      0.397533  
     556A      0.397569   557A      0.399247   558A      0.399308  
     559A      0.400933   560A      0.401000   561A      0.403074  
     562A      0.405842   563A      0.409266   564A      0.411241  
     565A      0.412404   566A      0.412847   567A      0.413729  
     568A      0.415634   569A      0.415902   570A      0.417973  
     571A      0.418546   572A      0.418634   573A      0.421080  
     574A      0.421667   575A      0.422116   576A      0.423934  
     577A      0.424042   578A      0.426916   579A      0.428606  
     580A      0.429059   581A      0.429507   582A      0.429689  
     583A      0.429847   584A      0.433783   585A      0.433803  
     586A      0.438197   587A      0.438739   588A      0.438748  
     589A      0.439653   590A      0.439830   591A      0.444065  
     592A      0.444223   593A      0.445725   594A      0.446008  
     595A      0.446142   596A      0.448971   597A      0.448998  
     598A      0.449185   599A      0.453052   600A      0.453423  
     601A      0.453529   602A      0.454009   603A      0.454104  
     604A      0.456158   605A      0.456270   606A      0.456751  
     607A      0.458067   608A      0.459463   609A      0.459664  
     610A      0.460231   611A      0.460280   612A      0.461577  
     613A      0.462018   614A      0.464999   615A      0.466062  
     616A      0.466196   617A      0.466446   618A      0.466657  
     619A      0.467343   620A      0.467661   621A      0.469395  
     622A      0.469523   623A      0.469744   624A      0.469931  
     625A      0.471936   626A      0.472030   627A      0.475576  
     628A      0.475642   629A      0.476163   630A      0.476447  
     631A      0.477076   632A      0.478126   633A      0.479602  
     634A      0.481202   635A      0.481235   636A      0.481950  
     637A      0.481968   638A      0.483035   639A      0.484292  
     640A      0.485222   641A      0.485572   642A      0.487355  
     643A      0.487900   644A      0.489849   645A      0.491674  
     646A      0.492330   647A      0.493024   648A      0.493159  
     649A      0.493339   650A      0.494628   651A      0.494889  
     652A      0.496216   653A      0.496343   654A      0.496892  
     655A      0.497006   656A      0.498250   657A      0.498629  
     658A      0.499830   659A      0.499920   660A      0.503352  
     661A      0.506512   662A      0.506548   663A      0.508384  
     664A      0.508506   665A      0.511308   666A      0.511334  
     667A      0.512245   668A      0.512301   669A      0.514972  
     670A      0.515069   671A      0.515257   672A      0.516202  
     673A      0.518772   674A      0.519719   675A      0.520178  
     676A      0.521370   677A      0.523925   678A      0.524818  
     679A      0.524900   680A      0.526721   681A      0.526974  
     682A      0.528344   683A      0.528616   684A      0.529832  
     685A      0.531285   686A      0.532909   687A      0.535089  
     688A      0.535260   689A      0.537318   690A      0.537479  
     691A      0.537891   692A      0.538035   693A      0.540083  
     694A      0.541582   695A      0.542103   696A      0.542967  
     697A      0.543155   698A      0.544569   699A      0.544961  
     700A      0.545600   701A      0.546305   702A      0.549888  
     703A      0.550940   704A      0.551360   705A      0.552662  
     706A      0.552895   707A      0.553007   708A      0.553699  
     709A      0.555381   710A      0.556026   711A      0.556151  
     712A      0.557057   713A      0.558141   714A      0.559852  
     715A      0.560010   716A      0.561082   717A      0.561106  
     718A      0.566690   719A      0.567819   720A      0.568008  
     721A      0.569115   722A      0.569694   723A      0.571339  
     724A      0.572059   725A      0.576085   726A      0.577625  
     727A      0.578248   728A      0.578293   729A      0.579516  
     730A      0.581026   731A      0.581568   732A      0.585904  
     733A      0.586759   734A      0.586865   735A      0.588482  
     736A      0.591896   737A      0.592886   738A      0.593222  
     739A      0.593551   740A      0.596086   741A      0.596203  
     742A      0.596363   743A      0.597722   744A      0.598229  
     745A      0.599004   746A      0.602715   747A      0.605324  
     748A      0.607162   749A      0.608800   750A      0.609342  
     751A      0.614679   752A      0.614964   753A      0.620367  
     754A      0.620742   755A      0.622654   756A      0.624438  
     757A      0.625065   758A      0.625208   759A      0.626543  
     760A      0.626697   761A      0.630246   762A      0.630435  
     763A      0.632978   764A      0.635212   765A      0.635368  
     766A      0.640762   767A      0.643556   768A      0.643793  
     769A      0.645930   770A      0.647510   771A      0.647839  
     772A      0.648491   773A      0.649094   774A      0.649596  
     775A      0.651567   776A      0.656937   777A      0.657580  
     778A      0.657693   779A      0.660802   780A      0.661088  
     781A      0.662185   782A      0.663650   783A      0.666859  
     784A      0.667024   785A      0.669298   786A      0.671405  
     787A      0.674296   788A      0.674702   789A      0.678622  
     790A      0.681314   791A      0.681478   792A      0.682533  
     793A      0.685530   794A      0.686757   795A      0.686959  
     796A      0.690487   797A      0.692192   798A      0.694159  
     799A      0.696392   800A      0.698469   801A      0.699424  
     802A      0.704004   803A      0.707259   804A      0.707951  
     805A      0.708148   806A      0.716569   807A      0.717102  
     808A      0.721333   809A      0.722267   810A      0.722368  
     811A      0.722851   812A      0.722920   813A      0.726493  
     814A      0.730537   815A      0.732911   816A      0.733425  
     817A      0.739188   818A      0.739477   819A      0.739656  
     820A      0.744840   821A      0.749166   822A      0.749435  
     823A      0.750666   824A      0.750768   825A      0.752815  
     826A      0.755973   827A      0.755982   828A      0.758069  
     829A      0.761065   830A      0.767335   831A      0.768204  
     832A      0.768378   833A      0.774936   834A      0.775159  
     835A      0.776996   836A      0.778741   837A      0.780085  
     838A      0.784335   839A      0.785155   840A      0.791381  
     841A      0.791773   842A      0.795619   843A      0.798085  
     844A      0.800161   845A      0.802352   846A      0.803911  
     847A      0.804904   848A      0.808217   849A      0.813267  
     850A      0.814140   851A      0.814320   852A      0.814741  
     853A      0.816139   854A      0.834772   855A      0.834828  
     856A      0.845189   857A      0.848988   858A      0.849023  
     859A      0.850906   860A      0.853217   861A      0.854686  
     862A      0.857543   863A      0.860755   864A      0.861493  
     865A      0.863204   866A      0.865010   867A      0.866101  
     868A      0.871417   869A      0.872507   870A      0.874181  
     871A      0.874786   872A      0.875379   873A      0.875651  
     874A      0.877841   875A      0.878048   876A      0.886793  
     877A      0.887909   878A      0.888929   879A      0.895073  
     880A      0.895907   881A      0.896518   882A      0.897249  
     883A      0.903152   884A      0.904813   885A      0.905187  
     886A      0.905988   887A      0.909395   888A      0.911343  
     889A      0.912271   890A      0.915668   891A      0.916636  
     892A      0.918256   893A      0.919346   894A      0.921444  
     895A      0.921655   896A      0.925893   897A      0.926149  
     898A      0.928046   899A      0.929327   900A      0.929739  
     901A      0.932262   902A      0.933979   903A      0.935819  
     904A      0.936039   905A      0.937712   906A      0.939128  
     907A      0.940121   908A      0.942498   909A      0.943817  
     910A      0.944337   911A      0.946789   912A      0.949846  
     913A      0.950434   914A      0.952770   915A      0.955864  
     916A      0.957139   917A      0.957313   918A      0.958943  
     919A      0.962382   920A      0.964701   921A      0.965122  
     922A      0.970521   923A      0.971555   924A      0.971795  
     925A      0.972069   926A      0.974048   927A      0.977225  
     928A      0.978232   929A      0.980371   930A      0.980748  
     931A      0.981468   932A      0.982670   933A      0.986111  
     934A      0.986676   935A      0.988443   936A      0.990821  
     937A      0.991609   938A      0.992999   939A      0.993583  
     940A      0.994177   941A      0.996553   942A      0.998073  
     943A      1.001458   944A      1.003538   945A      1.006427  
     946A      1.007006   947A      1.007626   948A      1.009203  
     949A      1.009454   950A      1.009660   951A      1.011039  
     952A      1.013484   953A      1.014823   954A      1.015182  
     955A      1.015342   956A      1.015704   957A      1.019908  
     958A      1.020425   959A      1.023981   960A      1.024174  
     961A      1.030362   962A      1.030556   963A      1.033860  
     964A      1.036605   965A      1.041743   966A      1.043196  
     967A      1.044778   968A      1.049768   969A      1.050349  
     970A      1.051666   971A      1.054193   972A      1.054229  
     973A      1.058012   974A      1.062358   975A      1.063625  
     976A      1.063784   977A      1.064729   978A      1.065437  
     979A      1.065573   980A      1.068584   981A      1.073395  
     982A      1.074233   983A      1.074473   984A      1.075120  
     985A      1.077230   986A      1.080211   987A      1.080312  
     988A      1.080439   989A      1.086868   990A      1.088259  
     991A      1.089561   992A      1.089803   993A      1.095030  
     994A      1.095489   995A      1.098076   996A      1.099592  
     997A      1.100190   998A      1.105825   999A      1.105925  
    1000A      1.107340  1001A      1.107779  1002A      1.108681  
    1003A      1.109389  1004A      1.109645  1005A      1.111682  
    1006A      1.111955  1007A      1.112106  1008A      1.114452  
    1009A      1.114696  1010A      1.118634  1011A      1.118740  
    1012A      1.119872  1013A      1.121692  1014A      1.122449  
    1015A      1.123484  1016A      1.125637  1017A      1.126575  
    1018A      1.129372  1019A      1.129940  1020A      1.130659  
    1021A      1.130991  1022A      1.131995  1023A      1.132598  
    1024A      1.133373  1025A      1.135200  1026A      1.135895  
    1027A      1.136783  1028A      1.137170  1029A      1.138044  
    1030A      1.138311  1031A      1.138567  1032A      1.140651  
    1033A      1.140868  1034A      1.141359  1035A      1.141664  
    1036A      1.142057  1037A      1.142962  1038A      1.143951  
    1039A      1.144195  1040A      1.145622  1041A      1.145946  
    1042A      1.147295  1043A      1.147660  1044A      1.149087  
    1045A      1.150614  1046A      1.150829  1047A      1.152919  
    1048A      1.153548  1049A      1.159248  1050A      1.159982  
    1051A      1.160722  1052A      1.161112  1053A      1.161870  
    1054A      1.163679  1055A      1.165447  1056A      1.166595  
    1057A      1.167369  1058A      1.167843  1059A      1.169467  
    1060A      1.170380  1061A      1.175586  1062A      1.176222  
    1063A      1.176997  1064A      1.178632  1065A      1.180125  
    1066A      1.184877  1067A      1.185790  1068A      1.187013  
    1069A      1.187222  1070A      1.192890  1071A      1.193651  
    1072A      1.194181  1073A      1.197793  1074A      1.199911  
    1075A      1.200357  1076A      1.200501  1077A      1.201732  
    1078A      1.203979  1079A      1.204496  1080A      1.206994  
    1081A      1.209555  1082A      1.211758  1083A      1.212850  
    1084A      1.213321  1085A      1.214015  1086A      1.214427  
    1087A      1.216408  1088A      1.217396  1089A      1.218780  
    1090A      1.219003  1091A      1.224835  1092A      1.227942  
    1093A      1.230854  1094A      1.232168  1095A      1.232333  
    1096A      1.234024  1097A      1.234539  1098A      1.243353  
    1099A      1.243930  1100A      1.245831  1101A      1.248337  
    1102A      1.249022  1103A      1.249237  1104A      1.252067  
    1105A      1.254435  1106A      1.255955  1107A      1.256181  
    1108A      1.263883  1109A      1.264025  1110A      1.266095  
    1111A      1.268243  1112A      1.269652  1113A      1.271678  
    1114A      1.272573  1115A      1.273538  1116A      1.274268  
    1117A      1.278403  1118A      1.278574  1119A      1.281432  
    1120A      1.281916  1121A      1.282321  1122A      1.283741  
    1123A      1.286153  1124A      1.295171  1125A      1.296360  
    1126A      1.306532  1127A      1.311931  1128A      1.312295  
    1129A      1.312856  1130A      1.313125  1131A      1.313765  
    1132A      1.319455  1133A      1.321936  1134A      1.322120  
    1135A      1.325471  1136A      1.327168  1137A      1.328047  
    1138A      1.332457  1139A      1.332784  1140A      1.341685  
    1141A      1.341829  1142A      1.343414  1143A      1.347413  
    1144A      1.349050  1145A      1.349858  1146A      1.351640  
    1147A      1.351930  1148A      1.354594  1149A      1.354817  
    1150A      1.356946  1151A      1.359165  1152A      1.363074  
    1153A      1.363785  1154A      1.363918  1155A      1.364384  
    1156A      1.371941  1157A      1.373191  1158A      1.374128  
    1159A      1.376358  1160A      1.376806  1161A      1.378096  
    1162A      1.378812  1163A      1.380777  1164A      1.383282  
    1165A      1.385633  1166A      1.386533  1167A      1.386622  
    1168A      1.389531  1169A      1.390185  1170A      1.394146  
    1171A      1.394355  1172A      1.395162  1173A      1.396850  
    1174A      1.401424  1175A      1.401648  1176A      1.412610  
    1177A      1.416610  1178A      1.416698  1179A      1.417185  
    1180A      1.417680  1181A      1.420498  1182A      1.420683  
    1183A      1.422881  1184A      1.423566  1185A      1.423762  
    1186A      1.429013  1187A      1.432643  1188A      1.432911  
    1189A      1.434660  1190A      1.435804  1191A      1.438941  
    1192A      1.447702  1193A      1.447754  1194A      1.448183  
    1195A      1.451900  1196A      1.452476  1197A      1.455679  
    1198A      1.455960  1199A      1.457109  1200A      1.466478  
    1201A      1.468648  1202A      1.468919  1203A      1.470110  
    1204A      1.470474  1205A      1.470783  1206A      1.471111  
    1207A      1.476543  1208A      1.477038  1209A      1.479551  
    1210A      1.483151  1211A      1.483391  1212A      1.487674  
    1213A      1.487897  1214A      1.489692  1215A      1.490214  
    1216A      1.492721  1217A      1.493196  1218A      1.496741  
    1219A      1.496875  1220A      1.498919  1221A      1.499068  
    1222A      1.503372  1223A      1.503760  1224A      1.504887  
    1225A      1.512759  1226A      1.514005  1227A      1.514158  
    1228A      1.516863  1229A      1.516946  1230A      1.517590  
    1231A      1.521624  1232A      1.528065  1233A      1.528991  
    1234A      1.533562  1235A      1.533955  1236A      1.534103  
    1237A      1.534571  1238A      1.535635  1239A      1.535896  
    1240A      1.544225  1241A      1.545366  1242A      1.546040  
    1243A      1.546548  1244A      1.553688  1245A      1.559324  
    1246A      1.559606  1247A      1.563025  1248A      1.567858  
    1249A      1.568951  1250A      1.569644  1251A      1.579419  
    1252A      1.580237  1253A      1.598554  1254A      1.598675  
    1255A      1.601402  1256A      1.607422  1257A      1.616037  
    1258A      1.616088  1259A      1.647210  1260A      1.653942  
    1261A      1.654291  1262A      1.655977  1263A      1.662804  
    1264A      1.666630  1265A      1.668049  1266A      1.669451  
    1267A      1.669848  1268A      1.670555  1269A      1.671974  
    1270A      1.673410  1271A      1.674200  1272A      1.676037  
    1273A      1.676689  1274A      1.678333  1275A      1.679390  
    1276A      1.679595  1277A      1.680216  1278A      1.682150  
    1279A      1.683509  1280A      1.684446  1281A      1.686418  
    1282A      1.687331  1283A      1.689185  1284A      1.689557  
    1285A      1.691745  1286A      1.694149  1287A      1.695037  
    1288A      1.697483  1289A      1.698456  1290A      1.700069  
    1291A      1.700842  1292A      1.701624  1293A      1.701819  
    1294A      1.702149  1295A      1.702980  1296A      1.703284  
    1297A      1.703972  1298A      1.704268  1299A      1.705783  
    1300A      1.710413  1301A      1.712014  1302A      1.712390  
    1303A      1.716594  1304A      1.716791  1305A      1.717170  
    1306A      1.718245  1307A      1.727826  1308A      1.728386  
    1309A      1.731103  1310A      1.731227  1311A      1.731565  
    1312A      1.732813  1313A      1.733071  1314A      1.735089  
    1315A      1.736235  1316A      1.737257  1317A      1.740945  
    1318A      1.741519  1319A      1.748374  1320A      1.750433  
    1321A      1.754899  1322A      1.755247  1323A      1.758651  
    1324A      1.758726  1325A      1.759534  1326A      1.761465  
    1327A      1.768626  1328A      1.768690  1329A      1.771704  
    1330A      1.775372  1331A      1.775497  1332A      1.776356  
    1333A      1.779460  1334A      1.781439  1335A      1.784522  
    1336A      1.785034  1337A      1.786939  1338A      1.786976  
    1339A      1.790979  1340A      1.798081  1341A      1.808160  
    1342A      1.808328  1343A      1.809541  1344A      1.809786  
    1345A      1.811259  1346A      1.825338  1347A      1.827130  
    1348A      1.827775  1349A      1.840795  1350A      1.842499  
    1351A      1.844551  1352A      1.845229  1353A      1.866827  
    1354A      1.867044  1355A      1.870539  1356A      1.879098  
    1357A      1.883438  1358A      1.886094  1359A      1.886316  
    1360A      1.887197  1361A      1.887829  1362A      1.888012  
    1363A      1.893147  1364A      1.893593  1365A      1.894700  
    1366A      1.899248  1367A      1.900215  1368A      1.900915  
    1369A      1.902871  1370A      1.908598  1371A      1.909747  
    1372A      1.913983  1373A      1.914109  1374A      1.920651  
    1375A      1.921228  1376A      1.925075  1377A      1.925086  
    1378A      1.927104  1379A      1.927161  1380A      1.930367  
    1381A      1.930647  1382A      1.931334  1383A      1.931826  
    1384A      1.933126  1385A      1.939242  1386A      1.939705  
    1387A      1.941318  1388A      1.942697  1389A      1.944468  
    1390A      1.945014  1391A      1.946467  1392A      1.947874  
    1393A      1.951116  1394A      1.953521  1395A      1.962812  
    1396A      1.962902  1397A      1.965292  1398A      1.965628  
    1399A      1.970554  1400A      1.971164  1401A      1.975651  
    1402A      1.976632  1403A      1.983159  1404A      1.983355  
    1405A      1.983635  1406A      1.984952  1407A      1.985422  
    1408A      1.987286  1409A      1.991395  1410A      1.991806  
    1411A      1.996303  1412A      1.996947  1413A      1.997007  
    1414A      1.997503  1415A      1.998924  1416A      2.001295  
    1417A      2.002192  1418A      2.003524  1419A      2.003973  
    1420A      2.009547  1421A      2.010344  1422A      2.011804  
    1423A      2.015860  1424A      2.016434  1425A      2.020190  
    1426A      2.020649  1427A      2.020793  1428A      2.021815  
    1429A      2.023488  1430A      2.026530  1431A      2.026732  
    1432A      2.027900  1433A      2.030272  1434A      2.032127  
    1435A      2.033618  1436A      2.034752  1437A      2.037709  
    1438A      2.044532  1439A      2.044854  1440A      2.045227  
    1441A      2.047843  1442A      2.048687  1443A      2.049067  
    1444A      2.049262  1445A      2.056143  1446A      2.056964  
    1447A      2.064008  1448A      2.064177  1449A      2.065198  
    1450A      2.068134  1451A      2.070962  1452A      2.072226  
    1453A      2.075783  1454A      2.076654  1455A      2.077440  
    1456A      2.077676  1457A      2.080943  1458A      2.082225  
    1459A      2.083635  1460A      2.084237  1461A      2.085134  
    1462A      2.088478  1463A      2.088781  1464A      2.090204  
    1465A      2.092148  1466A      2.094007  1467A      2.094836  
    1468A      2.096582  1469A      2.097380  1470A      2.100131  
    1471A      2.101040  1472A      2.108667  1473A      2.111596  
    1474A      2.114752  1475A      2.117349  1476A      2.117706  
    1477A      2.117979  1478A      2.122325  1479A      2.122901  
    1480A      2.124688  1481A      2.125499  1482A      2.128014  
    1483A      2.130245  1484A      2.131051  1485A      2.131336  
    1486A      2.132173  1487A      2.138364  1488A      2.139049  
    1489A      2.140718  1490A      2.141358  1491A      2.142072  
    1492A      2.142982  1493A      2.143618  1494A      2.146162  
    1495A      2.146518  1496A      2.146992  1497A      2.148453  
    1498A      2.148571  1499A      2.149833  1500A      2.150414  
    1501A      2.151329  1502A      2.153207  1503A      2.153263  
    1504A      2.155099  1505A      2.158948  1506A      2.159212  
    1507A      2.160767  1508A      2.161292  1509A      2.162436  
    1510A      2.163583  1511A      2.165050  1512A      2.169825  
    1513A      2.171135  1514A      2.173248  1515A      2.174213  
    1516A      2.176003  1517A      2.176650  1518A      2.177547  
    1519A      2.177960  1520A      2.178790  1521A      2.179681  
    1522A      2.181797  1523A      2.187322  1524A      2.187515  
    1525A      2.187791  1526A      2.189496  1527A      2.189958  
    1528A      2.190914  1529A      2.193135  1530A      2.195224  
    1531A      2.198068  1532A      2.198272  1533A      2.202221  
    1534A      2.202839  1535A      2.203075  1536A      2.204905  
    1537A      2.205618  1538A      2.206143  1539A      2.210891  
    1540A      2.216048  1541A      2.216901  1542A      2.218542  
    1543A      2.219563  1544A      2.220711  1545A      2.220954  
    1546A      2.221238  1547A      2.221736  1548A      2.223278  
    1549A      2.224461  1550A      2.231946  1551A      2.232422  
    1552A      2.237198  1553A      2.237604  1554A      2.239039  
    1555A      2.241445  1556A      2.242550  1557A      2.242856  
    1558A      2.252312  1559A      2.255560  1560A      2.255856  
    1561A      2.256217  1562A      2.257819  1563A      2.259072  
    1564A      2.260229  1565A      2.260748  1566A      2.261551  
    1567A      2.262497  1568A      2.265094  1569A      2.266072  
    1570A      2.267531  1571A      2.268408  1572A      2.269089  
    1573A      2.269966  1574A      2.275503  1575A      2.276581  
    1576A      2.278015  1577A      2.281864  1578A      2.282112  
    1579A      2.282342  1580A      2.283917  1581A      2.287251  
    1582A      2.287958  1583A      2.288955  1584A      2.289658  
    1585A      2.291789  1586A      2.293075  1587A      2.300779  
    1588A      2.302317  1589A      2.303223  1590A      2.305727  
    1591A      2.306028  1592A      2.306476  1593A      2.316072  
    1594A      2.316944  1595A      2.318420  1596A      2.320542  
    1597A      2.324073  1598A      2.324608  1599A      2.326819  
    1600A      2.327050  1601A      2.340318  1602A      2.343107  
    1603A      2.345038  1604A      2.350092  1605A      2.350325  
    1606A      2.355416  1607A      2.359119  1608A      2.363574  
    1609A      2.363812  1610A      2.369507  1611A      2.384007  
    1612A      2.385403  1613A      2.385623  1614A      2.387185  
    1615A      2.388904  1616A      2.389951  1617A      2.390321  
    1618A      2.393177  1619A      2.395421  1620A      2.396519  
    1621A      2.397655  1622A      2.401061  1623A      2.402891  
    1624A      2.403174  1625A      2.404647  1626A      2.406122  
    1627A      2.406345  1628A      2.406620  1629A      2.413390  
    1630A      2.413633  1631A      2.433455  1632A      2.437802  
    1633A      2.438589  1634A      2.444083  1635A      2.448423  
    1636A      2.454174  1637A      2.455054  1638A      2.457438  
    1639A      2.460126  1640A      2.478791  1641A      2.480458  
    1642A      2.485319  1643A      2.487971  1644A      2.495103  
    1645A      2.502838  1646A      2.504368  1647A      2.514814  
    1648A      2.514925  1649A      2.524450  1650A      2.524770  
    1651A      2.527994  1652A      2.528377  1653A      2.531697  
    1654A      2.531979  1655A      2.550043  1656A      2.550382  
    1657A      2.557171  1658A      2.561176  1659A      2.565664  
    1660A      2.566321  1661A      2.569821  1662A      2.576159  
    1663A      2.600028  1664A      2.600550  1665A      2.600887  
    1666A      2.602312  1667A      2.602900  1668A      2.606176  
    1669A      2.606994  1670A      2.607910  1671A      2.610758  
    1672A      2.611755  1673A      2.619717  1674A      2.619903  
    1675A      2.625016  1676A      2.629620  1677A      2.631303  
    1678A      2.637954  1679A      2.641012  1680A      2.641508  
    1681A      2.645044  1682A      2.645861  1683A      2.646054  
    1684A      2.646275  1685A      2.650267  1686A      2.653227  
    1687A      2.660979  1688A      2.661282  1689A      2.672995  
    1690A      2.673202  1691A      2.673416  1692A      2.674012  
    1693A      2.677488  1694A      2.678219  1695A      2.693405  
    1696A      2.701172  1697A      2.701828  1698A      2.704265  
    1699A      2.706246  1700A      2.707142  1701A      2.710041  
    1702A      2.711107  1703A      2.711515  1704A      2.714987  
    1705A      2.715445  1706A      2.725995  1707A      2.727740  
    1708A      2.728820  1709A      2.729018  1710A      2.729500  
    1711A      2.735715  1712A      2.735964  1713A      2.736653  
    1714A      2.745231  1715A      2.747551  1716A      2.748586  
    1717A      2.752166  1718A      2.752313  1719A      2.752698  
    1720A      2.753354  1721A      2.756907  1722A      2.757971  
    1723A      2.766078  1724A      2.780261  1725A      2.789439  
    1726A      2.789977  1727A      2.790498  1728A      2.791550  
    1729A      2.791709  1730A      2.813410  1731A      2.824218  
    1732A      2.824709  1733A      2.837657  1734A      2.839773  
    1735A      2.842342  1736A      2.842588  1737A      2.861989  
    1738A      2.862278  1739A      2.864419  1740A      2.864467  
    1741A      2.866214  1742A      2.873968  1743A      2.876560  
    1744A      2.876851  1745A      2.877787  1746A      2.878618  
    1747A      2.881343  1748A      2.891885  1749A      2.892137  
    1750A      2.901670  1751A      2.903773  1752A      2.903881  
    1753A      2.904229  1754A      2.907089  1755A      2.927202  
    1756A      2.927594  1757A      2.928278  1758A      2.930919  
    1759A      2.931717  1760A      2.936123  1761A      2.960749  
    1762A      2.961576  1763A      2.975886  1764A      2.976075  
    1765A      2.981286  1766A      2.985492  1767A      2.988120  
    1768A      2.994340  1769A      2.994428  1770A      3.023667  
    1771A      3.023745  1772A      3.024248  1773A      3.026765  
    1774A      3.035579  1775A      3.040887  1776A      3.042120  
    1777A      3.055134  1778A      3.055491  1779A      3.090625  
    1780A      3.091419  1781A      3.094371  1782A      3.097558  
    1783A      3.106554  1784A      3.108637  1785A      3.109183  
    1786A      3.119077  1787A      3.119156  1788A      3.120274  
    1789A      3.133543  1790A      3.167007  1791A      3.171915  
    1792A      3.172187  1793A      3.182904  1794A      3.188840  
    1795A      3.188952  1796A      3.193676  1797A      3.195359  
    1798A      3.201325  1799A      3.202122  1800A      3.208095  
    1801A      3.208759  1802A      3.211173  1803A      3.211426  
    1804A      3.211781  1805A      3.220010  1806A      3.230876  
    1807A      3.231359  1808A      3.233826  1809A      3.233955  
    1810A      3.251763  1811A      3.252456  1812A      3.278006  
    1813A      3.300815  1814A      3.312598  1815A      3.317535  
    1816A      3.321817  1817A      3.323377  1818A      3.323848  
    1819A      3.325584  1820A      3.328477  1821A      3.331561  
    1822A      3.334849  1823A      3.335351  1824A      3.355478  
    1825A      3.358356  1826A      3.360144  1827A      3.365463  
    1828A      3.423915  1829A      3.424927  1830A      3.433671  
    1831A      3.479410  1832A      3.492919  1833A      3.496807  
    1834A      3.505819  1835A      3.513391  1836A      3.517296  
    1837A      3.527012  1838A      3.527650  1839A      3.531637  
    1840A      3.534678  1841A      3.537652  1842A      3.546670  
    1843A      3.551030  1844A      3.560623  1845A      3.571906  
    1846A      3.605143  1847A      3.636799  1848A      3.638587  
    1849A      3.647304  1850A      3.650844  1851A      3.702390  
    1852A      3.705778  1853A      3.727470  1854A      3.729406  
    1855A      3.767733  1856A      3.810134  1857A      3.811557  
    1858A      3.813519  1859A      3.827210  1860A      3.838481  
    1861A      3.847375  1862A      3.902459  1863A      3.904917  
    1864A      3.932248  1865A      3.935456  1866A      3.967401  
    1867A      3.975917  1868A      4.003513  1869A      4.006635  
    1870A      4.009586  1871A      4.010588  1872A      4.022602  
    1873A      4.031724  1874A      4.036117  1875A      4.088139  
    1876A      4.091163  1877A      4.137443  1878A      4.167704  
    1879A      4.170304  1880A      4.170392  1881A      4.197734  
    1882A      4.197876  1883A      4.197883  1884A      4.199823  
    1885A      4.199904  1886A      4.235355  1887A      4.240465  
    1888A      4.240783  1889A      4.299123  1890A      4.372191  
    1891A      4.444145  1892A      4.444549  1893A      4.446786  
    1894A      4.463746  1895A      4.649751  1896A      4.649896  
    1897A      4.659897  1898A      4.747896  1899A      4.782421  
    1900A      4.782726  

    Final Occupation by Irrep:
              A 
    DOCC [   321 ]
    NA   [   321 ]
    NB   [   321 ]

  @DF-RHF Final Energy: -4073.10762789195769

   => Energetics <=

    Nuclear Repulsion Energy =          17480.7674222442255996
    One-Electron Energy =              -40447.3394351129390998
    Two-Electron Energy =               18893.4643849767562642
    Total Energy =                      -4073.1076278919572360

Computation Completed


Properties will be evaluated at   0.000000,   0.000000,   0.000000 [a0]

Properties computed using the SCF density matrix


 Multipole Moments:

 ------------------------------------------------------------------------------------
     Multipole            Electronic (a.u.)      Nuclear  (a.u.)        Total (a.u.)
 ------------------------------------------------------------------------------------

 L = 1.  Multiply by 2.5417464519 to convert [e a0] to [Debye]
 Dipole X            :          0.0000146           -0.0000548           -0.0000402
 Dipole Y            :          0.0011183           -0.0002464            0.0008719
 Dipole Z            :         22.2230834          -29.7561148           -7.5330314
 Magnitude           :                                                    7.5330314

 ------------------------------------------------------------------------------------

*** tstop() called on n2cn0892 at Thu Jan 25 04:24:38 2024
Module time:
	user time   =   24369.10 seconds =     406.15 minutes
	system time =    1412.08 seconds =      23.53 minutes
	total time  =      20944 seconds =     349.07 minutes
Total time:
	user time   =   24369.10 seconds =     406.15 minutes
	system time =    1412.08 seconds =      23.53 minutes
	total time  =      20944 seconds =     349.07 minutes

  //>>>>>>>>>>>>>>>>>>>>>>>>>>>>>>>>>>>//
  //            Monomer A HF           //
  //<<<<<<<<<<<<<<<<<<<<<<<<<<<<<<<<<<<//

   => Libint2 <=

    Primary   basis highest AM E, G, H:  5, 4, 3
    Auxiliary basis highest AM E, G, H:  6, 5, 4
    Onebody   basis highest AM E, G, H:  6, 5, 4
    Solid Harmonics ordering:            gaussian

*** tstart() called on n2cn0892
*** at Thu Jan 25 04:24:38 2024

   => Loading Basis Set <=

    Name: JUN-CC-PVDZ
    Role: ORBITAL
    Keyword: BASIS
    atoms 1                                                   entry B          line   130 file /opt/software/pc2/EB-SW/software/PSI4/1.9-foss-2022a/share/psi4/basis/jun-cc-pvdz.gbs 
    atoms 2-5                                                 entry F          line   266 file /opt/software/pc2/EB-SW/software/PSI4/1.9-foss-2022a/share/psi4/basis/jun-cc-pvdz.gbs 
    atoms 6-23, 30-42, 45-59, 62-78, 81-93, 98-108, 111-119   entry C          line   164 file /opt/software/pc2/EB-SW/software/PSI4/1.9-foss-2022a/share/psi4/basis/jun-cc-pvdz.gbs 
    atoms 24-29, 43-44, 60-61, 79-80, 94-97, 109-110, 120-125 entry H          line    36 file /opt/software/pc2/EB-SW/software/PSI4/1.9-foss-2022a/share/psi4/basis/jun-cc-pvdz.gbs 


         ---------------------------------------------------------
                                   SCF
               by Justin Turney, Rob Parrish, Andy Simmonett
                          and Daniel G. A. Smith
                              RHF Reference
                       16 Threads,  44822 MiB Core
         ---------------------------------------------------------

  ==> Geometry <==

    Molecular point group: c1
    Full point group: C1

    Geometry (in Angstrom), charge = -1, multiplicity = 1:

       Center              X                  Y                   Z               Mass       
    ------------   -----------------  -----------------  -----------------  -----------------
         B           -0.000201921932     0.000288800891     4.655653264022    11.009305360000
         F           -0.000004162732     0.000014527991     6.068438264022    18.998403162730
         F            1.147855837268     0.675795727991     4.184512264022    18.998403162730
         F            0.011913897268    -1.331996472009     4.184714264022    18.998403162730
         F           -1.159670162732     0.656088027991     4.184793264022    18.998403162730
      Gh(C)          -3.668445426752     7.803766698073    -0.342480694642    12.000000000000
      Gh(C)          -4.847602882078     7.131256359331    -0.344847269575    12.000000000000
      Gh(C)          -4.894963461907     5.696344931522    -0.345420180673    12.000000000000
      Gh(C)          -3.653744841505     4.980744868950    -0.337759738943    12.000000000000
      Gh(C)          -2.409429284226     7.113995564665    -0.342286352382    12.000000000000
      Gh(C)          -2.425481506836     5.681136478894    -0.349291241252    12.000000000000
      Gh(C)          -1.194748179167     7.786158722300    -0.340814171840    12.000000000000
      Gh(C)           0.037954866205     7.099436173748    -0.342984876145    12.000000000000
      Gh(C)           0.030328424687     5.669504087695    -0.348468261061    12.000000000000
      Gh(C)          -1.200988670637     4.969284875906    -0.339498527127    12.000000000000
      Gh(C)           1.277953663083     7.772873971185    -0.341609027584    12.000000000000
      Gh(C)           2.485353921992     7.087711413228    -0.343883515489    12.000000000000
      Gh(C)           2.486124522185     5.654785338231    -0.350821264477    12.000000000000
      Gh(C)           1.254078756912     4.956092641655    -0.339193322889    12.000000000000
      Gh(C)           3.751710428674     7.763926678971    -0.343756664109    12.000000000000
      Gh(C)           4.923561893453     7.078795304981    -0.345813144817    12.000000000000
      Gh(C)           4.955603108594     5.643461991360    -0.345973557624    12.000000000000
      Gh(C)           3.706797371473     4.941224736324    -0.340881997454    12.000000000000
      Gh(H)          -3.658525300490     8.890841947126    -0.340795706392     1.007825032230
      Gh(H)          -1.189217492488     8.874135615351    -0.336842295399     1.007825032230
      Gh(H)           1.284290076155     8.860847963479    -0.337450203443     1.007825032230
      Gh(H)           3.753537924068     8.851049806963    -0.342234139793     1.007825032230
      Gh(H)           5.869954540475     7.613809362646    -0.346738511859     1.007825032230
      Gh(H)          -5.788235870234     7.676316740925    -0.346407116931     1.007825032230
[...]
    1498A      2.112430  1499A      2.113081  1500A      2.114601  
    1501A      2.114827  1502A      2.116499  1503A      2.117975  
    1504A      2.118588  1505A      2.120379  1506A      2.127167  
    1507A      2.127429  1508A      2.128021  1509A      2.128332  
    1510A      2.129075  1511A      2.129509  1512A      2.131786  
    1513A      2.132235  1514A      2.137802  1515A      2.138781  
    1516A      2.139172  1517A      2.143033  1518A      2.143323  
    1519A      2.143617  1520A      2.144261  1521A      2.144732  
    1522A      2.145787  1523A      2.155593  1524A      2.156208  
    1525A      2.158223  1526A      2.159299  1527A      2.159914  
    1528A      2.160511  1529A      2.160615  1530A      2.161409  
    1531A      2.162891  1532A      2.163552  1533A      2.171543  
    1534A      2.172000  1535A      2.180290  1536A      2.181246  
    1537A      2.181682  1538A      2.182649  1539A      2.189515  
    1540A      2.190350  1541A      2.191767  1542A      2.191895  
    1543A      2.193831  1544A      2.195444  1545A      2.197913  
    1546A      2.198917  1547A      2.200844  1548A      2.201152  
    1549A      2.201910  1550A      2.202051  1551A      2.205632  
    1552A      2.205749  1553A      2.206751  1554A      2.210896  
    1555A      2.213999  1556A      2.214319  1557A      2.220211  
    1558A      2.222504  1559A      2.222811  1560A      2.224815  
    1561A      2.225004  1562A      2.225274  1563A      2.228938  
    1564A      2.232047  1565A      2.232507  1566A      2.233692  
    1567A      2.238960  1568A      2.239128  1569A      2.239799  
    1570A      2.241987  1571A      2.247671  1572A      2.248192  
    1573A      2.251925  1574A      2.252704  1575A      2.261055  
    1576A      2.262425  1577A      2.264883  1578A      2.265554  
    1579A      2.267514  1580A      2.269695  1581A      2.277473  
    1582A      2.282999  1583A      2.284554  1584A      2.291126  
    1585A      2.291451  1586A      2.296601  1587A      2.296869  
    1588A      2.303996  1589A      2.304283  1590A      2.309348  
    1591A      2.319286  1592A      2.324924  1593A      2.325142  
    1594A      2.325388  1595A      2.327521  1596A      2.329662  
    1597A      2.330650  1598A      2.331315  1599A      2.333221  
    1600A      2.334916  1601A      2.335346  1602A      2.340116  
    1603A      2.341643  1604A      2.342265  1605A      2.342391  
    1606A      2.344981  1607A      2.345877  1608A      2.346366  
    1609A      2.349159  1610A      2.349502  1611A      2.368576  
    1612A      2.373103  1613A      2.373399  1614A      2.384169  
    1615A      2.388016  1616A      2.391954  1617A      2.392315  
    1618A      2.394776  1619A      2.397307  1620A      2.418519  
    1621A      2.419796  1622A      2.424071  1623A      2.427730  
    1624A      2.432264  1625A      2.442223  1626A      2.443761  
    1627A      2.452901  1628A      2.453152  1629A      2.464456  
    1630A      2.464676  1631A      2.467928  1632A      2.468208  
    1633A      2.471963  1634A      2.472218  1635A      2.491138  
    1636A      2.491480  1637A      2.495066  1638A      2.502059  
    1639A      2.506705  1640A      2.507634  1641A      2.511562  
    1642A      2.516317  1643A      2.539504  1644A      2.539702  
    1645A      2.540220  1646A      2.542250  1647A      2.542970  
    1648A      2.545169  1649A      2.547751  1650A      2.548879  
    1651A      2.549475  1652A      2.551578  1653A      2.556633  
    1654A      2.556787  1655A      2.564278  1656A      2.571395  
    1657A      2.571610  1658A      2.580191  1659A      2.583851  
    1660A      2.584361  1661A      2.585253  1662A      2.586374  
    1663A      2.588689  1664A      2.588996  1665A      2.593240  
    1666A      2.593582  1667A      2.601438  1668A      2.601656  
    1669A      2.613095  1670A      2.613561  1671A      2.613877  
    1672A      2.614076  1673A      2.617367  1674A      2.618095  
    1675A      2.632647  1676A      2.640757  1677A      2.641655  
    1678A      2.643913  1679A      2.645526  1680A      2.647939  
    1681A      2.648932  1682A      2.649555  1683A      2.653328  
    1684A      2.656044  1685A      2.656443  1686A      2.666100  
    1687A      2.666199  1688A      2.667649  1689A      2.670532  
    1690A      2.670668  1691A      2.673885  1692A      2.677551  
    1693A      2.677861  1694A      2.684722  1695A      2.686270  
    1696A      2.687556  1697A      2.691356  1698A      2.691633  
    1699A      2.691880  1700A      2.692831  1701A      2.696160  
    1702A      2.697351  1703A      2.704221  1704A      2.720936  
    1705A      2.730797  1706A      2.731033  1707A      2.731173  
    1708A      2.731615  1709A      2.732157  1710A      2.753057  
    1711A      2.760582  1712A      2.761051  1713A      2.773183  
    1714A      2.776136  1715A      2.780157  1716A      2.780561  
    1717A      2.799434  1718A      2.799983  1719A      2.802190  
    1720A      2.802273  1721A      2.802452  1722A      2.810445  
    1723A      2.812566  1724A      2.815158  1725A      2.815728  
    1726A      2.816417  1727A      2.816940  1728A      2.827848  
    1729A      2.828058  1730A      2.832736  1731A      2.840157  
    1732A      2.842350  1733A      2.842458  1734A      2.843160  
    1735A      2.846068  1736A      2.847578  1737A      2.848214  
    1738A      2.865295  1739A      2.865656  1740A      2.866403  
    1741A      2.870729  1742A      2.871506  1743A      2.875167  
    1744A      2.896010  1745A      2.896899  1746A      2.916470  
    1747A      2.917726  1748A      2.917922  1749A      2.927482  
    1750A      2.929926  1751A      2.935461  1752A      2.935472  
    1753A      2.963762  1754A      2.965190  1755A      2.965764  
    1756A      2.976341  1757A      2.992153  1758A      2.992895  
    1759A      3.029952  1760A      3.030629  1761A      3.035587  
    1762A      3.038735  1763A      3.047246  1764A      3.047921  
    1765A      3.048135  1766A      3.057670  1767A      3.057715  
    1768A      3.063916  1769A      3.072966  1770A      3.108705  
    1771A      3.113113  1772A      3.113450  1773A      3.122835  
    1774A      3.127622  1775A      3.127939  1776A      3.132906  
    1777A      3.134640  1778A      3.142466  1779A      3.143464  
    1780A      3.148891  1781A      3.149367  1782A      3.149629  
    1783A      3.150326  1784A      3.153675  1785A      3.162153  
    1786A      3.167946  1787A      3.173217  1788A      3.175379  
    1789A      3.175522  1790A      3.193216  1791A      3.193984  
    1792A      3.220186  1793A      3.253020  1794A      3.259735  
    1795A      3.261900  1796A      3.262212  1797A      3.262739  
    1798A      3.264748  1799A      3.268547  1800A      3.271602  
    1801A      3.275133  1802A      3.275643  1803A      3.294736  
    1804A      3.296819  1805A      3.298358  1806A      3.304564  
    1807A      3.361475  1808A      3.362549  1809A      3.370746  
    1810A      3.416263  1811A      3.430513  1812A      3.432935  
    1813A      3.437272  1814A      3.448114  1815A      3.451772  
    1816A      3.462978  1817A      3.464948  1818A      3.466706  
    1819A      3.471817  1820A      3.474551  1821A      3.482680  
    1822A      3.486498  1823A      3.496602  1824A      3.509269  
    1825A      3.540822  1826A      3.574401  1827A      3.576106  
    1828A      3.584587  1829A      3.590173  1830A      3.639015  
    1831A      3.642374  1832A      3.665892  1833A      3.667949  
    1834A      3.705400  1835A      3.748195  1836A      3.749832  
    1837A      3.751303  1838A      3.763102  1839A      3.778638  
    1840A      3.781881  1841A      3.842271  1842A      3.843816  
    1843A      3.871599  1844A      3.874722  1845A      3.905861  
    1846A      3.914248  1847A      3.938682  1848A      3.941392  
    1849A      3.948569  1850A      3.949522  1851A      3.959404  
    1852A      3.966118  1853A      3.971697  1854A      4.024743  
    1855A      4.027523  1856A      4.072499  1857A      4.228390  
    1858A      4.250108  1859A      4.275996  1860A      4.281906  
    1861A      4.308291  1862A      4.367996  1863A      4.395676  
    1864A      5.752702  1865A      5.752714  1866A      5.753486  
    1867A      5.758858  1868A      5.758978  1869A      5.763954  
    1870A      5.763975  1871A      5.764163  1872A      5.789670  
    1873A      5.791747  1874A      5.791813  1875A      6.023360  
    1876A      6.023702  1877A      6.024730  1878A      6.198402  
    1879A      6.329531  1880A      6.329828  1881A      6.381813  
    1882A      6.382191  1883A      6.386727  1884A      7.209411  
    1885A      7.211631  1886A      7.246350  1887A      7.246716  
    1888A      7.279619  1889A      7.299082  1890A      7.299892  
    1891A      7.383789  1892A      7.484755  1893A      7.528770  
    1894A      7.530022  1895A      7.675878  1896A     12.627731  
    1897A     42.919857  1898A     42.931079  1899A     42.931303  
    1900A     42.947914  

    Final Occupation by Irrep:
              A 
    DOCC [   300 ]
    NA   [   300 ]
    NB   [   300 ]

  @DF-RHF Final Energy: -3650.33869501583968

   => Energetics <=

    Nuclear Repulsion Energy =          15611.4211649754324753
    One-Electron Energy =              -36072.1130027528051869
    Two-Electron Energy =               16810.3531427615344001
    Total Energy =                      -3650.3386950158383115

Computation Completed


Properties will be evaluated at   0.000000,   0.000000,   0.000000 [a0]

Properties computed using the SCF density matrix


 Multipole Moments:

 ------------------------------------------------------------------------------------
     Multipole            Electronic (a.u.)      Nuclear  (a.u.)        Total (a.u.)
 ------------------------------------------------------------------------------------

 L = 1.  Multiply by 2.5417464519 to convert [e a0] to [Debye]
 Dipole X            :         -0.0007607            0.0002304           -0.0005303
 Dipole Y            :          0.0011500           -0.0013052           -0.0001552
 Dipole Z            :        390.4600198         -390.4677724           -0.0077526
 Magnitude           :                                                    0.0077723

 ------------------------------------------------------------------------------------

*** tstop() called on n2cn0892 at Thu Jan 25 07:42:56 2024
Module time:
	user time   =   17580.38 seconds =     293.01 minutes
	system time =     863.60 seconds =      14.39 minutes
	total time  =       6908 seconds =     115.13 minutes
Total time:
	user time   =   46179.55 seconds =     769.66 minutes
	system time =    2497.50 seconds =      41.62 minutes
	total time  =      32842 seconds =     547.37 minutes
  Constructing Basis Sets for SAPT...

   => Loading Basis Set <=

    Name: (JUN-CC-PVDZ AUX)
    Role: RIFIT
    Keyword: DF_BASIS_SAPT
    atoms 1                                                   entry B          line    56 file /opt/software/pc2/EB-SW/software/PSI4/1.9-foss-2022a/share/psi4/basis/jun-cc-pvdz-ri.gbs 
    atoms 2-5                                                 entry F          line   232 file /opt/software/pc2/EB-SW/software/PSI4/1.9-foss-2022a/share/psi4/basis/jun-cc-pvdz-ri.gbs 
    atoms 6-23, 30-42, 45-59, 62-78, 81-93, 98-108, 111-119   entry C          line   100 file /opt/software/pc2/EB-SW/software/PSI4/1.9-foss-2022a/share/psi4/basis/jun-cc-pvdz-ri.gbs 
    atoms 24-29, 43-44, 60-61, 79-80, 94-97, 109-110, 120-125 entry H          line    30 file /opt/software/pc2/EB-SW/software/PSI4/1.9-foss-2022a/share/psi4/basis/jun-cc-pvdz-ri.gbs 

   => Loading Basis Set <=

    Name: (JUN-CC-PVDZ AUX)
    Role: JKFIT
    Keyword: DF_BASIS_ELST
    atoms 1                                                   entry B          line    90 file /opt/software/pc2/EB-SW/software/PSI4/1.9-foss-2022a/share/psi4/basis/jun-cc-pvdz-jkfit.gbs 
    atoms 2-5                                                 entry F          line   314 file /opt/software/pc2/EB-SW/software/PSI4/1.9-foss-2022a/share/psi4/basis/jun-cc-pvdz-jkfit.gbs 
    atoms 6-23, 30-42, 45-59, 62-78, 81-93, 98-108, 111-119   entry C          line   146 file /opt/software/pc2/EB-SW/software/PSI4/1.9-foss-2022a/share/psi4/basis/jun-cc-pvdz-jkfit.gbs 
    atoms 24-29, 43-44, 60-61, 79-80, 94-97, 109-110, 120-125 entry H          line    70 file /opt/software/pc2/EB-SW/software/PSI4/1.9-foss-2022a/share/psi4/basis/jun-cc-pvdz-jkfit.gbs 


  //>>>>>>>>>>>>>>>>>>>>>>>>>>>>>>>>>>>//
  //               SSAPT0              //
  //<<<<<<<<<<<<<<<<<<<<<<<<<<<<<<<<<<<//


*** tstart() called on n2cn0892
*** at Thu Jan 25 07:42:57 2024

        SAPT0  
    Ed Hohenstein
     6 June 2009

      Orbital Information
  --------------------------
    NSO        =      1938
    NMO        =      1900
    NRI        =      6901
    NRI (Elst) =      8531
    NOCC A     =        21
    NOCC B     =       300
    FOCC A     =         5
    FOCC B     =        96
    NVIR A     =      1879
    NVIR B     =      1600

    Elst10,r            =     0.011200434423 [Eh]
    Exch10              =     0.000048356386 [Eh]
    Exch10 (S^2)        =     0.000048357833 [Eh]

    Iter     Energy [mEh]          dE [mEh]         Residual      Time [s]
       1      -0.01082983       0.010829835       0.523721040           937
       2      -0.01233614       0.001506310       0.250211231          1792
       3      -0.01270390       0.000367759       0.049591993          2518
       4      -0.01266889      -0.000035009       0.011728510          3024
       5      -0.01265851      -0.000010389       0.001671700          3766
       6      -0.01266030       0.000001792       0.000588469          4400
       7      -0.01266044       0.000000143       0.000142459          4887
       8      -0.01266031      -0.000000135       0.000029002          5635
       9      -0.01266031       0.000000003       0.000005236          6059
      10      -0.01266031       0.000000003       0.000000966          6488

    CHF Iterations converged


    Iter     Energy [mEh]          dE [mEh]         Residual      Time [s]
       1     -12.72521339      12.725213388      61.983954064           455
       2      -8.10597497      -4.619238414       7.451963611           967
       3      -8.05750431      -0.048470665       2.453831542          1422
       4      -8.20023368       0.142729375       0.814563010          1839
       5      -8.22193162       0.021697936       0.281544127          2343
       6      -8.21953566      -0.002395964       0.192010627          2764
       7      -8.21518620      -0.004349460       0.078514677          3200
       8      -8.21544615       0.000259954       0.040279596          3606
       9      -8.21640862       0.000962471       0.025414814          4079
      10      -8.21623372      -0.000174904       0.021941276          4580
      11      -8.21600294      -0.000230774       0.008776481          5092
      12      -8.21601041       0.000007463       0.003919490          5513
      13      -8.21604531       0.000034901       0.001449001          5937
      14      -8.21605518       0.000009870       0.000519344          6366
      15      -8.21605229      -0.000002884       0.000306825          6783
      16      -8.21604751      -0.000004784       0.000182334          7614
      17      -8.21604934       0.000001836       0.000099111          8283
      18      -8.21605024       0.000000895       0.000032475          8747
      19      -8.21605006      -0.000000180       0.000016647          9216
      20      -8.21604987      -0.000000191       0.000006231          9663
      21      -8.21604989       0.000000024       0.000002727         10077
      22      -8.21604992       0.000000024       0.000001286         10630
      23      -8.21604991      -0.000000002       0.000000561         10982

    CHF Iterations converged

    Ind20,r (A<-B)      =    -0.000012660311 [Eh]
    Ind20,r (B<-A)      =    -0.008216049914 [Eh]
    Ind20,r             =    -0.008228710226 [Eh]
    Exch-Ind20,r (A<-B) =     0.000006033851 [Eh]
    Exch-Ind20,r (B<-A) =     0.000007056763 [Eh]
    Exch-Ind20,r        =     0.000013090615 [Eh]
    Disp20              =    -0.002269848953 [Eh]
    Disp20 (SS)         =    -0.001134924477 [Eh]
    Disp20 (OS)         =    -0.001134924477 [Eh]
    Exch-Disp20         =     0.000019661618 [Eh]
    Exch-Disp20 (SS)    =     0.000014189860 [Eh]
    Exch-Disp20 (OS)    =     0.000005471758 [Eh]

    SAPT Results 
  --------------------------------------------------------------------------------------------------------
    Electrostatics                 11.20043442 [mEh]       7.02837871 [kcal/mol]      29.40673653 [kJ/mol]
      Elst10,r                     11.20043442 [mEh]       7.02837871 [kcal/mol]      29.40673653 [kJ/mol]

    Exchange                        0.04835639 [mEh]       0.03034409 [kcal/mol]       0.12695967 [kJ/mol]
      Exch10                        0.04835639 [mEh]       0.03034409 [kcal/mol]       0.12695967 [kJ/mol]
      Exch10(S^2)                   0.04835783 [mEh]       0.03034500 [kcal/mol]       0.12696347 [kJ/mol]

    Induction                      -8.16259957 [mEh]      -5.12210856 [kcal/mol]     -21.43090223 [kJ/mol]
      Ind20,r                      -8.22871023 [mEh]      -5.16359362 [kcal/mol]     -21.60447572 [kJ/mol]
      Exch-Ind20,r                  0.01309061 [mEh]       0.00821448 [kcal/mol]       0.03436940 [kJ/mol]
      delta HF,r (2)                0.05302004 [mEh]       0.03327058 [kcal/mol]       0.13920409 [kJ/mol]

    Dispersion                     -2.25018734 [mEh]      -1.41201387 [kcal/mol]      -5.90786604 [kJ/mol]
      Disp20                       -2.26984895 [mEh]      -1.42435172 [kcal/mol]      -5.95948761 [kJ/mol]
      Exch-Disp20                   0.01966162 [mEh]       0.01233785 [kcal/mol]       0.05162157 [kJ/mol]
      Disp20 (SS)                  -1.13492448 [mEh]      -0.71217586 [kcal/mol]      -2.97974380 [kJ/mol]
      Disp20 (OS)                  -1.13492448 [mEh]      -0.71217586 [kcal/mol]      -2.97974380 [kJ/mol]
      Exch-Disp20 (SS)              0.01418986 [mEh]       0.00890427 [kcal/mol]       0.03725547 [kJ/mol]
      Exch-Disp20 (OS)              0.00547176 [mEh]       0.00343358 [kcal/mol]       0.01436610 [kJ/mol]

  Total HF                          3.08619123 [mEh]       1.93661424 [kcal/mol]       8.10279397 [kJ/mol]
  Total SAPT0                       0.83600390 [mEh]       0.52460037 [kcal/mol]       2.19492793 [kJ/mol]

  Special recipe for scaled SAPT0 (see Manual):
    Electrostatics sSAPT0          11.20043442 [mEh]       7.02837871 [kcal/mol]      29.40673653 [kJ/mol]
    Exchange sSAPT0                 0.04835639 [mEh]       0.03034409 [kcal/mol]       0.12695967 [kJ/mol]
    Induction sSAPT0               -8.16260075 [mEh]      -5.12210930 [kcal/mol]     -21.43090531 [kJ/mol]
    Dispersion sSAPT0              -2.25018910 [mEh]      -1.41201498 [kcal/mol]      -5.90787067 [kJ/mol]
  Total sSAPT0                      0.83600096 [mEh]       0.52459852 [kcal/mol]       2.19492022 [kJ/mol]
  --------------------------------------------------------------------------------------------------------

*** tstop() called on n2cn0892 at Thu Jan 25 21:43:05 2024
Module time:
	user time   =   67244.04 seconds =    1120.73 minutes
	system time =    2830.48 seconds =      47.17 minutes
	total time  =      50408 seconds =     840.13 minutes
Total time:
	user time   =  113424.94 seconds =    1890.42 minutes
	system time =    5327.98 seconds =      88.80 minutes
	total time  =      83251 seconds =    1387.52 minutes

    Psi4 stopped on: Thursday, 25 January 2024 09:43PM
    Psi4 wall time for execution: 23:07:32.28

*** Psi4 exiting successfully. Buy a developer a beer!
