
    -----------------------------------------------------------------------
          Psi4: An Open-Source Ab Initio Electronic Structure Package
                               Psi4 1.9 release

                         Git: Rev {} zzzzzzz 


    D. G. A. Smith, L. A. Burns, A. C. Simmonett, R. M. Parrish,
    M. C. Schieber, R. Galvelis, P. Kraus, H. Kruse, R. Di Remigio,
    A. Alenaizan, A. M. James, S. Lehtola, J. P. Misiewicz, M. Scheurer,
    R. A. Shaw, J. B. Schriber, Y. Xie, Z. L. Glick, D. A. Sirianni,
    J. S. O'Brien, J. M. Waldrop, A. Kumar, E. G. Hohenstein,
    B. P. Pritchard, B. R. Brooks, H. F. Schaefer III, A. Yu. Sokolov,
    K. Patkowski, A. E. DePrince III, U. Bozkaya, R. A. King,
    F. A. Evangelista, J. M. Turney, T. D. Crawford, C. D. Sherrill,
    J. Chem. Phys. 152(18) 184108 (2020). https://doi.org/10.1063/5.0006002

                            Additional Code Authors
    E. T. Seidl, C. L. Janssen, E. F. Valeev, M. L. Leininger,
    J. F. Gonthier, R. M. Richard, H. R. McAlexander, M. Saitow, X. Wang,
    P. Verma, M. H. Lechner, A. Jiang, S. Behnle, A. G. Heide,
    M. F. Herbst, and D. L. Poole

             Previous Authors, Complete List of Code Contributors,
                       and Citations for Specific Modules
    https://github.com/psi4/psi4/blob/master/codemeta.json
    https://github.com/psi4/psi4/graphs/contributors
    http://psicode.org/psi4manual/master/introduction.html#citing-psifour

    -----------------------------------------------------------------------


    Psi4 started on: Monday, 22 January 2024 10:04PM

    Process ID: 2419145
    Host:       d-16-12-3
    PSIDATADIR: /home/gridsan/tfroembgen/.conda/envs/psi4test/share/psi4
    Memory:     500.0 MiB
    Threads:    12
    
  ==> Input File <==

--------------------------------------------------------------------------
memory 32 GB # how much memory is available ! Depends on the nodes/cores !

molecule dimer {
# monomer A
+1 1    # Charge and multiplicity
C  0.680067 1.417258 -5.815929
C -0.680504 1.419286 -5.815545
N -1.085635 1.420284 -4.497221
C  0.000108 1.423560 -3.715820
C -2.477365 1.469690 -4.029242
N  1.085222 1.420284 -4.497221
H  1.385146 1.409430 -6.633368
H -1.385302 1.419096 -6.633214
H -0.000009 1.425307 -2.634731
C  2.478117 1.403392 -4.032123
H  2.490592 1.430737 -2.941870
H  2.967028 0.489946 -4.379299
H  3.001428 2.278875 -4.423595
H -2.857359 2.491761 -4.109201
H -3.082679 0.799606 -4.642306
H -2.518128 1.142706 -2.989294
--
# monomer B
0 1     # Charge and multiplicity
C   1.22531237526482      0.70753866091955      0.00613762728373
C   1.22532433589282     -0.70753852257020     -0.00619318228664
C   -0.00000567409046      1.41496628609039     -0.00672680580738
C   2.45644923379077      1.41832825917820      0.00902448468363
C   0.00001130712078     -1.41497612663474      0.00347275151708
C   -1.22530046906674      0.70754574598412      0.00838914760619
C   2.45643823516184     -1.41832293188077     -0.00843833914343
C   -0.00000085313587      2.83680140328112     -0.00913035594137
C   3.68182717731192      0.70931832800114     -0.00808954934571
C   2.45512052870677      2.83422403348893     -0.00819210630633
C   3.68182158506039     -0.70933346742900      0.00798293467272
C   -1.22531311884624     -0.70752714354401     -0.00512042085974
C   1.22670006104402      3.54346985599427      0.00816696660346
C   0.00000526469929     -2.83678176723568      0.00832091913869
C   -2.45643555300670      1.41831729028492      0.00842454345199
C   2.45512389762097     -2.83422965658853      0.00783102630520
C   -1.22671388474763      3.54346943575023      0.00827029982280
C   4.91451777504333      1.42717324448953     -0.00160886631602
C   3.69315067131765      3.54279566454522     -0.00155906667985
C   -2.45643712022637     -1.41831290883911     -0.00846337726810
C   1.22670532178455     -3.54347386990643     -0.00780316414624
C   -2.45512491866593      2.83421703463423     -0.00818572995999
C   4.91452486062398     -1.42718653794377      0.00136387641845
C   1.22142509354026      4.97013443726031      0.00150231067809
C   4.89300870916237      2.82518837202648     -0.00039219795739
C   -1.22669652864725     -3.54347062507680     -0.00753595973677
C   -3.68181849668397      0.70932533873199     -0.00807686886569
C   3.69314758099218     -3.54280096939050      0.00148176697923
C   -1.22143177215231      4.97012866986289      0.00168580605083
C   6.13477145276790      0.68054831910577     -0.00083909176631
C   3.65678936045204      4.97295361556775     -0.00065042889723
C   -2.45512642789169     -2.83421472106065      0.00758666850712
C   -3.68181869921921     -0.70932533146830      0.00810055625144
C   4.89301309775526     -2.82519973363176      0.00021895393805
C   -0.00000059327114      5.65044773803267      0.00045449734393
C   6.13477559217374     -0.68055448207492      0.00042622874941
C   2.47813196269732      5.65357712333155      0.00063835075260
C   1.22142288457925     -4.97012668293268     -0.00129718634452
C   -3.69316190412301      3.54279732619245     -0.00139355922051
C   -1.22142804110313     -4.97011793159564     -0.00140994817719
C   -4.91452132810043      1.42717581899491     -0.00153192130862
C   3.65678749952045     -4.97295485423912      0.00080007163680
C   -2.47813805026426      5.65357479452875      0.00092287576113
C   -3.69314125872231     -3.54278984697859      0.00136564082345
C   -4.91451200321153     -1.42718062802730      0.00139857359209
C   -0.00000552908399     -5.65043791501335      0.00005899322272
C   -4.89302000425900      2.82518897091939     -0.00040227981744
C   2.47812647313991     -5.65357317188818     -0.00029052915548
C   -3.65679823041642      4.97295655404175     -0.00047374852278
C   -4.89299899901461     -2.82519139505969      0.00006491824035
C   -2.47812801824129     -5.65356579800621     -0.00056571680280
C   -6.13477002348955      0.68054913825639     -0.00086464346868
C   -3.65678835334731     -4.97294365097028      0.00058578382008
C   -6.13476456307132     -0.68055354348201      0.00040575295444
H   5.83528897565761      3.36927626695423      0.00396712770529
H   7.07385965258860      1.22821762089947     -0.00037744837300
H   4.60066374401555      5.51238117445323     -0.00014522814529
H   5.83528386714679     -3.36930568472863     -0.00423551337640
H   -0.00001167146422      6.73853104613662     -0.00389474766392
H   7.07386165167227     -1.22822657074368     -0.00008250934481
H   2.47331421164041      6.74068466339473      0.00017162982210
H   4.60066897122302     -5.51237575717576      0.00039007446835
H   -2.47331820069565      6.74068209160650      0.00047297644710
H   -0.00000978838621     -6.73852780445195      0.00458867820736
H   -5.83530143450167      3.36927132229595      0.00410314985360
H   2.47330840367253     -6.74068500242887      0.00027980126949
H   -4.60067436136587      5.51237839860371      0.00002010017831
H   -5.83527902699321     -3.36928859177951     -0.00451481925734
H   -2.47329986759855     -6.74067870613986     -0.00016951527498
H   -7.07385728692578      1.22822084484047     -0.00046143985387
H   -4.60067330624313     -5.51236229778631      0.00021776644566
H   -7.07385645456741     -1.22822025997701     -0.00017736581114

    units angstrom      # Angstroms are the default
    no_reorient         # Geometry fixed, default
    symmetry c1         # C1 symmetry, default
}

set {
    scf_type DF         # Density fitting, faster than exact integrals
    freeze_core True    # Freeze core electrons
    basis jun-cc-pVDZ   # Jun-cc-pVDZ basis set, recommended for sSAPT0 in https://doi.org/10.1063/1.4867135
}

energy('ssapt0')        # Compute sSAPT0 energy, includes also SAPT0
--------------------------------------------------------------------------

  Memory set to  29.802 GiB by Python driver.

Scratch directory: /state/partition1/slurm_tmp/24798296.4294967291.0/
   => Loading Basis Set <=

    Name: JUN-CC-PVDZ
    Role: ORBITAL
    Keyword: BASIS
    atoms 1-2, 4-5, 10, 17-70 entry C          line   164 file /home/gridsan/tfroembgen/.conda/envs/psi4test/share/psi4/basis/jun-cc-pvdz.gbs 
    atoms 3, 6                entry N          line   198 file /home/gridsan/tfroembgen/.conda/envs/psi4test/share/psi4/basis/jun-cc-pvdz.gbs 
    atoms 7-9, 11-16, 71-88   entry H          line    36 file /home/gridsan/tfroembgen/.conda/envs/psi4test/share/psi4/basis/jun-cc-pvdz.gbs 

   => Loading Basis Set <=

    Name: JUN-CC-PVDZ
    Role: ORBITAL
    Keyword: BASIS
    atoms 1-2, 4-5, 10, 17-70 entry C          line   164 file /home/gridsan/tfroembgen/.conda/envs/psi4test/share/psi4/basis/jun-cc-pvdz.gbs 
    atoms 3, 6                entry N          line   198 file /home/gridsan/tfroembgen/.conda/envs/psi4test/share/psi4/basis/jun-cc-pvdz.gbs 
    atoms 7-9, 11-16, 71-88   entry H          line    36 file /home/gridsan/tfroembgen/.conda/envs/psi4test/share/psi4/basis/jun-cc-pvdz.gbs 


  //>>>>>>>>>>>>>>>>>>>>>>>>>>>>>>>>>>>//
  //              Dimer HF             //
  //<<<<<<<<<<<<<<<<<<<<<<<<<<<<<<<<<<<//

   => Libint2 <=

    Primary   basis highest AM E, G, H:  7, 7, 4
    Auxiliary basis highest AM E, G, H:  7, 7, 5
    Onebody   basis highest AM E, G, H:  7, 7, 5
    Solid Harmonics ordering:            gaussian

*** tstart() called on d-16-12-3
*** at Mon Jan 22 22:04:28 2024

   => Loading Basis Set <=

    Name: JUN-CC-PVDZ
    Role: ORBITAL
    Keyword: BASIS
    atoms 1-2, 4-5, 10, 17-70 entry C          line   164 file /home/gridsan/tfroembgen/.conda/envs/psi4test/share/psi4/basis/jun-cc-pvdz.gbs 
    atoms 3, 6                entry N          line   198 file /home/gridsan/tfroembgen/.conda/envs/psi4test/share/psi4/basis/jun-cc-pvdz.gbs 
    atoms 7-9, 11-16, 71-88   entry H          line    36 file /home/gridsan/tfroembgen/.conda/envs/psi4test/share/psi4/basis/jun-cc-pvdz.gbs 


         ---------------------------------------------------------
                                   SCF
               by Justin Turney, Rob Parrish, Andy Simmonett
                          and Daniel G. A. Smith
                              RHF Reference
                       12 Threads,  30517 MiB Core
         ---------------------------------------------------------

  ==> Geometry <==

    Molecular point group: c1
    Full point group: C1

    Geometry (in Angstrom), charge = 1, multiplicity = 1:

       Center              X                  Y                   Z               Mass       
    ------------   -----------------  -----------------  -----------------  -----------------
         C            0.680066520158     1.235968212970    -5.230839494352    12.000000000000
         C           -0.680504479842     1.237996212970    -5.230455494352    12.000000000000
         N           -1.085635479842     1.238994212970    -3.912131494352    14.003074004430
         C            0.000107520158     1.242270212970    -3.130730494352    12.000000000000
         C           -2.477365479842     1.288400212970    -3.444152494352    12.000000000000
         N            1.085221520158     1.238994212970    -3.912131494352    14.003074004430
         H            1.385145520158     1.228140212970    -6.048278494352     1.007825032230
         H           -1.385302479842     1.237806212970    -6.048124494352     1.007825032230
         H           -0.000009479842     1.244017212970    -2.049641494352     1.007825032230
         C            2.478116520158     1.222102212970    -3.447033494352    12.000000000000
         H            2.490591520158     1.249447212970    -2.356780494352     1.007825032230
         H            2.967027520158     0.308656212970    -3.794209494352     1.007825032230
         H            3.001427520158     2.097585212970    -3.838505494352     1.007825032230
         H           -2.857359479842     2.310471212970    -3.524111494352     1.007825032230
         H           -3.082679479842     0.618316212970    -4.057216494352     1.007825032230
         H           -2.518128479842     0.961416212970    -2.404204494352     1.007825032230
         C            1.225311895423     0.526248873889     0.591227132932    12.000000000000
         C            1.225323856051    -0.888828309601     0.578896323362    12.000000000000
         C           -0.000006153932     1.233676499060     0.578362699841    12.000000000000
         C            2.456448753949     1.237038472148     0.594113990332    12.000000000000
         C            0.000010827279    -1.596265913665     0.588562257165    12.000000000000
         C           -1.225300948908     0.526255958954     0.593478653255    12.000000000000
         C            2.456437755320    -1.599612718911     0.576651166505    12.000000000000
         C           -0.000001332978     2.655511616251     0.575959149707    12.000000000000
         C            3.681826697470     0.528028540971     0.576999956303    12.000000000000
         C            2.455120048865     2.652934246459     0.576897399342    12.000000000000
         C            3.681821105219    -0.890623254459     0.593072440321    12.000000000000
         C           -1.225313598688    -0.888816930574     0.579969084789    12.000000000000
         C            1.226699581202     3.362180068964     0.593256472252    12.000000000000
         C            0.000004784858    -3.018071554266     0.593410424787    12.000000000000
         C           -2.456436032848     1.237027503255     0.593514049100    12.000000000000
         C            2.455123417779    -3.015519443619     0.592920531954    12.000000000000
         C           -1.226714364589     3.362179648720     0.593359805471    12.000000000000
         C            4.914517295202     1.245883457459     0.583480639332    12.000000000000
         C            3.693150191476     3.361505877515     0.583530438968    12.000000000000
         C           -2.456437600068    -1.599602695869     0.576626128380    12.000000000000
         C            1.226704841943    -3.724763656937     0.577286341502    12.000000000000
         C           -2.455125398508     2.652927247604     0.576903775688    12.000000000000
         C            4.914524380782    -1.608476324974     0.586453382067    12.000000000000
         C            1.221424613699     4.788844650230     0.586591816326    12.000000000000
         C            4.893008229321     2.643898584996     0.584697307691    12.000000000000
         C           -1.226697008489    -3.724760412107     0.577553545912    12.000000000000
         C           -3.681818976526     0.528035551702     0.577012636783    12.000000000000
         C            3.693147101150    -3.724090756421     0.586571272628    12.000000000000
         C           -1.221432251994     4.788838882833     0.586775311699    12.000000000000
         C            6.134770972926     0.499258532075     0.584250413882    12.000000000000
         C            3.656788880610     4.791663828537     0.584439076751    12.000000000000
         C           -2.455126907733    -3.015504508091     0.592676174155    12.000000000000
         C           -3.681819179061    -0.890615118499     0.593190061900    12.000000000000
         C            4.893012617914    -3.006489520662     0.585308459586    12.000000000000
         C           -0.000001073113     5.469157951002     0.585544002992    12.000000000000
         C            6.134775112332    -0.861844269105     0.585515734398    12.000000000000
         C            2.478131482856     5.472287336301     0.585727856401    12.000000000000
         C            1.221422404738    -5.151416469963     0.583792319304    12.000000000000
         C           -3.693162383965     3.361507539162     0.583695946428    12.000000000000
         C           -1.221428520945    -5.151407718626     0.583679557471    12.000000000000
         C           -4.914521807942     1.245886031965     0.583557584340    12.000000000000
         C            3.656787019679    -5.154244641269     0.585889577285    12.000000000000
         C           -2.478138530106     5.472285007498     0.586012381409    12.000000000000
         C           -3.693141738564    -3.724079634009     0.586455146472    12.000000000000
         C           -4.914512483053    -1.608470415058     0.586488079240    12.000000000000
         C           -0.000006008926    -5.831727702044     0.585148498871    12.000000000000
         C           -4.893020484101     2.643899183889     0.584687225831    12.000000000000
         C            2.478125993298    -5.834862958919     0.584798976493    12.000000000000
         C           -3.656798710258     4.791666767011     0.584615757126    12.000000000000
         C           -4.892999478856    -3.006481182090     0.585154423889    12.000000000000
         C           -2.478128498083    -5.834855585037     0.584523788846    12.000000000000
         C           -6.134770503331     0.499259351226     0.584224862180    12.000000000000
         C           -3.656788833189    -5.154233438001     0.585675289468    12.000000000000
         C           -6.134765042913    -0.861843330512     0.585495258603    12.000000000000
         H            5.835288495816     3.187986479924     0.589056633354     1.007825032230
         H            7.073859172747     1.046927833869     0.584712057275     1.007825032230
         H            4.600663264174     5.331091387423     0.584944277503     1.007825032230
         H            5.835283387305    -3.550595471759     0.580853992272     1.007825032230
         H           -0.000012151306     6.557241259106     0.581194757984     1.007825032230
         H            7.073861171831    -1.409516357774     0.585006996304     1.007825032230
         H            2.473313731799     6.559394876364     0.585261135470     1.007825032230
         H            4.600668491381    -5.693665544206     0.585479580117     1.007825032230
         H           -2.473318680537     6.559392304576     0.585562482095     1.007825032230
         H           -0.000010268228    -6.919817591482     0.589678183856     1.007825032230
         H           -5.835301914343     3.187981535266     0.589192655502     1.007825032230
         H            2.473307923831    -6.921974789459     0.585369306918     1.007825032230
         H           -4.600674841208     5.331088611573     0.585109605827     1.007825032230
         H           -5.835279506835    -3.550578378810     0.580574686391     1.007825032230
         H           -2.473300347440    -6.921968493170     0.584919990373     1.007825032230
         H           -7.073857766768     1.046931057810     0.584628065794     1.007825032230
         H           -4.600673786085    -5.693652084817     0.585307272094     1.007825032230
         H           -7.073856934409    -1.409510047007     0.584912139837     1.007825032230

  Running in c1 symmetry.

  Rotational constants: A =      0.00175  B =      0.00175  C =      0.00108 [cm^-1]
  Rotational constants: A =     52.42114  B =     52.33252  C =     32.24380 [MHz]
  Nuclear repulsion = 8224.710447135319555

  Charge       = 1
  Multiplicity = 1
  Electrons    = 394
  Nalpha       = 197
  Nbeta        = 197

  ==> Algorithm <==

  SCF Algorithm Type is DF.
  DIIS enabled.
  MOM disabled.
  Fractional occupation disabled.
  Guess Type is SAD.
  Energy threshold   = 1.00e-08
  Density threshold  = 1.00e-08
  Integral threshold = 1.00e-12

  ==> Primary Basis <==

  Basis Set: JUN-CC-PVDZ
    Blend: JUN-CC-PVDZ
    Number of shells: 569
    Number of basis functions: 1233
    Number of Cartesian functions: 1294
    Spherical Harmonics?: true
    Max angular momentum: 2

   => Loading Basis Set <=

    Name: (JUN-CC-PVDZ AUX)
    Role: JKFIT
    Keyword: DF_BASIS_SCF
    atoms 1-2, 4-5, 10, 17-70 entry C          line   146 file /home/gridsan/tfroembgen/.conda/envs/psi4test/share/psi4/basis/jun-cc-pvdz-jkfit.gbs 
    atoms 3, 6                entry N          line   202 file /home/gridsan/tfroembgen/.conda/envs/psi4test/share/psi4/basis/jun-cc-pvdz-jkfit.gbs 
    atoms 7-9, 11-16, 71-88   entry H          line    70 file /home/gridsan/tfroembgen/.conda/envs/psi4test/share/psi4/basis/jun-cc-pvdz-jkfit.gbs 

  ==> Integral Setup <==

  ==> DiskDFJK: Density-Fitted J/K Matrices <==

    J tasked:                  Yes
    K tasked:                  Yes
    wK tasked:                  No
    OpenMP threads:             12
    Integrals threads:          12
    Memory [MiB]:            22888
    Algorithm:                Disk
    Integral Cache:           SAVE
    Schwarz Cutoff:          1E-12
    Fitting Condition:       1E-10

   => Auxiliary Basis Set <=

  Basis Set: (JUN-CC-PVDZ AUX)
    Blend: JUN-CC-PVDZ-JKFIT
    Number of shells: 1890
    Number of basis functions: 5440
    Number of Cartesian functions: 6226
    Spherical Harmonics?: true
    Max angular momentum: 3

  Minimum eigenvalue in the overlap matrix is 7.4026821670E-10.
  Reciprocal condition number of the overlap matrix is 3.1392011332E-11.
    Using canonical orthogonalization.
  Overall, 14 of 1233 possible MOs eliminated.


  ==> Pre-Iterations <==

  SCF Guess: Superposition of Atomic Densities via on-the-fly atomic UHF (no occupation information).

   -------------------------
    Irrep   Nso     Nmo    
   -------------------------
     A       1233    1219 
   -------------------------
    Total    1233    1219
   -------------------------

  ==> Iterations <==

                           Total Energy        Delta E     RMS |[F,P]|

   @DF-RHF iter SAD: -2365.57786987324516   -2.36558e+03   0.00000e+00 
   @DF-RHF iter   1: -2358.21553734354347    7.36233e+00   9.43533e-04 DIIS/ADIIS
   @DF-RHF iter   2: -2359.10859076002862   -8.93053e-01   3.19216e-04 DIIS/ADIIS
   @DF-RHF iter   3: -2359.19736677180299   -8.87760e-02   1.19420e-04 DIIS/ADIIS
   @DF-RHF iter   4: -2359.21046074943069   -1.30940e-02   4.45522e-05 DIIS
   @DF-RHF iter   5: -2359.21235156000967   -1.89081e-03   9.96790e-06 DIIS
   @DF-RHF iter   6: -2359.21253030853450   -1.78749e-04   5.24712e-06 DIIS
   @DF-RHF iter   7: -2359.21259993299236   -6.96245e-05   2.30177e-06 DIIS
   @DF-RHF iter   8: -2359.21262116563958   -2.12326e-05   1.13381e-06 DIIS
   @DF-RHF iter   9: -2359.21262620595235   -5.04031e-06   2.92710e-07 DIIS
   @DF-RHF iter  10: -2359.21262645870229   -2.52750e-07   1.13754e-07 DIIS
   @DF-RHF iter  11: -2359.21262648314496   -2.44427e-08   5.25024e-08 DIIS
   @DF-RHF iter  12: -2359.21262648983475   -6.68979e-09   2.72467e-08 DIIS
   @DF-RHF iter  13: -2359.21262649224263   -2.40789e-09   1.31664e-08 DIIS
   @DF-RHF iter  14: -2359.21262649325536   -1.01272e-09   8.74410e-09 DIIS
  Energy and wave function converged.


  ==> Post-Iterations <==

    Orbital Energies [Eh]
    ---------------------

    Doubly Occupied:                                                      

       1A    -15.802263     2A    -15.801825     3A    -11.494774  
       4A    -11.431512     5A    -11.429954     6A    -11.417278  
       7A    -11.417120     8A    -11.345620     9A    -11.344446  
      10A    -11.344036    11A    -11.342930    12A    -11.342093  
      13A    -11.341766    14A    -11.341488    15A    -11.341397  
      16A    -11.340210    17A    -11.339707    18A    -11.339544  
      19A    -11.338498    20A    -11.338353    21A    -11.337126  
      22A    -11.337092    23A    -11.336936    24A    -11.336856  
      25A    -11.336575    26A    -11.336476    27A    -11.336307  
      28A    -11.336276    29A    -11.335631    30A    -11.335571  
      31A    -11.334293    32A    -11.334242    33A    -11.333910  
      34A    -11.332337    35A    -11.332304    36A    -11.332061  
      37A    -11.332048    38A    -11.330918    39A    -11.330805  
      40A    -11.330528    41A    -11.330477    42A    -11.329482  
      43A    -11.329171    44A    -11.329094    45A    -11.328601  
      46A    -11.328514    47A    -11.327382    48A    -11.327337  
      49A    -11.325940    50A    -11.325896    51A    -11.324603  
      52A    -11.324565    53A    -11.324348    54A    -11.324334  
      55A    -11.322877    56A    -11.322846    57A    -11.322255  
      58A    -11.320204    59A    -11.320180    60A    -11.318715  
      61A    -11.318693    62A     -1.546506    63A     -1.401958  
      64A     -1.325443    65A     -1.298548    66A     -1.297838  
      67A     -1.266369    68A     -1.266350    69A     -1.260046  
      70A     -1.232842    71A     -1.225427    72A     -1.213968  
      73A     -1.213692    74A     -1.207937    75A     -1.188285  
      76A     -1.188257    77A     -1.159889    78A     -1.159874  
      79A     -1.157392    80A     -1.156147    81A     -1.140671  
      82A     -1.140610    83A     -1.115142    84A     -1.102745  
      85A     -1.100631    86A     -1.100368    87A     -1.092468  
      88A     -1.087249    89A     -1.087085    90A     -1.063882  
      91A     -1.063735    92A     -1.037012    93A     -1.036952  
      94A     -0.991822    95A     -0.970559    96A     -0.970419  
      97A     -0.966636    98A     -0.965085    99A     -0.964016  
     100A     -0.963688   101A     -0.958163   102A     -0.957894  
     103A     -0.936942   104A     -0.910656   105A     -0.894152  
     106A     -0.894138   107A     -0.888829   108A     -0.888505  
     109A     -0.885498   110A     -0.869025   111A     -0.868992  
     112A     -0.824207   113A     -0.821975   114A     -0.819065  
     115A     -0.810703   116A     -0.810478   117A     -0.806697  
     118A     -0.806472   119A     -0.792506   120A     -0.786423  
     121A     -0.780239   122A     -0.774366   123A     -0.774018  
     124A     -0.769571   125A     -0.769255   126A     -0.759499  
     127A     -0.755116   128A     -0.752714   129A     -0.735651  
     130A     -0.729654   131A     -0.728352   132A     -0.724367  
     133A     -0.724307   134A     -0.714159   135A     -0.714144  
     136A     -0.705866   137A     -0.703731   138A     -0.703718  
     139A     -0.701911   140A     -0.694711   141A     -0.686341  
     142A     -0.684656   143A     -0.678136   144A     -0.677325  
     145A     -0.674869   146A     -0.674644   147A     -0.670223  
     148A     -0.668095   149A     -0.668062   150A     -0.658199  
     151A     -0.655137   152A     -0.654601   153A     -0.642859  
     154A     -0.642513   155A     -0.640865   156A     -0.640760  
     157A     -0.635232   158A     -0.628815   159A     -0.628718  
     160A     -0.615211   161A     -0.615065   162A     -0.612996  
     163A     -0.612539   164A     -0.608131   165A     -0.604488  
     166A     -0.597947   167A     -0.597778   168A     -0.574433  
     169A     -0.570686   170A     -0.567641   171A     -0.565649  
     172A     -0.564092   173A     -0.561150   174A     -0.557217  
     175A     -0.556935   176A     -0.549627   177A     -0.549141  
     178A     -0.528417   179A     -0.528129   180A     -0.513719  
     181A     -0.513642   182A     -0.494621   183A     -0.482840  
     184A     -0.482658   185A     -0.481581   186A     -0.449387  
     187A     -0.449373   188A     -0.425125   189A     -0.418376  
     190A     -0.417606   191A     -0.417355   192A     -0.385995  
     193A     -0.371085   194A     -0.362694   195A     -0.362453  
     196A     -0.300829   197A     -0.300685  

    Virtual:                                                              

     198A     -0.062126   199A     -0.062088   200A     -0.040302  
     201A     -0.036736   202A     -0.033859   203A     -0.020353  
     204A     -0.013720   205A     -0.013547   206A     -0.013247  
     207A     -0.013024   208A     -0.010224   209A     -0.007994  
     210A     -0.003844   211A     -0.002747   212A      0.001663  
     213A      0.003773   214A      0.005730   215A      0.007672  
     216A      0.009191   217A      0.009847   218A      0.010830  
     219A      0.013036   220A      0.015678   221A      0.016250  
     222A      0.016621   223A      0.018869   224A      0.019023  
     225A      0.021881   226A      0.024028   227A      0.027915  
     228A      0.028466   229A      0.031839   230A      0.034556  
     231A      0.034818   232A      0.034913   233A      0.037386  
     234A      0.043373   235A      0.045710   236A      0.046023  
     237A      0.046589   238A      0.049774   239A      0.051544  
     240A      0.052693   241A      0.055135   242A      0.056856  
     243A      0.061028   244A      0.062314   245A      0.065333  
     246A      0.065619   247A      0.068949   248A      0.069203  
     249A      0.072977   250A      0.075397   251A      0.076092  
     252A      0.076937   253A      0.077360   254A      0.079755  
     255A      0.084088   256A      0.085797   257A      0.087481  
     258A      0.088572   259A      0.091630   260A      0.096454  
     261A      0.097040   262A      0.098135   263A      0.099900  
     264A      0.101087   265A      0.102069   266A      0.102362  
     267A      0.108986   268A      0.109720   269A      0.110171  
     270A      0.112030   271A      0.113515   272A      0.113734  
     273A      0.116859   274A      0.118096   275A      0.118687  
     276A      0.120393   277A      0.122092   278A      0.123516  
     279A      0.123825   280A      0.128183   281A      0.128808  
     282A      0.132573   283A      0.136039   284A      0.139128  
     285A      0.140602   286A      0.141657   287A      0.145630  
     288A      0.146729   289A      0.147346   290A      0.149464  
     291A      0.150709   292A      0.151005   293A      0.151269  
     294A      0.151807   295A      0.152368   296A      0.153108  
     297A      0.156148   298A      0.156986   299A      0.158837  
     300A      0.161556   301A      0.162537   302A      0.163363  
     303A      0.164084   304A      0.166653   305A      0.168303  
     306A      0.170158   307A      0.170957   308A      0.171528  
     309A      0.171627   310A      0.174307   311A      0.176718  
     312A      0.179369   313A      0.181395   314A      0.182283  
     315A      0.183103   316A      0.184250   317A      0.189216  
     318A      0.189426   319A      0.189725   320A      0.191333  
     321A      0.191681   322A      0.192881   323A      0.193588  
     324A      0.196174   325A      0.198659   326A      0.198798  
     327A      0.199180   328A      0.202977   329A      0.203238  
     330A      0.205201   331A      0.206444   332A      0.207671  
     333A      0.208204   334A      0.211846   335A      0.213333  
     336A      0.214186   337A      0.215291   338A      0.216002  
     339A      0.217798   340A      0.225199   341A      0.227093  
     342A      0.228725   343A      0.231590   344A      0.234283  
     345A      0.234543   346A      0.236365   347A      0.237399  
     348A      0.239060   349A      0.240011   350A      0.240682  
     351A      0.242006   352A      0.242434   353A      0.242789  
     354A      0.243969   355A      0.245598   356A      0.245873  
     357A      0.247637   358A      0.248288   359A      0.248810  
     360A      0.249771   361A      0.250497   362A      0.252751  
     363A      0.252932   364A      0.255009   365A      0.256105  
     366A      0.257461   367A      0.262414   368A      0.263454  
     369A      0.264941   370A      0.265960   371A      0.267626  
     372A      0.269204   373A      0.271280   374A      0.272277  
     375A      0.272847   376A      0.275251   377A      0.277823  
     378A      0.279532   379A      0.281583   380A      0.283270  
     381A      0.283927   382A      0.285276   383A      0.286891  
     384A      0.287844   385A      0.289718   386A      0.290201  
     387A      0.292996   388A      0.295117   389A      0.297043  
     390A      0.299158   391A      0.300239   392A      0.300726  
     393A      0.303230   394A      0.303630   395A      0.305160  
     396A      0.306975   397A      0.308145   398A      0.308451  
     399A      0.310431   400A      0.314186   401A      0.315041  
     402A      0.317287   403A      0.319624   404A      0.320489  
     405A      0.321062   406A      0.322353   407A      0.323868  
     408A      0.325534   409A      0.328684   410A      0.329065  
     411A      0.330401   412A      0.330853   413A      0.332774  
     414A      0.334178   415A      0.336327   416A      0.336837  
     417A      0.337882   418A      0.339125   419A      0.339575  
     420A      0.340234   421A      0.341235   422A      0.341947  
     423A      0.342682   424A      0.345168   425A      0.345494  
     426A      0.346905   427A      0.347423   428A      0.348783  
     429A      0.352239   430A      0.352654   431A      0.354419  
     432A      0.358670   433A      0.360245   434A      0.363064  
     435A      0.364019   436A      0.366572   437A      0.371121  
     438A      0.372050   439A      0.372094   440A      0.374241  
     441A      0.375049   442A      0.376706   443A      0.377091  
     444A      0.382344   445A      0.382992   446A      0.383854  
     447A      0.386448   448A      0.386778   449A      0.388689  
     450A      0.389438   451A      0.391243   452A      0.392883  
     453A      0.394491   454A      0.396352   455A      0.400191  
     456A      0.400801   457A      0.402789   458A      0.404745  
     459A      0.406254   460A      0.409434   461A      0.410645  
     462A      0.412975   463A      0.415133   464A      0.415928  
     465A      0.419418   466A      0.422280   467A      0.423195  
     468A      0.424568   469A      0.426602   470A      0.427133  
     471A      0.428781   472A      0.432742   473A      0.433369  
     474A      0.434909   475A      0.437209   476A      0.438711  
     477A      0.440675   478A      0.441959   479A      0.447470  
     480A      0.448176   481A      0.449015   482A      0.450779  
     483A      0.454755   484A      0.456422   485A      0.460084  
     486A      0.464748   487A      0.465680   488A      0.469198  
     489A      0.472048   490A      0.474587   491A      0.476101  
     492A      0.477314   493A      0.477791   494A      0.480478  
     495A      0.482988   496A      0.483157   497A      0.483918  
     498A      0.486160   499A      0.486638   500A      0.487583  
     501A      0.490125   502A      0.490355   503A      0.492747  
     504A      0.501316   505A      0.502969   506A      0.504408  
     507A      0.515668   508A      0.518790   509A      0.520177  
     510A      0.521784   511A      0.523892   512A      0.524996  
     513A      0.531524   514A      0.532912   515A      0.543716  
     516A      0.546014   517A      0.547650   518A      0.551430  
     519A      0.553535   520A      0.554165   521A      0.560802  
     522A      0.565728   523A      0.567554   524A      0.577892  
     525A      0.581430   526A      0.587033   527A      0.594802  
     528A      0.595794   529A      0.596013   530A      0.602941  
     531A      0.603097   532A      0.611050   533A      0.641638  
     534A      0.641770   535A      0.657001   536A      0.666632  
     537A      0.668741   538A      0.669454   539A      0.671025  
     540A      0.671501   541A      0.682386   542A      0.683388  
     543A      0.686886   544A      0.693108   545A      0.694210  
     546A      0.704302   547A      0.714529   548A      0.721262  
     549A      0.722075   550A      0.729101   551A      0.730935  
     552A      0.733711   553A      0.735923   554A      0.740283  
     555A      0.742401   556A      0.747429   557A      0.750314  
     558A      0.752142   559A      0.754493   560A      0.755755  
     561A      0.758632   562A      0.762391   563A      0.764795  
     564A      0.770305   565A      0.772048   566A      0.776337  
     567A      0.779781   568A      0.785147   569A      0.786259  
     570A      0.788438   571A      0.790395   572A      0.790738  
     573A      0.791986   574A      0.799454   575A      0.803205  
     576A      0.803925   577A      0.805545   578A      0.811507  
     579A      0.813627   580A      0.813854   581A      0.817959  
     582A      0.818711   583A      0.822566   584A      0.824846  
     585A      0.826925   586A      0.828288   587A      0.831005  
     588A      0.832456   589A      0.834748   590A      0.837181  
     591A      0.840048   592A      0.840967   593A      0.843251  
     594A      0.843274   595A      0.844010   596A      0.846961  
     597A      0.847833   598A      0.852022   599A      0.853387  
     600A      0.854896   601A      0.857631   602A      0.859214  
     603A      0.862526   604A      0.864652   605A      0.866399  
     606A      0.869808   607A      0.870827   608A      0.875669  
     609A      0.875865   610A      0.882230   611A      0.883265  
     612A      0.887905   613A      0.889898   614A      0.891653  
     615A      0.893068   616A      0.894890   617A      0.899480  
     618A      0.900837   619A      0.901753   620A      0.903557  
     621A      0.904974   622A      0.906333   623A      0.909692  
     624A      0.912271   625A      0.914106   626A      0.915875  
     627A      0.915977   628A      0.920719   629A      0.924027  
     630A      0.928628   631A      0.930590   632A      0.934028  
     633A      0.937123   634A      0.939938   635A      0.942770  
     636A      0.945837   637A      0.948985   638A      0.949318  
     639A      0.950090   640A      0.951343   641A      0.953845  
     642A      0.955384   643A      0.960777   644A      0.961552  
     645A      0.963697   646A      0.965868   647A      0.968140  
     648A      0.968527   649A      0.970421   650A      0.972081  
     651A      0.974104   652A      0.974594   653A      0.975278  
     654A      0.976974   655A      0.981968   656A      0.983015  
     657A      0.984526   658A      0.985727   659A      0.988855  
     660A      0.991643   661A      0.995021   662A      0.995748  
     663A      0.996979   664A      1.002405   665A      1.002817  
     666A      1.005637   667A      1.006076   668A      1.009433  
     669A      1.010690   670A      1.012128   671A      1.013713  
     672A      1.015352   673A      1.016627   674A      1.019104  
     675A      1.025936   676A      1.028200   677A      1.029369  
     678A      1.032025   679A      1.033119   680A      1.034235  
     681A      1.037146   682A      1.038720   683A      1.039181  
     684A      1.040811   685A      1.043709   686A      1.046486  
     687A      1.047318   688A      1.052679   689A      1.054652  
     690A      1.056783   691A      1.058835   692A      1.059855  
     693A      1.061406   694A      1.065830   695A      1.067764  
     696A      1.068578   697A      1.070671   698A      1.074959  
     699A      1.075812   700A      1.081982   701A      1.083728  
     702A      1.084853   703A      1.089177   704A      1.094214  
     705A      1.096021   706A      1.098815   707A      1.100856  
     708A      1.105593   709A      1.106665   710A      1.108071  
     711A      1.108913   712A      1.113350   713A      1.122630  
     714A      1.124411   715A      1.129107   716A      1.133838  
     717A      1.134714   718A      1.140928   719A      1.143611  
     720A      1.144369   721A      1.147693   722A      1.151127  
     723A      1.152821   724A      1.159866   725A      1.161063  
     726A      1.165224   727A      1.166207   728A      1.169769  
     729A      1.171947   730A      1.180333   731A      1.183656  
     732A      1.186038   733A      1.188425   734A      1.189808  
     735A      1.190717   736A      1.191123   737A      1.193387  
     738A      1.196987   739A      1.197325   740A      1.198173  
     741A      1.202676   742A      1.204854   743A      1.207005  
     744A      1.211229   745A      1.215102   746A      1.222308  
     747A      1.223516   748A      1.224444   749A      1.226438  
     750A      1.227351   751A      1.238294   752A      1.242225  
     753A      1.245578   754A      1.248653   755A      1.250661  
     756A      1.251339   757A      1.254332   758A      1.255345  
     759A      1.257494   760A      1.258411   761A      1.259787  
     762A      1.264984   763A      1.271437   764A      1.273971  
     765A      1.276440   766A      1.277389   767A      1.277956  
     768A      1.282909   769A      1.287037   770A      1.287999  
     771A      1.290310   772A      1.298055   773A      1.301423  
     774A      1.304443   775A      1.310869   776A      1.312295  
     777A      1.316297   778A      1.319588   779A      1.331219  
     780A      1.334404   781A      1.336300   782A      1.336744  
     783A      1.339608   784A      1.344085   785A      1.346091  
     786A      1.346333   787A      1.352703   788A      1.354379  
     789A      1.359712   790A      1.361569   791A      1.364879  
     792A      1.366203   793A      1.369172   794A      1.372001  
     795A      1.372123   796A      1.374549   797A      1.377764  
     798A      1.378938   799A      1.380813   800A      1.384906  
     801A      1.396005   802A      1.402886   803A      1.404121  
     804A      1.406077   805A      1.425246   806A      1.431436  
     807A      1.443827   808A      1.444849   809A      1.445909  
     810A      1.447193   811A      1.461728   812A      1.474488  
     813A      1.480446   814A      1.495647   815A      1.503137  
     816A      1.506288   817A      1.512022   818A      1.519944  
     819A      1.524669   820A      1.525587   821A      1.528495  
     822A      1.532877   823A      1.535407   824A      1.537082  
     825A      1.540215   826A      1.546525   827A      1.547771  
     828A      1.553530   829A      1.555545   830A      1.561234  
     831A      1.562047   832A      1.566207   833A      1.567822  
     834A      1.569139   835A      1.570116   836A      1.572922  
     837A      1.576514   838A      1.584159   839A      1.586405  
     840A      1.588896   841A      1.591434   842A      1.593774  
     843A      1.595299   844A      1.599391   845A      1.599919  
     846A      1.602780   847A      1.604650   848A      1.606790  
     849A      1.611201   850A      1.612800   851A      1.615547  
     852A      1.621930   853A      1.623330   854A      1.623745  
     855A      1.625583   856A      1.625702   857A      1.625995  
     858A      1.630337   859A      1.636063   860A      1.644162  
     861A      1.647670   862A      1.662444   863A      1.665985  
     864A      1.669755   865A      1.673829   866A      1.677936  
     867A      1.687411   868A      1.687637   869A      1.691021  
     870A      1.693169   871A      1.703674   872A      1.705438  
     873A      1.712560   874A      1.718239   875A      1.718786  
     876A      1.732046   877A      1.743154   878A      1.746193  
     879A      1.746741   880A      1.746924   881A      1.748647  
     882A      1.749797   883A      1.756955   884A      1.763627  
     885A      1.765519   886A      1.766672   887A      1.768405  
     888A      1.770338   889A      1.781882   890A      1.783460  
     891A      1.790223   892A      1.790949   893A      1.791147  
     894A      1.794409   895A      1.797411   896A      1.797938  
     897A      1.803166   898A      1.804209   899A      1.814157  
     900A      1.819841   901A      1.821120   902A      1.825949  
     903A      1.829599   904A      1.831872   905A      1.833724  
     906A      1.834087   907A      1.835424   908A      1.837992  
     909A      1.839097   910A      1.841621   911A      1.842876  
     912A      1.844805   913A      1.845220   914A      1.847843  
     915A      1.848973   916A      1.854141   917A      1.860645  
     918A      1.869734   919A      1.870907   920A      1.871940  
     921A      1.874338   922A      1.876163   923A      1.878558  
     924A      1.879355   925A      1.881172   926A      1.882233  
     927A      1.883268   928A      1.884522   929A      1.886807  
     930A      1.892613   931A      1.895476   932A      1.903819  
     933A      1.910366   934A      1.910953   935A      1.918622  
     936A      1.922173   937A      1.923577   938A      1.926382  
     939A      1.928900   940A      1.931042   941A      1.937212  
     942A      1.938704   943A      1.941481   944A      1.942774  
     945A      1.950217   946A      1.955502   947A      1.957304  
     948A      1.958226   949A      1.960395   950A      1.962011  
     951A      1.965745   952A      1.972129   953A      1.973754  
     954A      1.975725   955A      1.980843   956A      1.982793  
     957A      1.985330   958A      1.985667   959A      1.987180  
     960A      1.996259   961A      1.996891   962A      1.997380  
     963A      1.998683   964A      2.000855   965A      2.003042  
     966A      2.007921   967A      2.010461   968A      2.014516  
     969A      2.017513   970A      2.021836   971A      2.022947  
     972A      2.024154   973A      2.025652   974A      2.026171  
     975A      2.028042   976A      2.031173   977A      2.034504  
     978A      2.036148   979A      2.037725   980A      2.038491  
     981A      2.040710   982A      2.043267   983A      2.044349  
     984A      2.045089   985A      2.047903   986A      2.049049  
     987A      2.051811   988A      2.055292   989A      2.056537  
     990A      2.057982   991A      2.062000   992A      2.063895  
     993A      2.065802   994A      2.067716   995A      2.069207  
     996A      2.072694   997A      2.075249   998A      2.083372  
     999A      2.084280  1000A      2.085087  1001A      2.088620  
    1002A      2.091264  1003A      2.097914  1004A      2.102864  
    1005A      2.108145  1006A      2.109624  1007A      2.113476  
    1008A      2.115449  1009A      2.118650  1010A      2.120422  
    1011A      2.120876  1012A      2.121635  1013A      2.124892  
    1014A      2.139687  1015A      2.141033  1016A      2.143468  
    1017A      2.144323  1018A      2.149676  1019A      2.152193  
    1020A      2.158161  1021A      2.162969  1022A      2.164254  
    1023A      2.171169  1024A      2.172390  1025A      2.175385  
    1026A      2.175703  1027A      2.177721  1028A      2.187940  
    1029A      2.189671  1030A      2.193880  1031A      2.196731  
    1032A      2.197281  1033A      2.199283  1034A      2.200432  
    1035A      2.209729  1036A      2.216264  1037A      2.224590  
    1038A      2.227867  1039A      2.232783  1040A      2.238444  
    1041A      2.239650  1042A      2.243259  1043A      2.245835  
    1044A      2.247845  1045A      2.251798  1046A      2.252631  
    1047A      2.254810  1048A      2.259104  1049A      2.265797  
    1050A      2.277168  1051A      2.277834  1052A      2.278131  
    1053A      2.280329  1054A      2.284139  1055A      2.293340  
    1056A      2.293943  1057A      2.298694  1058A      2.308485  
    1059A      2.327011  1060A      2.343199  1061A      2.348159  
    1062A      2.349229  1063A      2.349334  1064A      2.355689  
    1065A      2.362513  1066A      2.366480  1067A      2.367442  
    1068A      2.394277  1069A      2.396772  1070A      2.402655  
    1071A      2.402875  1072A      2.406555  1073A      2.413853  
    1074A      2.415438  1075A      2.427246  1076A      2.446965  
    1077A      2.455312  1078A      2.458493  1079A      2.471546  
    1080A      2.473721  1081A      2.476368  1082A      2.476716  
    1083A      2.483124  1084A      2.483919  1085A      2.485408  
    1086A      2.485521  1087A      2.497142  1088A      2.497587  
    1089A      2.502763  1090A      2.504398  1091A      2.505585  
    1092A      2.508002  1093A      2.513491  1094A      2.513703  
    1095A      2.514990  1096A      2.520892  1097A      2.536421  
    1098A      2.540552  1099A      2.546730  1100A      2.552064  
    1101A      2.552214  1102A      2.554275  1103A      2.559764  
    1104A      2.562279  1105A      2.570255  1106A      2.570881  
    1107A      2.580471  1108A      2.581688  1109A      2.584475  
    1110A      2.609435  1111A      2.610745  1112A      2.612647  
    1113A      2.618523  1114A      2.624684  1115A      2.627460  
    1116A      2.635587  1117A      2.636208  1118A      2.636514  
    1119A      2.642568  1120A      2.642636  1121A      2.648740  
    1122A      2.649937  1123A      2.664139  1124A      2.671963  
    1125A      2.682650  1126A      2.683787  1127A      2.702258  
    1128A      2.714709  1129A      2.718611  1130A      2.719564  
    1131A      2.723466  1132A      2.742687  1133A      2.749025  
    1134A      2.752699  1135A      2.753525  1136A      2.775134  
    1137A      2.776730  1138A      2.778248  1139A      2.779125  
    1140A      2.779484  1141A      2.781844  1142A      2.784881  
    1143A      2.788211  1144A      2.792282  1145A      2.797590  
    1146A      2.817142  1147A      2.832189  1148A      2.848664  
    1149A      2.848845  1150A      2.854344  1151A      2.863855  
    1152A      2.866535  1153A      2.878058  1154A      2.878887  
    1155A      2.890888  1156A      2.896310  1157A      2.939727  
    1158A      2.940634  1159A      2.943913  1160A      2.959073  
    1161A      2.960533  1162A      2.986661  1163A      2.987337  
    1164A      2.996958  1165A      2.997919  1166A      3.034553  
    1167A      3.038073  1168A      3.046292  1169A      3.057974  
    1170A      3.059120  1171A      3.060522  1172A      3.064992  
    1173A      3.072127  1174A      3.073572  1175A      3.075893  
    1176A      3.077404  1177A      3.079328  1178A      3.089630  
    1179A      3.090537  1180A      3.093914  1181A      3.095930  
    1182A      3.098110  1183A      3.118422  1184A      3.120032  
    1185A      3.139585  1186A      3.146876  1187A      3.167739  
    1188A      3.201203  1189A      3.205107  1190A      3.206573  
    1191A      3.215137  1192A      3.218806  1193A      3.342349  
    1194A      3.343149  1195A      3.391931  1196A      3.410296  
    1197A      3.412129  1198A      3.468304  1199A      3.482761  
    1200A      3.509585  1201A      3.525486  1202A      3.548794  
    1203A      3.556230  1204A      3.560794  1205A      3.579568  
    1206A      3.588965  1207A      3.607636  1208A      3.697081  
    1209A      3.711931  1210A      3.724146  1211A      3.797049  
    1212A      3.797219  1213A      3.839321  1214A      3.839845  
    1215A      3.899787  1216A      3.933524  1217A      3.981949  
    1218A      3.989913  1219A      4.045084  

    Final Occupation by Irrep:
              A 
    DOCC [   197 ]
    NA   [   197 ]
    NB   [   197 ]

  @DF-RHF Final Energy: -2359.21262649325536

   => Energetics <=

    Nuclear Repulsion Energy =           8224.7104471353195549
    One-Electron Energy =              -19549.6458012543189398
    Two-Electron Energy =                8965.7227276257435733
    Total Energy =                      -2359.2126264932558115

Computation Completed


Properties will be evaluated at   0.000000,   0.000000,   0.000000 [a0]

Properties computed using the SCF density matrix


 Multipole Moments:

 ------------------------------------------------------------------------------------
     Multipole            Electronic (a.u.)      Nuclear  (a.u.)        Total (a.u.)
 ------------------------------------------------------------------------------------

 L = 1.  Multiply by 2.5417464519 to convert [e a0] to [Debye]
 Dipole X            :         -0.0021631            0.0006313           -0.0015318
 Dipole Y            :         -6.0218556            7.4856329            1.4637774
 Dipole Z            :         16.4904797          -22.0915312           -5.6010515
 Magnitude           :                                                    5.7891644

 ------------------------------------------------------------------------------------

*** tstop() called on d-16-12-3 at Mon Jan 22 22:22:23 2024
Module time:
	user time   =    4935.93 seconds =      82.27 minutes
	system time =     297.16 seconds =       4.95 minutes
	total time  =       1075 seconds =      17.92 minutes
Total time:
	user time   =    4935.93 seconds =      82.27 minutes
	system time =     297.16 seconds =       4.95 minutes
	total time  =       1075 seconds =      17.92 minutes

  //>>>>>>>>>>>>>>>>>>>>>>>>>>>>>>>>>>>//
  //            Monomer A HF           //
  //<<<<<<<<<<<<<<<<<<<<<<<<<<<<<<<<<<<//

   => Libint2 <=

    Primary   basis highest AM E, G, H:  7, 7, 4
    Auxiliary basis highest AM E, G, H:  7, 7, 5
    Onebody   basis highest AM E, G, H:  7, 7, 5
    Solid Harmonics ordering:            gaussian

*** tstart() called on d-16-12-3
*** at Mon Jan 22 22:22:23 2024

   => Loading Basis Set <=

    Name: JUN-CC-PVDZ
    Role: ORBITAL
    Keyword: BASIS
    atoms 1-2, 4-5, 10, 17-70 entry C          line   164 file /home/gridsan/tfroembgen/.conda/envs/psi4test/share/psi4/basis/jun-cc-pvdz.gbs 
    atoms 3, 6                entry N          line   198 file /home/gridsan/tfroembgen/.conda/envs/psi4test/share/psi4/basis/jun-cc-pvdz.gbs 
    atoms 7-9, 11-16, 71-88   entry H          line    36 file /home/gridsan/tfroembgen/.conda/envs/psi4test/share/psi4/basis/jun-cc-pvdz.gbs 


         ---------------------------------------------------------
                                   SCF
               by Justin Turney, Rob Parrish, Andy Simmonett
                          and Daniel G. A. Smith
                              RHF Reference
                       12 Threads,  30517 MiB Core
         ---------------------------------------------------------

  ==> Geometry <==

    Molecular point group: c1
    Full point group: C1

    Geometry (in Angstrom), charge = 1, multiplicity = 1:

       Center              X                  Y                   Z               Mass       
    ------------   -----------------  -----------------  -----------------  -----------------
         C            0.680066520158     1.235968212970    -5.230839494352    12.000000000000
         C           -0.680504479842     1.237996212970    -5.230455494352    12.000000000000
         N           -1.085635479842     1.238994212970    -3.912131494352    14.003074004430
         C            0.000107520158     1.242270212970    -3.130730494352    12.000000000000
         C           -2.477365479842     1.288400212970    -3.444152494352    12.000000000000
         N            1.085221520158     1.238994212970    -3.912131494352    14.003074004430
         H            1.385145520158     1.228140212970    -6.048278494352     1.007825032230
         H           -1.385302479842     1.237806212970    -6.048124494352     1.007825032230
         H           -0.000009479842     1.244017212970    -2.049641494352     1.007825032230
         C            2.478116520158     1.222102212970    -3.447033494352    12.000000000000
         H            2.490591520158     1.249447212970    -2.356780494352     1.007825032230
         H            2.967027520158     0.308656212970    -3.794209494352     1.007825032230
         H            3.001427520158     2.097585212970    -3.838505494352     1.007825032230
         H           -2.857359479842     2.310471212970    -3.524111494352     1.007825032230
         H           -3.082679479842     0.618316212970    -4.057216494352     1.007825032230
         H           -2.518128479842     0.961416212970    -2.404204494352     1.007825032230
      Gh(C)           1.225311895423     0.526248873889     0.591227132932    12.000000000000
      Gh(C)           1.225323856051    -0.888828309601     0.578896323362    12.000000000000
      Gh(C)          -0.000006153932     1.233676499060     0.578362699841    12.000000000000
      Gh(C)           2.456448753949     1.237038472148     0.594113990332    12.000000000000
      Gh(C)           0.000010827279    -1.596265913665     0.588562257165    12.000000000000
      Gh(C)          -1.225300948908     0.526255958954     0.593478653255    12.000000000000
      Gh(C)           2.456437755320    -1.599612718911     0.576651166505    12.000000000000
      Gh(C)          -0.000001332978     2.655511616251     0.575959149707    12.000000000000
      Gh(C)           3.681826697470     0.528028540971     0.576999956303    12.000000000000
      Gh(C)           2.455120048865     2.652934246459     0.576897399342    12.000000000000
      Gh(C)           3.681821105219    -0.890623254459     0.593072440321    12.000000000000
      Gh(C)          -1.225313598688    -0.888816930574     0.579969084789    12.000000000000
      Gh(C)           1.226699581202     3.362180068964     0.593256472252    12.000000000000
      Gh(C)           0.000004784858    -3.018071554266     0.593410424787    12.000000000000
      Gh(C)          -2.456436032848     1.237027503255     0.593514049100    12.000000000000
      Gh(C)           2.455123417779    -3.015519443619     0.592920531954    12.000000000000
      Gh(C)          -1.226714364589     3.362179648720     0.593359805471    12.000000000000
      Gh(C)           4.914517295202     1.245883457459     0.583480639332    12.000000000000
      Gh(C)           3.693150191476     3.361505877515     0.583530438968    12.000000000000
      Gh(C)          -2.456437600068    -1.599602695869     0.576626128380    12.000000000000
      Gh(C)           1.226704841943    -3.724763656937     0.577286341502    12.000000000000
      Gh(C)          -2.455125398508     2.652927247604     0.576903775688    12.000000000000
      Gh(C)           4.914524380782    -1.608476324974     0.586453382067    12.000000000000
      Gh(C)           1.221424613699     4.788844650230     0.586591816326    12.000000000000
      Gh(C)           4.893008229321     2.643898584996     0.584697307691    12.000000000000
      Gh(C)          -1.226697008489    -3.724760412107     0.577553545912    12.000000000000
      Gh(C)          -3.681818976526     0.528035551702     0.577012636783    12.000000000000
      Gh(C)           3.693147101150    -3.724090756421     0.586571272628    12.000000000000
      Gh(C)          -1.221432251994     4.788838882833     0.586775311699    12.000000000000
      Gh(C)           6.134770972926     0.499258532075     0.584250413882    12.000000000000
      Gh(C)           3.656788880610     4.791663828537     0.584439076751    12.000000000000
      Gh(C)          -2.455126907733    -3.015504508091     0.592676174155    12.000000000000
      Gh(C)          -3.681819179061    -0.890615118499     0.593190061900    12.000000000000
      Gh(C)           4.893012617914    -3.006489520662     0.585308459586    12.000000000000
      Gh(C)          -0.000001073113     5.469157951002     0.585544002992    12.000000000000
      Gh(C)           6.134775112332    -0.861844269105     0.585515734398    12.000000000000
      Gh(C)           2.478131482856     5.472287336301     0.585727856401    12.000000000000
      Gh(C)           1.221422404738    -5.151416469963     0.583792319304    12.000000000000
      Gh(C)          -3.693162383965     3.361507539162     0.583695946428    12.000000000000
      Gh(C)          -1.221428520945    -5.151407718626     0.583679557471    12.000000000000
      Gh(C)          -4.914521807942     1.245886031965     0.583557584340    12.000000000000
      Gh(C)           3.656787019679    -5.154244641269     0.585889577285    12.000000000000
      Gh(C)          -2.478138530106     5.472285007498     0.586012381409    12.000000000000
      Gh(C)          -3.693141738564    -3.724079634009     0.586455146472    12.000000000000
      Gh(C)          -4.914512483053    -1.608470415058     0.586488079240    12.000000000000
      Gh(C)          -0.000006008926    -5.831727702044     0.585148498871    12.000000000000
      Gh(C)          -4.893020484101     2.643899183889     0.584687225831    12.000000000000
      Gh(C)           2.478125993298    -5.834862958919     0.584798976493    12.000000000000
      Gh(C)          -3.656798710258     4.791666767011     0.584615757126    12.000000000000
      Gh(C)          -4.892999478856    -3.006481182090     0.585154423889    12.000000000000
      Gh(C)          -2.478128498083    -5.834855585037     0.584523788846    12.000000000000
      Gh(C)          -6.134770503331     0.499259351226     0.584224862180    12.000000000000
      Gh(C)          -3.656788833189    -5.154233438001     0.585675289468    12.000000000000
      Gh(C)          -6.134765042913    -0.861843330512     0.585495258603    12.000000000000
      Gh(H)           5.835288495816     3.187986479924     0.589056633354     1.007825032230
      Gh(H)           7.073859172747     1.046927833869     0.584712057275     1.007825032230
      Gh(H)           4.600663264174     5.331091387423     0.584944277503     1.007825032230
      Gh(H)           5.835283387305    -3.550595471759     0.580853992272     1.007825032230
      Gh(H)          -0.000012151306     6.557241259106     0.581194757984     1.007825032230
      Gh(H)           7.073861171831    -1.409516357774     0.585006996304     1.007825032230
      Gh(H)           2.473313731799     6.559394876364     0.585261135470     1.007825032230
      Gh(H)           4.600668491381    -5.693665544206     0.585479580117     1.007825032230
      Gh(H)          -2.473318680537     6.559392304576     0.585562482095     1.007825032230
      Gh(H)          -0.000010268228    -6.919817591482     0.589678183856     1.007825032230
      Gh(H)          -5.835301914343     3.187981535266     0.589192655502     1.007825032230
      Gh(H)           2.473307923831    -6.921974789459     0.585369306918     1.007825032230
      Gh(H)          -4.600674841208     5.331088611573     0.585109605827     1.007825032230
      Gh(H)          -5.835279506835    -3.550578378810     0.580574686391     1.007825032230
      Gh(H)          -2.473300347440    -6.921968493170     0.584919990373     1.007825032230
      Gh(H)          -7.073857766768     1.046931057810     0.584628065794     1.007825032230
      Gh(H)          -4.600673786085    -5.693652084817     0.585307272094     1.007825032230
      Gh(H)          -7.073856934409    -1.409510047007     0.584912139837     1.007825032230

  Running in c1 symmetry.

  Rotational constants: A =      0.00175  B =      0.00175  C =      0.00108 [cm^-1]
  Rotational constants: A =     52.42114  B =     52.33252  C =     32.24380 [MHz]
  Nuclear repulsion =  306.774908447733026

  Charge       = 1
  Multiplicity = 1
  Electrons    = 52
  Nalpha       = 26
  Nbeta        = 26

  ==> Algorithm <==

  SCF Algorithm Type is DF.
  DIIS enabled.
  MOM disabled.
  Fractional occupation disabled.
  Guess Type is SAD.
  Energy threshold   = 1.00e-08
  Density threshold  = 1.00e-08
  Integral threshold = 1.00e-12

  ==> Primary Basis <==

  Basis Set: JUN-CC-PVDZ
    Blend: JUN-CC-PVDZ
    Number of shells: 569
    Number of basis functions: 1233
    Number of Cartesian functions: 1294
    Spherical Harmonics?: true
    Max angular momentum: 2

   => Loading Basis Set <=

    Name: (JUN-CC-PVDZ AUX)
    Role: JKFIT
    Keyword: DF_BASIS_SCF
    atoms 1-2, 4-5, 10, 17-70 entry C          line   146 file /home/gridsan/tfroembgen/.conda/envs/psi4test/share/psi4/basis/jun-cc-pvdz-jkfit.gbs 
    atoms 3, 6                entry N          line   202 file /home/gridsan/tfroembgen/.conda/envs/psi4test/share/psi4/basis/jun-cc-pvdz-jkfit.gbs 
    atoms 7-9, 11-16, 71-88   entry H          line    70 file /home/gridsan/tfroembgen/.conda/envs/psi4test/share/psi4/basis/jun-cc-pvdz-jkfit.gbs 

  ==> Integral Setup <==

  ==> DiskDFJK: Density-Fitted J/K Matrices <==

    J tasked:                  Yes
    K tasked:                  Yes
    wK tasked:                  No
    OpenMP threads:             12
    Integrals threads:          12
    Memory [MiB]:            22888
    Algorithm:                Disk
    Integral Cache:           LOAD
    Schwarz Cutoff:          1E-12
    Fitting Condition:       1E-10

   => Auxiliary Basis Set <=

  Basis Set: (JUN-CC-PVDZ AUX)
    Blend: JUN-CC-PVDZ-JKFIT
    Number of shells: 1890
    Number of basis functions: 5440
    Number of Cartesian functions: 6226
    Spherical Harmonics?: true
    Max angular momentum: 3

  Minimum eigenvalue in the overlap matrix is 7.4026821670E-10.
  Reciprocal condition number of the overlap matrix is 3.1392011332E-11.
    Using canonical orthogonalization.
  Overall, 14 of 1233 possible MOs eliminated.


  ==> Pre-Iterations <==

  SCF Guess: Superposition of Atomic Densities via on-the-fly atomic UHF (no occupation information).

   -------------------------
    Irrep   Nso     Nmo    
   -------------------------
     A       1233    1219 
   -------------------------
    Total    1233    1219
   -------------------------

  ==> Iterations <==

                           Total Energy        Delta E     RMS |[F,P]|

   @DF-RHF iter SAD:  -303.36535999648117   -3.03365e+02   0.00000e+00 
   @DF-RHF iter   1:  -303.17005026481496    1.95310e-01   3.44629e-04 DIIS/ADIIS
   @DF-RHF iter   2:  -303.28446872222133   -1.14418e-01   1.16027e-04 DIIS/ADIIS
   @DF-RHF iter   3:  -303.29596619154415   -1.14975e-02   4.54616e-05 DIIS
   @DF-RHF iter   4:  -303.29788475366297   -1.91856e-03   9.95171e-06 DIIS
   @DF-RHF iter   5:  -303.29799215300335   -1.07399e-04   2.43297e-06 DIIS
   @DF-RHF iter   6:  -303.29800159724897   -9.44425e-06   6.56749e-07 DIIS
   @DF-RHF iter   7:  -303.29800268452709   -1.08728e-06   3.34752e-07 DIIS
   @DF-RHF iter   8:  -303.29800294255210   -2.58025e-07   1.34723e-07 DIIS
   @DF-RHF iter   9:  -303.29800299209904   -4.95469e-08   3.36867e-08 DIIS
   @DF-RHF iter  10:  -303.29800299492462   -2.82557e-09   1.24989e-08 DIIS
   @DF-RHF iter  11:  -303.29800299516450   -2.39879e-10   2.88611e-09 DIIS
  Energy and wave function converged.


  ==> Post-Iterations <==

    Orbital Energies [Eh]
    ---------------------

    Doubly Occupied:                                                      

       1A    -15.834543     2A    -15.834021     3A    -11.529324  
       4A    -11.459704     5A    -11.458149     6A    -11.449595  
       7A    -11.449495     8A     -1.577884     9A     -1.433500  
      10A     -1.238359    11A     -1.189083    12A     -1.118687  
      13A     -1.022233    14A     -0.996684    15A     -0.916805  
      16A     -0.850289    17A     -0.816007    18A     -0.812908  
      19A     -0.789864    20A     -0.786058    21A     -0.781503  
      22A     -0.729548    23A     -0.725638    24A     -0.717014  
      25A     -0.596037    26A     -0.523628  

    Virtual:                                                              

      27A     -0.079317    28A     -0.073190    29A     -0.062070  
      30A     -0.054119    31A     -0.042063    32A     -0.039476  
      33A     -0.039252    34A     -0.038174    35A     -0.036771  
      36A     -0.027337    37A     -0.026845    38A     -0.019312  
      39A     -0.017547    40A     -0.014671    41A     -0.012500  
      42A     -0.012201    43A     -0.010769    44A     -0.008814  
      45A     -0.004905    46A      0.002158    47A      0.003797  
      48A      0.006357    49A      0.007576    50A      0.008591  
      51A      0.013230    52A      0.013728    53A      0.015231  
      54A      0.018008    55A      0.021264    56A      0.023987  
      57A      0.024883    58A      0.030530    59A      0.030991  
      60A      0.032361    61A      0.038777    62A      0.039275  
      63A      0.041673    64A      0.042017    65A      0.042805  
      66A      0.043974    67A      0.049499    68A      0.051458  
      69A      0.054089    70A      0.054885    71A      0.056819  
      72A      0.057096    73A      0.058647    74A      0.061382  
      75A      0.062040    76A      0.063881    77A      0.067585  
      78A      0.068469    79A      0.069068    80A      0.070611  
      81A      0.071946    82A      0.074453    83A      0.075448  
      84A      0.076319    85A      0.078973    86A      0.081909  
      87A      0.082850    88A      0.083271    89A      0.083677  
      90A      0.087614    91A      0.088409    92A      0.089414  
      93A      0.093374    94A      0.094162    95A      0.094742  
      96A      0.095498    97A      0.100166    98A      0.103147  
      99A      0.103657   100A      0.105674   101A      0.107205  
     102A      0.107368   103A      0.108149   104A      0.110104  
     105A      0.112947   106A      0.113568   107A      0.114401  
     108A      0.115787   109A      0.116640   110A      0.117188  
     111A      0.118755   112A      0.119899   113A      0.124352  
     114A      0.124454   115A      0.125822   116A      0.127071  
     117A      0.129850   118A      0.131697   119A      0.132754  
     120A      0.134836   121A      0.136830   122A      0.137192  
     123A      0.140480   124A      0.141267   125A      0.143621  
     126A      0.144242   127A      0.146544   128A      0.148654  
     129A      0.149934   130A      0.150418   131A      0.152626  
     132A      0.154501   133A      0.155012   134A      0.156399  
     135A      0.158705   136A      0.158963   137A      0.160249  
     138A      0.161838   139A      0.165401   140A      0.165937  
     141A      0.167709   142A      0.168646   143A      0.171697  
     144A      0.173469   145A      0.174957   146A      0.176150  
     147A      0.176239   148A      0.178399   149A      0.179349  
     150A      0.180409   151A      0.181142   152A      0.181654  
     153A      0.183917   154A      0.184728   155A      0.186914  
     156A      0.187861   157A      0.193394   158A      0.194294  
     159A      0.197438   160A      0.199227   161A      0.200643  
     162A      0.204635   163A      0.204725   164A      0.205499  
     165A      0.206659   166A      0.207891   167A      0.210649  
     168A      0.212583   169A      0.213386   170A      0.214471  
     171A      0.215521   172A      0.218413   173A      0.220047  
     174A      0.221716   175A      0.223319   176A      0.223869  
     177A      0.224536   178A      0.225534   179A      0.227048  
     180A      0.228361   181A      0.229422   182A      0.230952  
     183A      0.232871   184A      0.234133   185A      0.235984  
     186A      0.238572   187A      0.239048   188A      0.239738  
     189A      0.241842   190A      0.243883   191A      0.246949  
     192A      0.249343   193A      0.254626   194A      0.255978  
     195A      0.258945   196A      0.262107   197A      0.264232  
     198A      0.264972   199A      0.266284   200A      0.268783  
     201A      0.271336   202A      0.272127   203A      0.274365  
     204A      0.276393   205A      0.278017   206A      0.278899  
     207A      0.281376   208A      0.282934   209A      0.283717  
     210A      0.285125   211A      0.287187   212A      0.287926  
     213A      0.289647   214A      0.291461   215A      0.293008  
     216A      0.294478   217A      0.294977   218A      0.295795  
     219A      0.300210   220A      0.300848   221A      0.303207  
     222A      0.305557   223A      0.308196   224A      0.311060  
     225A      0.312178   226A      0.314351   227A      0.315606  
     228A      0.316895   229A      0.318146   230A      0.321513  
     231A      0.323840   232A      0.324787   233A      0.328929  
     234A      0.332860   235A      0.337140   236A      0.339338  
     237A      0.340823   238A      0.344948   239A      0.347412  
     240A      0.352018   241A      0.354980   242A      0.355668  
     243A      0.356701   244A      0.358640   245A      0.359116  
     246A      0.359199   247A      0.360009   248A      0.363689  
     249A      0.365276   250A      0.368775   251A      0.371057  
     252A      0.373657   253A      0.375278   254A      0.378332  
     255A      0.379671   256A      0.382725   257A      0.382970  
     258A      0.383885   259A      0.384698   260A      0.387406  
     261A      0.389430   262A      0.391193   263A      0.391997  
     264A      0.394122   265A      0.396348   266A      0.397830  
     267A      0.399180   268A      0.400056   269A      0.402452  
     270A      0.404021   271A      0.405591   272A      0.408251  
     273A      0.408948   274A      0.410338   275A      0.411633  
     276A      0.415053   277A      0.415421   278A      0.418436  
     279A      0.420183   280A      0.424629   281A      0.426164  
     282A      0.429641   283A      0.431062   284A      0.431960  
     285A      0.436650   286A      0.438104   287A      0.439289  
     288A      0.440803   289A      0.442616   290A      0.445334  
     291A      0.447249   292A      0.448373   293A      0.448704  
     294A      0.452452   295A      0.455302   296A      0.456987  
     297A      0.459223   298A      0.459737   299A      0.460952  
     300A      0.463235   301A      0.463724   302A      0.467200  
     303A      0.471313   304A      0.472750   305A      0.473977  
     306A      0.474950   307A      0.477781   308A      0.479875  
     309A      0.484716   310A      0.488012   311A      0.490494  
     312A      0.495640   313A      0.496283   314A      0.499386  
     315A      0.502840   316A      0.503902   317A      0.505170  
     318A      0.507122   319A      0.509604   320A      0.510204  
     321A      0.512028   322A      0.513394   323A      0.519731  
     324A      0.522131   325A      0.522921   326A      0.524443  
     327A      0.526153   328A      0.529643   329A      0.530646  
     330A      0.536552   331A      0.538311   332A      0.539669  
     333A      0.540157   334A      0.543949   335A      0.544201  
     336A      0.546925   337A      0.549072   338A      0.550117  
     339A      0.554421   340A      0.556400   341A      0.560024  
     342A      0.563290   343A      0.564717   344A      0.566580  
     345A      0.568994   346A      0.570966   347A      0.573773  
     348A      0.574400   349A      0.575840   350A      0.577627  
     351A      0.585422   352A      0.587874   353A      0.590210  
     354A      0.594540   355A      0.596587   356A      0.601225  
     357A      0.603852   358A      0.604183   359A      0.604580  
     360A      0.606053   361A      0.608735   362A      0.610686  
     363A      0.612520   364A      0.614150   365A      0.617081  
     366A      0.617833   367A      0.621011   368A      0.622449  
     369A      0.624056   370A      0.627314   371A      0.629101  
     372A      0.635406   373A      0.638158   374A      0.639100  
     375A      0.642446   376A      0.645316   377A      0.649573  
     378A      0.652942   379A      0.655253   380A      0.665384  
     381A      0.673005   382A      0.676118   383A      0.676732  
     384A      0.682204   385A      0.683488   386A      0.684006  
     387A      0.685853   388A      0.686561   389A      0.689978  
     390A      0.690179   391A      0.691921   392A      0.693024  
     393A      0.693543   394A      0.694806   395A      0.697460  
     396A      0.700960   397A      0.707483   398A      0.709626  
     399A      0.713040   400A      0.713552   401A      0.716522  
     402A      0.717199   403A      0.719546   404A      0.720110  
     405A      0.727257   406A      0.729360   407A      0.730577  
     408A      0.733741   409A      0.739225   410A      0.744309  
     411A      0.746919   412A      0.752278   413A      0.753585  
     414A      0.764614   415A      0.769995   416A      0.771052  
     417A      0.774056   418A      0.776043   419A      0.777844  
     420A      0.779524   421A      0.783442   422A      0.785276  
     423A      0.793792   424A      0.798810   425A      0.801334  
     426A      0.803909   427A      0.804491   428A      0.808286  
     429A      0.812236   430A      0.813310   431A      0.819436  
     432A      0.820608   433A      0.822899   434A      0.824177  
     435A      0.829055   436A      0.837293   437A      0.838628  
     438A      0.841038   439A      0.853815   440A      0.858215  
     441A      0.865136   442A      0.870917   443A      0.880361  
     444A      0.881090   445A      0.884240   446A      0.887830  
     447A      0.892432   448A      0.897216   449A      0.900456  
     450A      0.904141   451A      0.916972   452A      0.921792  
     453A      0.927463   454A      0.928067   455A      0.928992  
     456A      0.935008   457A      0.938743   458A      0.943963  
     459A      0.944436   460A      0.953234   461A      0.956283  
     462A      0.957066   463A      0.969459   464A      0.981675  
     465A      0.982648   466A      0.985949   467A      0.987401  
     468A      0.991627   469A      0.991985   470A      1.016181  
     471A      1.019560   472A      1.025217   473A      1.027970  
     474A      1.029357   475A      1.036538   476A      1.041284  
     477A      1.072515   478A      1.072760   479A      1.074916  
     480A      1.076192   481A      1.082639   482A      1.082989  
     483A      1.097347   484A      1.104828   485A      1.105489  
     486A      1.106178   487A      1.108503   488A      1.116899  
     489A      1.118009   490A      1.123152   491A      1.131594  
     492A      1.140336   493A      1.142305   494A      1.146125  
     495A      1.147247   496A      1.151509   497A      1.156280  
     498A      1.169445   499A      1.171480   500A      1.193568  
     501A      1.208585   502A      1.214478   503A      1.215836  
     504A      1.224128   505A      1.225416   506A      1.226690  
     507A      1.245253   508A      1.245837   509A      1.246842  
     510A      1.247672   511A      1.288826   512A      1.289084  
     513A      1.289887   514A      1.300174   515A      1.342226  
     516A      1.359123   517A      1.359939   518A      1.371203  
     519A      1.374030   520A      1.379438   521A      1.382432  
     522A      1.384224   523A      1.385346   524A      1.392194  
     525A      1.395284   526A      1.404685   527A      1.408481  
     528A      1.431789   529A      1.451915   530A      1.458884  
     531A      1.459164   532A      1.473141   533A      1.478291  
     534A      1.484215   535A      1.486543   536A      1.491388  
     537A      1.494798   538A      1.503430   539A      1.523575  
     540A      1.537649   541A      1.547587   542A      1.560237  
     543A      1.569591   544A      1.573634   545A      1.575470  
     546A      1.577224   547A      1.584690   548A      1.587233  
     549A      1.594109   550A      1.604624   551A      1.608088  
     552A      1.613031   553A      1.616565   554A      1.634330  
     555A      1.637824   556A      1.663148   557A      1.666300  
     558A      1.667456   559A      1.674242   560A      1.675126  
     561A      1.678149   562A      1.680519   563A      1.682773  
     564A      1.683817   565A      1.686640   566A      1.688060  
     567A      1.694209   568A      1.705192   569A      1.709281  
     570A      1.712923   571A      1.714508   572A      1.715948  
     573A      1.722681   574A      1.722728   575A      1.727077  
     576A      1.731232   577A      1.733870   578A      1.738681  
     579A      1.744559   580A      1.746192   581A      1.747488  
     582A      1.747826   583A      1.755334   584A      1.756318  
     585A      1.758186   586A      1.760218   587A      1.763370  
     588A      1.770081   589A      1.772070   590A      1.772282  
     591A      1.780577   592A      1.780839   593A      1.781764  
     594A      1.782799   595A      1.785077   596A      1.790890  
     597A      1.797466   598A      1.799953   599A      1.800702  
     600A      1.803519   601A      1.806477   602A      1.809986  
     603A      1.812648   604A      1.816325   605A      1.818909  
     606A      1.819891   607A      1.824433   608A      1.826275  
     609A      1.826706   610A      1.828152   611A      1.830026  
[...]
     808A      1.702371   809A      1.705019   810A      1.707289  
     811A      1.716497   812A      1.719487   813A      1.728484  
     814A      1.742078   815A      1.745348   816A      1.751836  
     817A      1.760899   818A      1.761496   819A      1.761982  
     820A      1.763324   821A      1.769429   822A      1.776109  
     823A      1.778134   824A      1.788834   825A      1.792198  
     826A      1.792753   827A      1.800011   828A      1.810686  
     829A      1.818224   830A      1.818302   831A      1.821689  
     832A      1.825090   833A      1.825518   834A      1.833673  
     835A      1.835982   836A      1.839151   837A      1.841143  
     838A      1.843004   839A      1.850492   840A      1.861464  
     841A      1.863483   842A      1.863999   843A      1.865618  
     844A      1.865913   845A      1.872701   846A      1.878246  
     847A      1.878586   848A      1.880974   849A      1.896223  
     850A      1.896441   851A      1.899892   852A      1.901370  
     853A      1.904368   854A      1.907134   855A      1.910386  
     856A      1.910763   857A      1.911739   858A      1.916330  
     859A      1.918278   860A      1.919314   861A      1.920060  
     862A      1.921024   863A      1.922471   864A      1.923296  
     865A      1.931630   866A      1.941311   867A      1.943351  
     868A      1.945875   869A      1.947087   870A      1.948875  
     871A      1.949724   872A      1.951013   873A      1.954214  
     874A      1.956387   875A      1.957813   876A      1.958406  
     877A      1.958621   878A      1.960577   879A      1.968340  
     880A      1.976507   881A      1.981020   882A      1.986583  
     883A      1.989810   884A      1.991715   885A      1.997801  
     886A      2.002351   887A      2.002679   888A      2.007471  
     889A      2.008985   890A      2.009619   891A      2.014330  
     892A      2.022841   893A      2.026315   894A      2.032697  
     895A      2.032794   896A      2.033106   897A      2.034258  
     898A      2.035440   899A      2.037478   900A      2.043688  
     901A      2.049315   902A      2.053634   903A      2.054556  
     904A      2.057127   905A      2.060408   906A      2.061596  
     907A      2.065508   908A      2.069192   909A      2.072179  
     910A      2.072874   911A      2.075044   912A      2.077497  
     913A      2.079707   914A      2.081586   915A      2.081896  
     916A      2.088021   917A      2.090192   918A      2.092368  
     919A      2.095991   920A      2.098449   921A      2.100090  
     922A      2.100478   923A      2.101680   924A      2.107184  
     925A      2.108844   926A      2.110272   927A      2.110543  
     928A      2.111521   929A      2.112734   930A      2.116477  
     931A      2.119207   932A      2.119562   933A      2.120085  
     934A      2.122135   935A      2.122927   936A      2.126594  
     937A      2.128344   938A      2.129335   939A      2.130233  
     940A      2.136310   941A      2.137041   942A      2.139355  
     943A      2.143299   944A      2.143538   945A      2.144031  
     946A      2.155926   947A      2.158158   948A      2.160863  
     949A      2.161552   950A      2.163266   951A      2.164767  
     952A      2.169195   953A      2.171416   954A      2.180239  
     955A      2.182498   956A      2.183838   957A      2.188462  
     958A      2.191266   959A      2.192389   960A      2.194202  
     961A      2.194494   962A      2.197440   963A      2.199025  
     964A      2.203320   965A      2.205259   966A      2.207191  
     967A      2.219452   968A      2.220567   969A      2.222635  
     970A      2.225845   971A      2.226828   972A      2.230396  
     973A      2.232921   974A      2.236405   975A      2.242752  
     976A      2.245236   977A      2.246104   978A      2.247770  
     979A      2.248496   980A      2.250509   981A      2.252656  
     982A      2.262230   983A      2.263150   984A      2.270230  
     985A      2.271495   986A      2.273204   987A      2.273974  
     988A      2.280805   989A      2.293280   990A      2.300184  
     991A      2.303681   992A      2.304926   993A      2.307497  
     994A      2.310106   995A      2.316455   996A      2.319124  
     997A      2.326085   998A      2.330042   999A      2.332315  
    1000A      2.335487  1001A      2.339673  1002A      2.340506  
    1003A      2.344001  1004A      2.353745  1005A      2.354297  
    1006A      2.357145  1007A      2.358764  1008A      2.363895  
    1009A      2.367424  1010A      2.375910  1011A      2.380459  
    1012A      2.384480  1013A      2.395438  1014A      2.401649  
    1015A      2.416970  1016A      2.421825  1017A      2.424480  
    1018A      2.425004  1019A      2.425791  1020A      2.436740  
    1021A      2.442848  1022A      2.446055  1023A      2.448636  
    1024A      2.459131  1025A      2.471047  1026A      2.476604  
    1027A      2.480959  1028A      2.488495  1029A      2.490846  
    1030A      2.499523  1031A      2.503730  1032A      2.517203  
    1033A      2.522346  1034A      2.527294  1035A      2.528628  
    1036A      2.537036  1037A      2.538472  1038A      2.544973  
    1039A      2.549186  1040A      2.552442  1041A      2.555445  
    1042A      2.556436  1043A      2.557321  1044A      2.560503  
    1045A      2.560841  1046A      2.563345  1047A      2.573732  
    1048A      2.573912  1049A      2.577390  1050A      2.580173  
    1051A      2.582882  1052A      2.586438  1053A      2.589775  
    1054A      2.592465  1055A      2.592894  1056A      2.594914  
    1057A      2.610413  1058A      2.622816  1059A      2.625873  
    1060A      2.627382  1061A      2.634094  1062A      2.636210  
    1063A      2.641881  1064A      2.644385  1065A      2.651577  
    1066A      2.653170  1067A      2.656142  1068A      2.657535  
    1069A      2.669183  1070A      2.684954  1071A      2.686820  
    1072A      2.689191  1073A      2.691548  1074A      2.693879  
    1075A      2.703356  1076A      2.704537  1077A      2.712454  
    1078A      2.713538  1079A      2.714889  1080A      2.717097  
    1081A      2.719100  1082A      2.719714  1083A      2.721246  
    1084A      2.725863  1085A      2.731069  1086A      2.751456  
    1087A      2.756351  1088A      2.758328  1089A      2.777929  
    1090A      2.781480  1091A      2.784784  1092A      2.794660  
    1093A      2.798782  1094A      2.799525  1095A      2.820976  
    1096A      2.830150  1097A      2.830926  1098A      2.854193  
    1099A      2.856058  1100A      2.856446  1101A      2.858720  
    1102A      2.861123  1103A      2.866869  1104A      2.871016  
    1105A      2.903545  1106A      2.917117  1107A      2.918917  
    1108A      2.921333  1109A      2.925568  1110A      2.927719  
    1111A      2.938682  1112A      2.940665  1113A      2.949567  
    1114A      2.952885  1115A      2.955454  1116A      2.959977  
    1117A      2.964958  1118A      2.977963  1119A      2.997308  
    1120A      3.012625  1121A      3.017995  1122A      3.028168  
    1123A      3.034646  1124A      3.037711  1125A      3.064483  
    1126A      3.065044  1127A      3.069077  1128A      3.072908  
    1129A      3.076720  1130A      3.087604  1131A      3.112146  
    1132A      3.118626  1133A      3.125927  1134A      3.134485  
    1135A      3.134988  1136A      3.136710  1137A      3.139519  
    1138A      3.148002  1139A      3.148564  1140A      3.150180  
    1141A      3.153004  1142A      3.156280  1143A      3.164382  
    1144A      3.166153  1145A      3.167938  1146A      3.174030  
    1147A      3.185235  1148A      3.192734  1149A      3.212356  
    1150A      3.223143  1151A      3.241839  1152A      3.278586  
    1153A      3.280226  1154A      3.281704  1155A      3.290471  
    1156A      3.294936  1157A      3.301892  1158A      3.342783  
    1159A      3.395484  1160A      3.421572  1161A      3.423269  
    1162A      3.452509  1163A      3.489809  1164A      3.491518  
    1165A      3.503654  1166A      3.544613  1167A      3.557327  
    1168A      3.587751  1169A      3.596997  1170A      3.604247  
    1171A      3.629384  1172A      3.632246  1173A      3.634179  
    1174A      3.656709  1175A      3.665059  1176A      3.679807  
    1177A      3.763707  1178A      3.773781  1179A      3.788803  
    1180A      3.793523  1181A      3.831907  1182A      3.871081  
    1183A      3.872069  1184A      3.877865  1185A      3.915301  
    1186A      3.915787  1187A      3.977931  1188A      4.004724  
    1189A      4.011787  1190A      4.064002  1191A      4.074337  
    1192A      4.130471  1193A      4.224948  1194A      4.253814  
    1195A      4.404574  1196A      4.417563  1197A      4.510238  
    1198A      4.785367  1199A      4.847803  1200A      4.857336  
    1201A      4.885233  1202A      4.964763  1203A      5.080345  
    1204A      5.084178  1205A      5.091821  1206A      5.131092  
    1207A      5.206381  1208A      5.413185  1209A      5.438810  
    1210A      5.759004  1211A      5.786032  1212A      6.078588  
    1213A     18.204642  1214A     18.480052  1215A     18.500241  
    1216A     18.586044  1217A     18.851139  1218A     25.354014  
    1219A     25.389408  

    Final Occupation by Irrep:
              A 
    DOCC [   171 ]
    NA   [   171 ]
    NB   [   171 ]

  @DF-RHF Final Energy: -2055.89460517410498

   => Energetics <=

    Nuclear Repulsion Energy =           6452.5568002797781446
    One-Electron Energy =              -15636.5080107705161936
    Two-Electron Energy =                7128.0566053166321581
    Total Energy =                      -2055.8946051741049814

Computation Completed


Properties will be evaluated at   0.000000,   0.000000,   0.000000 [a0]

Properties computed using the SCF density matrix


 Multipole Moments:

 ------------------------------------------------------------------------------------
     Multipole            Electronic (a.u.)      Nuclear  (a.u.)        Total (a.u.)
 ------------------------------------------------------------------------------------

 L = 1.  Multiply by 2.5417464519 to convert [e a0] to [Debye]
 Dipole X            :         -0.0001862           -0.0000085           -0.0001947
 Dipole Y            :        117.1719532         -117.1648546            0.0070986
 Dipole Z            :       -378.1298566          378.1339092            0.0040527
 Magnitude           :                                                    0.0081763

 ------------------------------------------------------------------------------------

*** tstop() called on d-16-12-3 at Mon Jan 22 22:34:30 2024
Module time:
	user time   =    2673.07 seconds =      44.55 minutes
	system time =     138.10 seconds =       2.30 minutes
	total time  =        420 seconds =       7.00 minutes
Total time:
	user time   =    9403.09 seconds =     156.72 minutes
	system time =     583.29 seconds =       9.72 minutes
	total time  =       1802 seconds =      30.03 minutes
  Constructing Basis Sets for SAPT...

   => Loading Basis Set <=

    Name: (JUN-CC-PVDZ AUX)
    Role: RIFIT
    Keyword: DF_BASIS_SAPT
    atoms 1-2, 4-5, 10, 17-70 entry C          line   100 file /home/gridsan/tfroembgen/.conda/envs/psi4test/share/psi4/basis/jun-cc-pvdz-ri.gbs 
    atoms 3, 6                entry N          line   144 file /home/gridsan/tfroembgen/.conda/envs/psi4test/share/psi4/basis/jun-cc-pvdz-ri.gbs 
    atoms 7-9, 11-16, 71-88   entry H          line    30 file /home/gridsan/tfroembgen/.conda/envs/psi4test/share/psi4/basis/jun-cc-pvdz-ri.gbs 

   => Loading Basis Set <=

    Name: (JUN-CC-PVDZ AUX)
    Role: JKFIT
    Keyword: DF_BASIS_ELST
    atoms 1-2, 4-5, 10, 17-70 entry C          line   146 file /home/gridsan/tfroembgen/.conda/envs/psi4test/share/psi4/basis/jun-cc-pvdz-jkfit.gbs 
    atoms 3, 6                entry N          line   202 file /home/gridsan/tfroembgen/.conda/envs/psi4test/share/psi4/basis/jun-cc-pvdz-jkfit.gbs 
    atoms 7-9, 11-16, 71-88   entry H          line    70 file /home/gridsan/tfroembgen/.conda/envs/psi4test/share/psi4/basis/jun-cc-pvdz-jkfit.gbs 


  //>>>>>>>>>>>>>>>>>>>>>>>>>>>>>>>>>>>//
  //               SSAPT0              //
  //<<<<<<<<<<<<<<<<<<<<<<<<<<<<<<<<<<<//


*** tstart() called on d-16-12-3
*** at Mon Jan 22 22:34:31 2024

        SAPT0  
    Ed Hohenstein
     6 June 2009

      Orbital Information
  --------------------------
    NSO        =      1233
    NMO        =      1219
    NRI        =      4343
    NRI (Elst) =      5440
    NOCC A     =        26
    NOCC B     =       171
    FOCC A     =         7
    FOCC B     =        54
    NVIR A     =      1193
    NVIR B     =      1048

    Elst10,r            =    -0.014008658088 [Eh]
    Exch10              =     0.006298969595 [Eh]
    Exch10 (S^2)        =     0.006286313349 [Eh]

    Iter     Energy [mEh]          dE [mEh]         Residual      Time [s]
       1      -0.32557930       0.325579304       2.970395921           267
       2      -0.35724281       0.031663507       1.058947929           554
       3      -0.37782656       0.020583754       0.139424166           824
       4      -0.37746583      -0.000360733       0.060109020          1142
       5      -0.37722294      -0.000242889       0.021140721          1443
       6      -0.37730580       0.000082861       0.007738160          1535
       7      -0.37732439       0.000018585       0.002567620          1553
       8      -0.37732079      -0.000003594       0.000842099          1572
       9      -0.37731799      -0.000002808       0.000263769          1590
      10      -0.37731789      -0.000000093       0.000076421          1907
      11      -0.37731817       0.000000279       0.000019751          2333
      12      -0.37731818       0.000000008       0.000006700          2495
      13      -0.37731816      -0.000000016       0.000001750          2754
      14      -0.37731816      -0.000000001       0.000000604          3015

    CHF Iterations converged


    Iter     Energy [mEh]          dE [mEh]         Residual      Time [s]
       1     -15.87953116      15.879531160      63.911551759           295
       2     -11.23103530      -4.648495862       9.033792875           578
       3     -11.36161047       0.130575170       3.682873352           632
       4     -11.70596003       0.344349557       0.845377273           671
       5     -11.72062513       0.014665103       0.301196996           702
       6     -11.71017384      -0.010451287       0.147076971           732
       7     -11.70784109      -0.002332755       0.063231458           755
       8     -11.70905054       0.001209453       0.033752226           778
       9     -11.70964731       0.000596774       0.013365208           833
      10     -11.70955482      -0.000092496       0.009149197           904
      11     -11.70939976      -0.000155059       0.005127737           935
      12     -11.70943520       0.000035441       0.003054888           962
      13     -11.70946823       0.000033026       0.001587976           989
      14     -11.70946916       0.000000936       0.000792060          1018
      15     -11.70945840      -0.000010765       0.000433614          1051
      16     -11.70945698      -0.000001419       0.000191098          1079
      17     -11.70945978       0.000002805       0.000094229          1100
      18     -11.70946024       0.000000453       0.000050310          1121
      19     -11.70945968      -0.000000558       0.000026148          1266
      20     -11.70945948      -0.000000193       0.000010111          1375
      21     -11.70945959       0.000000104       0.000005512          1414
      22     -11.70945964       0.000000052       0.000002645          1490
      23     -11.70945962      -0.000000026       0.000001631          1517
      24     -11.70945960      -0.000000013       0.000000736          1558

    CHF Iterations converged

    Ind20,r (A<-B)      =    -0.000377318162 [Eh]
    Ind20,r (B<-A)      =    -0.011709459603 [Eh]
    Ind20,r             =    -0.012086777765 [Eh]
    Exch-Ind20,r (A<-B) =     0.000317785437 [Eh]
    Exch-Ind20,r (B<-A) =     0.001231941821 [Eh]
    Exch-Ind20,r        =     0.001549727258 [Eh]
    Disp20              =    -0.015196246875 [Eh]
    Disp20 (SS)         =    -0.007598123437 [Eh]
    Disp20 (OS)         =    -0.007598123437 [Eh]
    Exch-Disp20         =     0.000566458313 [Eh]
    Exch-Disp20 (SS)    =     0.000350994728 [Eh]
    Exch-Disp20 (OS)    =     0.000215463585 [Eh]

    SAPT Results 
  --------------------------------------------------------------------------------------------------------
    Electrostatics                -14.00865809 [mEh]      -8.79056566 [kcal/mol]     -36.77972674 [kJ/mol]
      Elst10,r                    -14.00865809 [mEh]      -8.79056566 [kcal/mol]     -36.77972674 [kJ/mol]

    Exchange                        6.29896959 [mEh]       3.95266310 [kcal/mol]      16.53794239 [kJ/mol]
      Exch10                        6.29896959 [mEh]       3.95266310 [kcal/mol]      16.53794239 [kJ/mol]
      Exch10(S^2)                   6.28631335 [mEh]       3.94472118 [kcal/mol]      16.50471342 [kJ/mol]

    Induction                     -12.30863549 [mEh]      -7.72378538 [kcal/mol]     -32.31631803 [kJ/mol]
      Ind20,r                     -12.08677777 [mEh]      -7.58456756 [kcal/mol]     -31.73383065 [kJ/mol]
      Exch-Ind20,r                  1.54972726 [mEh]       0.97246854 [kcal/mol]       4.06880835 [kJ/mol]
      delta HF,r (2)               -1.77158499 [mEh]      -1.11168636 [kcal/mol]      -4.65129574 [kJ/mol]

    Dispersion                    -14.62978856 [mEh]      -9.18033092 [kcal/mol]     -38.41050458 [kJ/mol]
      Disp20                      -15.19624687 [mEh]      -9.53578888 [kcal/mol]     -39.89774067 [kJ/mol]
      Exch-Disp20                   0.56645831 [mEh]       0.35545796 [kcal/mol]       1.48723610 [kJ/mol]
      Disp20 (SS)                  -7.59812344 [mEh]      -4.76789444 [kcal/mol]     -19.94887034 [kJ/mol]
      Disp20 (OS)                  -7.59812344 [mEh]      -4.76789444 [kcal/mol]     -19.94887034 [kJ/mol]
      Exch-Disp20 (SS)              0.35099473 [mEh]       0.22025252 [kcal/mol]       0.92153653 [kJ/mol]
      Exch-Disp20 (OS)              0.21546359 [mEh]       0.13520544 [kcal/mol]       0.56569956 [kJ/mol]

  Total HF                        -20.01832399 [mEh]     -12.56168795 [kcal/mol]     -52.55810238 [kJ/mol]
  Total SAPT0                     -34.64811255 [mEh]     -21.74201887 [kcal/mol]     -90.96860696 [kJ/mol]

  Special recipe for scaled SAPT0 (see Manual):
    Electrostatics sSAPT0         -14.00865809 [mEh]      -8.79056566 [kcal/mol]     -36.77972674 [kJ/mol]
    Exchange sSAPT0                 6.29896959 [mEh]       3.95266310 [kcal/mol]      16.53794239 [kJ/mol]
    Induction sSAPT0              -12.29925643 [mEh]      -7.71789993 [kcal/mol]     -32.29169331 [kJ/mol]
    Dispersion sSAPT0             -14.62636031 [mEh]      -9.17817966 [kcal/mol]     -38.40150371 [kJ/mol]
  Total sSAPT0                    -34.63530524 [mEh]     -21.73398216 [kcal/mol]     -90.93498137 [kJ/mol]
  --------------------------------------------------------------------------------------------------------

*** tstop() called on d-16-12-3 at Tue Jan 23 00:37:43 2024
Module time:
	user time   =    9522.03 seconds =     158.70 minutes
	system time =    1241.11 seconds =      20.69 minutes
	total time  =       7392 seconds =     123.20 minutes
Total time:
	user time   =   18926.87 seconds =     315.45 minutes
	system time =    1824.41 seconds =      30.41 minutes
	total time  =       9195 seconds =     153.25 minutes

    Psi4 stopped on: Tuesday, 23 January 2024 12:37AM
    Psi4 wall time for execution: 2:33:15.76

*** Psi4 exiting successfully. Buy a developer a beer!
