LAMMPS data file via write_data, version 2 Aug 2023, timestep = 3010000, units = real

8237 atoms
18 atom types
9216 bonds
16 bond types
11373 angles
12 angle types
18657 dihedrals
17 dihedral types
2240 impropers
1 improper types

0 34.08 xlo xhi
0 34.433 ylo yhi
0 200 zlo zhi

Masses

1 12.011
2 11.611
3 10.411
4 18.598
5 13.607
6 11.611
7 11.611
8 11.611
9 1.008
10 1.008
11 1.008
12 0.4
13 0.4
14 0.4
15 0.4
16 0.4
17 0.4
18 0.4

Bond Coeffs # harmonic

1 350 1.42
2 386.592 1.394
3 477.055 1.315
4 427.103 1.378
5 520.076 1.341
6 336.998 1.466
7 339.986 1.08
8 339.986 1.08
9 339.986 1.09
10 500 0
11 500 0
12 500 0
13 500 0
14 500 0
15 500 0
16 500 0

Angle Coeffs

   1    cosine/squared 66.665   120.000000  # C-C-C
   2    harmonic       80.007170   109.500000  # F-B-F
   3    harmonic       70.004780   126.400000  # CR-NA-CT
   4    harmonic       70.004780   108.000000  # CW-NA-CR
   5    harmonic       70.004780   125.600000  # CW-NA-CT
   6    harmonic       70.004780   109.800000  # NA-CR-NA
   7    harmonic       35.002390   125.100000  # NA-CR-HA
   8    harmonic       70.004780   107.100000  # NA-CW-CW
   9    harmonic       35.002390   122.000000  # NA-CW-HA
  10    harmonic       35.002390   130.900000  # CW-CW-HA
  11    harmonic       37.500000   110.700000  # NA-CT-HC
  12    harmonic       32.994742   107.800000  # HC-CT-HC

Dihedral Coeffs

   1    harmonic      3.125000    -1            2                      # C-C-C-C
   2    opls          0.000000     4.651052     0.000000     0.000000  # CT-NA-CR-NA
   3    opls          0.000000     4.651052     0.000000     0.000000  # CW-NA-CR-NA
   4    opls          0.000000     4.651052     0.000000     0.000000  # CT-NA-CR-HA
   5    opls          0.000000     4.651052     0.000000     0.000000  # CW-NA-CR-HA
   6    opls          0.000000     3.000000     0.000000     0.000000  # CR-NA-CW-CW
   7    opls          0.000000     3.000000     0.000000     0.000000  # CT-NA-CW-CW
   8    opls          0.000000     3.000000     0.000000     0.000000  # CR-NA-CW-HA
   9    opls          0.000000     3.000000     0.000000     0.000000  # CT-NA-CW-HA
  10    opls          0.000000    10.750478     0.000000     0.000000  # NA-CW-CW-HA
  11    opls          0.000000    10.750478     0.000000     0.000000  # HA-CW-CW-HA
  12    opls          0.000000    10.750478     0.000000     0.000000  # NA-CW-CW-NA
  13    opls          0.000000     0.000000     0.000000     0.000000  # CR-NA-CT-HC
  14    opls          0.000000     0.000000     0.124044     0.000000  # CW-NA-CT-HC
  15    opls          0.000000     2.000000     0.000000     0.000000  # CR-CW-NA-CT
  16    opls          0.000000     2.200000     0.000000     0.000000  # NA-NA-CR-HA
  17    opls          0.000000     2.200000     0.000000     0.000000  # NA-CW-CW-HA

Improper Coeffs # umbrella

1 40 0

Atoms # full

1 1 1 0 0.71 0 0 0 0 0
2 1 1 0 2.13 0 0 0 0 0
3 1 1 0 0 1.23 0 0 0 0
4 1 1 0 2.84 1.23 0 0 0 0
5 1 1 0 4.97 0 0 0 0 0
6 1 1 0 6.39 0 0 0 0 0
7 1 1 0 4.26 1.23 0 0 0 0
8 1 1 0 7.1 1.23 0 0 0 0
33 1 1 0 0.71 2.46 0 0 0 0
34 1 1 0 2.13 2.46 0 0 0 0
35 1 1 0 0 3.689 0 0 0 0
36 1 1 0 2.84 3.689 0 0 0 0
37 1 1 0 4.97 2.46 0 0 0 0
38 1 1 0 6.39 2.46 0 0 0 0
39 1 1 0 4.26 3.689 0 0 0 0
40 1 1 0 7.1 3.689 0 0 0 0
65 1 1 0 0.71 4.919 0 0 0 0
66 1 1 0 2.13 4.919 0 0 0 0
67 1 1 0 0 6.149 0 0 0 0
68 1 1 0 2.84 6.149 0 0 0 0
69 1 1 0 4.97 4.919 0 0 0 0
70 1 1 0 6.39 4.919 0 0 0 0
71 1 1 0 4.26 6.149 0 0 0 0
72 1 1 0 7.1 6.149 0 0 0 0
97 1 1 0 0.71 7.379 0 0 0 0
98 1 1 0 2.13 7.379 0 0 0 0
99 1 1 0 0 8.608 0 0 0 0
100 1 1 0 2.84 8.608 0 0 0 0
101 1 1 0 4.97 7.379 0 0 0 0
102 1 1 0 6.39 7.379 0 0 0 0
103 1 1 0 4.26 8.608 0 0 0 0
104 1 1 0 7.1 8.608 0 0 0 0
449 1 1 0 2.13 0 3.35 0 0 0
450 1 1 0 3.55 0 3.35 0 0 0
451 1 1 0 1.42 1.23 3.35 0 0 0
452 1 1 0 4.26 1.23 3.35 0 0 0
453 1 1 0 6.39 0 3.35 0 0 0
454 1 1 0 7.81 0 3.35 0 0 0
455 1 1 0 5.68 1.23 3.35 0 0 0
480 1 1 0 0 1.23 3.35 1 0 0
481 1 1 0 2.13 2.46 3.35 0 0 0
482 1 1 0 3.55 2.46 3.35 0 0 0
483 1 1 0 1.42 3.689 3.35 0 0 0
484 1 1 0 4.26 3.689 3.35 0 0 0
485 1 1 0 6.39 2.46 3.35 0 0 0
486 1 1 0 7.81 2.46 3.35 0 0 0
487 1 1 0 5.68 3.689 3.35 0 0 0
512 1 1 0 0 3.689 3.35 1 0 0
513 1 1 0 2.13 4.919 3.35 0 0 0
514 1 1 0 3.55 4.919 3.35 0 0 0
515 1 1 0 1.42 6.149 3.35 0 0 0
516 1 1 0 4.26 6.149 3.35 0 0 0
517 1 1 0 6.39 4.919 3.35 0 0 0
518 1 1 0 7.81 4.919 3.35 0 0 0
519 1 1 0 5.68 6.149 3.35 0 0 0
544 1 1 0 0 6.149 3.35 1 0 0
545 1 1 0 2.13 7.379 3.35 0 0 0
546 1 1 0 3.55 7.379 3.35 0 0 0
547 1 1 0 1.42 8.608 3.35 0 0 0
548 1 1 0 4.26 8.608 3.35 0 0 0
549 1 1 0 6.39 7.379 3.35 0 0 0
550 1 1 0 7.81 7.379 3.35 0 0 0
551 1 1 0 5.68 8.608 3.35 0 0 0
576 1 1 0 0 8.608 3.35 1 0 0
900 1 2 1.85204 2.7862376105504363 1.2623503289284501 6.8089417221860735 0 0 0
903 1 2 1.85204 4.241681948914368 1.2696646907815032 6.811528036441947 0 0 0
904 1 2 1.85204 7.1077589045461105 1.2540841630863098 6.810204952715056 0 0 0
929 1 2 1.85204 0.7374391595591602 2.4728498516045794 6.6899654855093535 0 0 0
930 1 2 1.85204 2.1135174950159206 2.4575049361441645 6.722082275092908 0 0 0
932 1 2 1.85204 2.849739725528071 3.6489322096051415 6.766976781330758 0 0 0
933 1 2 1.85204 5.004556421214316 2.497177450850488 6.879308110273778 0 0 0
934 1 2 1.85204 6.390846633130976 2.4979598351568386 6.834145316645869 0 0 0
935 1 2 1.85204 4.270609724771308 3.7056084669168574 6.875742138060179 0 0 0
936 1 2 1.85204 7.138220925230181 3.697563143465299 6.869515920068666 0 0 0
961 1 2 1.85204 0.784803214521508 4.9218421826411145 6.785411096198382 0 0 0
962 1 2 1.85204 2.184906382843276 4.913451236073175 6.723797896528363 0 0 0
964 1 2 1.85204 2.9156656772822664 6.227385970519635 6.678849573274543 0 0 0
965 1 2 1.85204 5.0034109470579144 4.93694601050596 6.799856758020536 0 0 0
966 1 2 1.85204 6.401970754714824 4.911716052307932 6.761537087960341 0 0 0
967 1 2 1.85204 4.3151004384792655 6.166401319560035 6.7208448824151885 0 0 0
968 1 2 1.85204 7.081521165307638 6.1432335655594015 6.778714717011046 0 0 0
993 1 2 1.85204 0.6966585497417749 7.4707628261323915 6.702880665385895 0 0 0
994 1 2 1.85204 2.1200531752740432 7.449233725761154 6.696342857112421 0 0 0
997 1 2 1.85204 4.97917125085145 7.357956319279516 6.811104835700704 0 0 0
998 1 2 1.85204 6.422175498082332 7.347667075847463 6.880596836260124 0 0 0
1347 1 2 1.85204 1.4485913900116432 1.208736513633639 9.979212523086384 0 0 0
1348 1 2 1.85204 4.319779956411199 1.140815012823989 10.027388365476945 0 0 0
1351 1 2 1.85204 5.759092423875421 1.0929653074984138 10.025436250260578 0 0 0
1377 1 2 1.85204 2.178449356185945 2.411438107770666 10.064079919428407 0 0 0
1378 1 2 1.85204 3.6677854195330486 2.4232491532211835 9.987104799582108 0 0 0
1379 1 2 1.85204 1.4650980996825704 3.649049600539751 10.025883801424964 0 0 0
1380 1 2 1.85204 4.3855553118582105 3.6458013569508716 10.026757489399511 0 0 0
1381 1 2 1.85204 6.435656955776364 2.34577536404004 10.151518239595116 0 0 0
1382 1 2 1.85204 7.865198879332271 2.345353654837188 10.104924765253706 0 0 0
1383 1 2 1.85204 5.755439090997361 3.6301037844025825 10.196408478951618 0 0 0
1409 1 2 1.85204 2.2174968307013545 4.8661110989143275 10.035757533735364 0 0 0
1410 1 2 1.85204 3.687577006696946 4.840261752795507 10.094991293309253 0 0 0
1411 1 2 1.85204 1.4690227624884438 6.094362982234233 10.026240767884685 0 0 0
1412 1 2 1.85204 4.379771107727934 6.087096156158527 10.13201913492065 0 0 0
1413 1 2 1.85204 6.492494515297932 4.888994127518781 10.116620624639308 0 0 0
1414 1 2 1.85204 7.895397896777037 4.8727272161008965 10.196651159907056 0 0 0
1415 1 2 1.85204 5.759228425737973 6.094102740539535 10.148207064830443 0 0 0
1441 1 2 1.85204 2.1459894510877215 7.318934307039585 10.16555030014765 0 0 0
1442 1 2 1.85204 3.6345078520948935 7.266832403268134 10.079246145478818 0 0 0
1445 1 2 1.85204 6.436671658868838 7.3113241714381045 10.194282455684352 0 0 0
1446 1 2 1.85204 7.81713532377147 7.352861935979511 10.131957242087594 0 0 0
1825 1 2 1.85204 1.2878616141698582 1.2278639319220255 13.48583041944773 0 0 0
1826 1 2 1.85204 2.689680196519051 1.1736020633341797 13.46945042771213 0 0 0
1828 1 2 1.85204 3.41898119318756 2.373378239627309 13.48576837848183 0 0 0
1829 1 2 1.85204 5.601262685212329 1.1533525727518108 13.50902101180785 0 0 0
1830 1 2 1.85204 6.978980759218461 1.2126136266696121 13.392693351212436 0 0 0
1831 1 2 1.85204 4.894564984700833 2.414073296738655 13.44911893326943 0 0 0
1832 1 2 1.85204 7.7333857586659995 2.4393918182572834 13.462430197145991 0 0 0
1857 1 2 1.85204 1.280794853425031 3.6532962977975756 13.681311396777962 0 0 0
1858 1 2 1.85204 2.7240989946491183 3.673473350039876 13.527564093176803 0 0 0
1860 1 2 1.85204 3.519449599528022 4.899017539504582 13.473497812380463 0 0 0
1861 1 2 1.85204 5.670041429951564 3.648835608372799 13.41460523676257 0 0 0
1862 1 2 1.85204 7.095875392127839 3.6581769201309804 13.516717058917065 0 0 0
1863 1 2 1.85204 4.926168565294628 4.849073795184439 13.48284886322658 0 0 0
1864 1 2 1.85204 7.765819128598504 4.892366829680155 13.5257828712877 0 0 0
1889 1 2 1.85204 1.341125396110532 6.081198260703764 13.566692713887907 0 0 0
1890 1 2 1.85204 2.783710736361298 6.063300634815375 13.591101680494406 0 0 0
1893 1 2 1.85204 5.602587115495898 6.058723937914067 13.579111179050411 0 0 0
1894 1 2 1.85204 7.016009175516803 6.099931005095126 13.599922469956292 0 0 0
5205 1 12 -1.85204 2.787122761014699 1.261207766093245 6.808851588673107 0 0 0
5208 1 12 -1.85204 4.24555728178839 1.2711439066028665 6.811057487105885 0 0 0
5209 1 12 -1.85204 7.108714455297254 1.249904341682656 6.810136846979149 0 0 0
5234 1 12 -1.85204 0.7415371657952096 2.475042857069719 6.6893779961393065 0 0 0
5235 1 12 -1.85204 2.1138740647109877 2.4546615574824315 6.720620929397259 0 0 0
5237 1 12 -1.85204 2.8486395644824847 3.6465678878479215 6.765674326321468 0 0 0
5238 1 12 -1.85204 5.00787637015927 2.499499708402081 6.880002431168685 0 0 0
5239 1 12 -1.85204 6.389723228061716 2.4977757179514812 6.831845681922011 0 0 0
5240 1 12 -1.85204 4.266636086128919 3.7069618769385593 6.875117950107974 0 0 0
5241 1 12 -1.85204 7.139915780048481 3.6978692412267353 6.869586788619131 0 0 0
5266 1 12 -1.85204 0.7847983819921619 4.921974273461425 6.785479317820315 0 0 0
5267 1 12 -1.85204 2.184476270518146 4.9133028110213495 6.723585731326234 0 0 0
5269 1 12 -1.85204 2.9146146254111347 6.2336089377185075 6.677525040650718 0 0 0
5270 1 12 -1.85204 5.004134428447288 4.937638241849187 6.800186876647975 0 0 0
5271 1 12 -1.85204 6.401182937041689 4.910674291925267 6.758230313595421 0 0 0
5272 1 12 -1.85204 4.311360594302267 6.164328292348949 6.720328910036565 0 0 0
5273 1 12 -1.85204 7.081850733178329 6.141017088591751 6.777082040122988 0 0 0
5298 1 12 -1.85204 0.6951023299981159 7.473300993745263 6.7029784565331045 0 0 0
5299 1 12 -1.85204 2.117511525795102 7.455473554987305 6.694187908237864 0 0 0
5302 1 12 -1.85204 4.979439287448878 7.351151186891478 6.808848573707777 0 0 0
5303 1 12 -1.85204 6.424408118515127 7.346839900056842 6.883360317985743 0 0 0
5652 1 12 -1.85204 1.448037558380242 1.2080904128225185 9.97731308212849 0 0 0
5653 1 12 -1.85204 4.316814791143196 1.1390890140240213 10.026411965037358 0 0 0
5656 1 12 -1.85204 5.7585987857616905 1.0935828677002482 10.024832860388496 0 0 0
5682 1 12 -1.85204 2.178504765344443 2.4125756159424276 10.064496816554556 0 0 0
5683 1 12 -1.85204 3.670816008491676 2.426926372473259 9.983518639760787 0 0 0
5684 1 12 -1.85204 1.4652631009024868 3.648109128550048 10.0240205573066 0 0 0
5685 1 12 -1.85204 4.38540077254894 3.6477537164253486 10.02570918625462 0 0 0
5686 1 12 -1.85204 6.433381115201725 2.3450778021968772 10.149511897948656 0 0 0
5687 1 12 -1.85204 7.866723932851953 2.3461291254712475 10.104573370200225 0 0 0
5688 1 12 -1.85204 5.7548956950647145 3.6294412119231976 10.196684520832745 0 0 0
5714 1 12 -1.85204 2.217221949335601 4.865459119344804 10.033550576018603 0 0 0
5715 1 12 -1.85204 3.6891175909681175 4.840583857794791 10.096540599133682 0 0 0
5716 1 12 -1.85204 1.4671277951052655 6.095722663164833 10.024241354719825 0 0 0
5717 1 12 -1.85204 4.381877067829932 6.088353163066976 10.131555624037968 0 0 0
5718 1 12 -1.85204 6.491864070699497 4.890693329942254 10.11487478523323 0 0 0
5719 1 12 -1.85204 7.896321690397311 4.870630758876557 10.198587917229643 0 0 0
5720 1 12 -1.85204 5.761460720194872 6.094583644437005 10.14681288585944 0 0 0
5746 1 12 -1.85204 2.1427114219280496 7.315981829038358 10.166628868102904 0 0 0
5747 1 12 -1.85204 3.637125067375813 7.263832505115967 10.07574983780455 0 0 0
5750 1 12 -1.85204 6.435259204980597 7.307547965597948 10.193667720508055 0 0 0
5751 1 12 -1.85204 7.815828295896965 7.35458305802469 10.131873459543996 0 0 0
6130 1 12 -1.85204 1.2892734131677808 1.2302269053992687 13.487526281312666 0 0 0
6131 1 12 -1.85204 2.68725518640574 1.1738273937046486 13.471634875279408 0 0 0
6133 1 12 -1.85204 3.4183557226203924 2.3727769219837054 13.485968793120692 0 0 0
6134 1 12 -1.85204 5.603732674059134 1.1586684312351676 13.512436102968595 0 0 0
6135 1 12 -1.85204 6.975568051612634 1.2182149140004959 13.393288250042461 0 0 0
6136 1 12 -1.85204 4.8964617886683985 2.41823733538229 13.453635071182012 0 0 0
6137 1 12 -1.85204 7.731438281230903 2.4421598247399916 13.470474902388554 0 0 0
6162 1 12 -1.85204 1.2780161786151027 3.6478577181309157 13.685753927982628 0 0 0
6163 1 12 -1.85204 2.725149064644248 3.676216881609976 13.53219761697864 0 0 0
6165 1 12 -1.85204 3.525681075637724 4.896555642456447 13.476533178922933 0 0 0
6166 1 12 -1.85204 5.67554643610238 3.6478498675477855 13.419095479034079 0 0 0
6167 1 12 -1.85204 7.0964783457133915 3.6544082742602644 13.52374743495124 0 0 0
6168 1 12 -1.85204 4.928101281634935 4.843212421777235 13.487128164765794 0 0 0
6169 1 12 -1.85204 7.764085986230692 4.894883414145748 13.524929057606702 0 0 0
6194 1 12 -1.85204 1.3379964539611173 6.081047219236724 13.560549753123755 0 0 0
6195 1 12 -1.85204 2.787158162208121 6.057788320118288 13.585972616440761 0 0 0
6198 1 12 -1.85204 5.6045659774951755 6.059145048332852 13.57900257426993 0 0 0
6199 1 12 -1.85204 7.016198476274342 6.104086616159956 13.604052977637261 0 0 0
6197 1 12 -1.85204 3.505750278553198 7.264563801662997 13.641340032053828 0 0 0
6164 1 12 -1.85204 0.6337829503209691 4.876120899642456 13.616583643403354 0 0 0
6196 1 12 -1.85204 0.6405552321362097 7.354657157247273 13.563209424260984 0 0 0
6200 1 12 -1.85204 4.935082283214002 7.331252036678552 13.602093806015354 0 0 0
1895 1 2 1.85204 4.927935952615967 7.325829271906565 13.60061467811242 0 0 0
6132 1 12 -1.85204 0.6685245375216493 2.5173816200855224 13.56965304363279 0 0 0
1891 1 2 1.85204 0.6457262878572595 7.351140345376797 13.565429463476615 0 0 0
1896 1 2 1.85204 7.705946643472123 7.319203873053729 13.496743506539534 0 0 0
6201 1 12 -1.85204 7.703950798598639 7.320946760104969 13.504192025290932 0 0 0
1892 1 2 1.85204 3.502930013772894 7.268727815610077 13.649879515458109 0 0 0
1827 1 2 1.85204 0.6638096673501263 2.513840087485811 13.566192875936196 0 0 0
1859 1 2 1.85204 0.6325857682405807 4.878284928551786 13.61982253230766 0 0 0
1925 1 2 1.85204 5.587034236091119 8.572363113557293 13.550121914266352 0 0 0
6230 1 12 -1.85204 5.590580026276689 8.574185144693024 13.554814446515444 0 0 0
5857 1 12 -1.85204 16.99722339692431 15.901143280997557 10.314107837168208 0 0 0
5752 1 12 -1.85204 5.753120529250089 8.576737065235989 10.26725078385046 0 0 0
1447 1 2 1.85204 5.750074057352106 8.574147042428452 10.268515983679999 0 0 0
5657 1 12 -1.85204 8.506989668836637 1.1500186434094324 9.987432572317054 0 0 0
1352 1 2 1.85204 8.506967521436104 1.1481366663481356 9.988521459789158 0 0 0
6231 1 12 -1.85204 7.062655125867877 8.555317013993646 13.509075368084503 0 0 0
1926 1 2 1.85204 7.057338535935293 8.557430878701323 13.50236241936402 0 0 0
3366 169 7 1.956039 5.62452766723199 9.604233650720795 16.576161770854956 1 1 0
7436 169 17 -2.086039 6.426985437968814 8.532083897338754 16.514569812157937 1 1 0
2032 1 2 1.85204 16.209377242798567 17.13734257242993 13.74637154724744 0 0 0
5663 1 12 -1.85204 16.26348459102478 0.0012189956853703166 10.169229953414447 0 0 0
6328 1 12 -1.85204 4.895018405155745 17.156477323430703 13.707256308768974 0 0 0
5212 1 12 -1.85204 8.497628009065018 1.2372319257170454 6.802429952470283 0 0 0
907 1 2 1.85204 8.500907827898395 1.2316833368515188 6.801257118907188 0 0 0
3373 169 11 0.13 6.895143339230914 12.523340814158564 16.556705380147463 1 1 0
963 1 2 1.85204 0.08321379035793071 6.183883626362531 6.740092544256917 0 0 0
5435 1 12 -1.85204 10.761967741016376 17.11923745631322 6.8401298370979795 0 0 0
2023 1 2 1.85204 4.897855269376344 17.165175073920235 13.703909615915554 0 0 0
4607 246 11 0.13 0.7664635285379178 10.365582246064797 16.498196182768247 1 0 0
3829 198 7 1.956039 11.71423773105526 13.926526996618366 16.61523887164829 0 0 0
1922 1 2 1.85204 2.804098153034223 8.561883407205844 13.722111909743536 0 0 0
6227 1 12 -1.85204 2.806956536648472 8.566325727462768 13.716193257690826 0 0 0
6226 1 12 -1.85204 1.3274458613898867 8.572958802060716 13.653807854638828 0 0 0
1921 1 2 1.85204 1.3319020445514034 8.570020158268155 13.655441080571109 0 0 0
1376 1 2 1.85204 0.04091697530124776 1.1965654409319624 10.084871294734127 1 0 0
5300 1 12 -1.85204 0.024666595012539257 8.631998525365985 6.62238473535587 0 0 0
3999 208 11 0.13 15.400296842885341 3.5549704195005325 15.922903170569775 0 0 0
4689 251 11 0.13 4.894612491621962 15.745283119744652 16.273548143007137 0 0 0
3994 208 10 0.21 12.960881183256081 5.603511783995625 16.016568646195132 0 0 0
931 1 2 1.85204 0.016678640021058115 3.7374038106886327 6.676897176630172 0 0 0
5809 1 12 -1.85204 0.03653587803115662 11.061374653965435 10.250658057762102 1 0 0
3838 198 11 0.13 15.665872856419767 14.894583521624975 16.130062835538446 0 0 0
1472 1 2 1.85204 0.12014109635614137 8.593791822624082 10.215808570519426 1 0 0
3370 169 10 0.21 6.1747415957855 7.540715635166379 16.159312844071 1 1 0
5236 1 12 -1.85204 0.015265684174627895 3.7400507990466347 6.6757209589590865 0 0 0
7639 198 17 -2.086039 11.721562652447998 13.928459506143245 16.609383189736786 0 0 0
5886 1 12 -1.85204 14.857677825042186 17.21569419433034 10.169849372683707 0 0 0
1552 1 2 1.85204 17.00100080267963 15.898093751769427 10.315205600776988 0 0 0
7709 208 17 -2.086039 12.580448187363828 4.6259916341321885 16.352389948494707 0 0 0
3163 156 10 0.21 3.7307122579068257 4.309805591022991 15.874117251640786 1 1 0
3365 169 7 1.956039 6.414903241380206 8.53184881087928 16.51480817399059 1 1 0
902 1 2 1.85204 6.461744855812264 0.02971113232229217 6.79395692402759 0 0 0
5214 1 12 -1.85204 13.589998654946529 0.006632387564649045 6.758061338923975 0 0 0
6789 50 14 -1.371919 11.538450387892635 7.235961819134666 16.326238423145817 0 0 0
939 1 2 1.85204 8.550084327949467 3.662393204701438 6.879246046115448 0 0 0
5244 1 12 -1.85204 8.548052497884974 3.6602722887278145 6.878931608668607 0 0 0
5268 1 12 -1.85204 0.08438669200027142 6.181829638493933 6.74073414530749 0 0 0
3997 208 11 0.13 9.43893424072594 1.9905527387798292 16.268235631780353 0 0 0
1384 1 2 1.85204 8.51256433833733 3.624717158034986 10.119632857934842 0 0 0
5689 1 12 -1.85204 8.509384255764708 3.6259154984085398 10.11787227494073 0 0 0
1416 1 2 1.85204 8.612808286411319 6.128012516922706 10.135503877004291 0 0 0
5721 1 12 -1.85204 8.617600101145946 6.127961523933966 10.134260343607448 0 0 0
971 1 2 1.85204 8.498275918794421 6.182596024419727 6.866631321102656 0 0 0
5276 1 12 -1.85204 8.499094402419479 6.183831195843715 6.866066441405913 0 0 0
2484 50 4 0.881919 11.538011102828914 7.236841702522991 16.32649452582215 0 0 0
3830 198 7 1.956039 13.016287022765876 13.647618668197682 16.65497088377382 0 0 0
1003 1 2 1.85204 8.55151368194772 8.668015689263822 6.8022935121910395 0 0 0
5308 1 12 -1.85204 8.550230991144648 8.668364761640383 6.799975888368878 0 0 0
3989 208 7 1.956039 12.57221004648206 4.652370580906214 16.349234066689 0 0 0
5841 1 12 -1.85204 0.017819806207498345 13.536014624480785 10.158966192593176 1 0 0
5873 1 12 -1.85204 0.029608189542652815 16.01033775808156 10.138400708648323 1 0 0
3375 169 11 0.13 8.720490984797172 7.172603281819518 16.19503732225662 1 1 0
1504 1 2 1.85204 0.03413254777494537 11.060619951294973 10.251470622103687 1 0 0
1129 1 2 1.85204 9.274109729114944 17.173612878767116 6.832400060179775 0 0 0
1130 1 2 1.85204 10.759086166219351 17.12469046125278 6.8403513159559965 0 0 0
1516 1 2 1.85204 12.75179994121242 13.483309530049915 10.174630165372974 0 0 0
1867 1 2 1.85204 9.212251489000106 4.875175108178296 13.514933793782376 0 0 0
6172 1 12 -1.85204 9.212563080156412 4.873614108241318 13.513980054599598 0 0 0
1835 1 2 1.85204 9.159792343644282 2.4482774544678367 13.492393809683167 0 0 0
6140 1 12 -1.85204 9.159703026770698 2.4498069873215544 13.499231685984347 0 0 0
9 1 1 0 9.23 0 0 0 0 0
10 1 1 0 10.65 0 0 0 0 0
11 1 1 0 8.52 1.23 0 0 0 0
12 1 1 0 11.36 1.23 0 0 0 0
13 1 1 0 13.49 0 0 0 0 0
14 1 1 0 14.91 0 0 0 0 0
15 1 1 0 12.78 1.23 0 0 0 0
16 1 1 0 15.62 1.23 0 0 0 0
41 1 1 0 9.23 2.46 0 0 0 0
42 1 1 0 10.65 2.46 0 0 0 0
43 1 1 0 8.52 3.689 0 0 0 0
44 1 1 0 11.36 3.689 0 0 0 0
45 1 1 0 13.49 2.46 0 0 0 0
46 1 1 0 14.91 2.46 0 0 0 0
47 1 1 0 12.78 3.689 0 0 0 0
48 1 1 0 15.62 3.689 0 0 0 0
73 1 1 0 9.23 4.919 0 0 0 0
74 1 1 0 10.65 4.919 0 0 0 0
75 1 1 0 8.52 6.149 0 0 0 0
76 1 1 0 11.36 6.149 0 0 0 0
77 1 1 0 13.49 4.919 0 0 0 0
78 1 1 0 14.91 4.919 0 0 0 0
79 1 1 0 12.78 6.149 0 0 0 0
80 1 1 0 15.62 6.149 0 0 0 0
105 1 1 0 9.23 7.379 0 0 0 0
106 1 1 0 10.65 7.379 0 0 0 0
107 1 1 0 8.52 8.608 0 0 0 0
108 1 1 0 11.36 8.608 0 0 0 0
109 1 1 0 13.49 7.379 0 0 0 0
110 1 1 0 14.91 7.379 0 0 0 0
111 1 1 0 12.78 8.608 0 0 0 0
112 1 1 0 15.62 8.608 0 0 0 0
456 1 1 0 8.52 1.23 3.35 0 0 0
457 1 1 0 10.65 0 3.35 0 0 0
458 1 1 0 12.07 0 3.35 0 0 0
459 1 1 0 9.94 1.23 3.35 0 0 0
460 1 1 0 12.78 1.23 3.35 0 0 0
461 1 1 0 14.91 0 3.35 0 0 0
462 1 1 0 16.33 0 3.35 0 0 0
463 1 1 0 14.2 1.23 3.35 0 0 0
488 1 1 0 8.52 3.689 3.35 0 0 0
489 1 1 0 10.65 2.46 3.35 0 0 0
490 1 1 0 12.07 2.46 3.35 0 0 0
491 1 1 0 9.94 3.689 3.35 0 0 0
492 1 1 0 12.78 3.689 3.35 0 0 0
493 1 1 0 14.91 2.46 3.35 0 0 0
494 1 1 0 16.33 2.46 3.35 0 0 0
495 1 1 0 14.2 3.689 3.35 0 0 0
520 1 1 0 8.52 6.149 3.35 0 0 0
521 1 1 0 10.65 4.919 3.35 0 0 0
522 1 1 0 12.07 4.919 3.35 0 0 0
523 1 1 0 9.94 6.149 3.35 0 0 0
524 1 1 0 12.78 6.149 3.35 0 0 0
525 1 1 0 14.91 4.919 3.35 0 0 0
526 1 1 0 16.33 4.919 3.35 0 0 0
527 1 1 0 14.2 6.149 3.35 0 0 0
552 1 1 0 8.52 8.608 3.35 0 0 0
553 1 1 0 10.65 7.379 3.35 0 0 0
554 1 1 0 12.07 7.379 3.35 0 0 0
555 1 1 0 9.94 8.608 3.35 0 0 0
556 1 1 0 12.78 8.608 3.35 0 0 0
557 1 1 0 14.91 7.379 3.35 0 0 0
558 1 1 0 16.33 7.379 3.35 0 0 0
559 1 1 0 14.2 8.608 3.35 0 0 0
908 1 2 1.85204 11.461016625939576 1.1761492577118773 6.745148580950855 0 0 0
911 1 2 1.85204 12.888704485487242 1.2147118379497694 6.7894504534024795 0 0 0
912 1 2 1.85204 15.671280076878842 1.1723671971441154 6.611596341814119 0 0 0
937 1 2 1.85204 9.264911004753635 2.427835026094231 6.807732986403781 0 0 0
938 1 2 1.85204 10.68293541235327 2.40531542487988 6.806058151010763 0 0 0
940 1 2 1.85204 11.406896334235725 3.6365641713226875 6.86076860581907 0 0 0
941 1 2 1.85204 13.492026778402082 2.481379730646677 6.775118077445008 0 0 0
942 1 2 1.85204 14.898394706406354 2.4067309054664228 6.723516026723813 0 0 0
943 1 2 1.85204 12.833448393663769 3.662214276766917 6.775183311008874 0 0 0
944 1 2 1.85204 15.654283689108281 3.605450181831071 6.713261438205494 0 0 0
969 1 2 1.85204 9.256763690359218 4.934641202567858 6.953753433793765 0 0 0
970 1 2 1.85204 10.666924363537877 4.870566130069945 6.817398316186315 0 0 0
972 1 2 1.85204 11.307393624931795 6.115312131178394 6.794009132374081 0 0 0
973 1 2 1.85204 13.567916163736601 4.908467733619194 6.768381010724593 0 0 0
974 1 2 1.85204 14.952187902603589 4.826567525175829 6.790788087257302 0 0 0
975 1 2 1.85204 12.818696179170754 6.160481000960983 6.718343130577057 0 0 0
976 1 2 1.85204 15.639998593904773 6.068864226028711 6.755331369632309 0 0 0
1001 1 2 1.85204 9.199447666569759 7.389447741089888 6.855236025633791 0 0 0
1002 1 2 1.85204 10.618625263101368 7.371626975304716 6.864003809771641 0 0 0
1005 1 2 1.85204 13.549169865303053 7.38801479738637 6.775590533586901 0 0 0
1006 1 2 1.85204 14.933960441035486 7.3107926730569455 6.711083445217767 0 0 0
1355 1 2 1.85204 9.895410192037431 1.1257840640218542 10.09238379966222 0 0 0
1356 1 2 1.85204 12.70724219691085 1.2368331849452288 10.155344226052337 0 0 0
1359 1 2 1.85204 14.113834958739092 1.2514368153228475 10.089932105606193 0 0 0
1385 1 2 1.85204 10.571429806787306 2.368402921914357 10.137740680710793 0 0 0
1386 1 2 1.85204 12.003023841324467 2.4668342877202374 10.153123132086364 0 0 0
1387 1 2 1.85204 9.961374568974227 3.6521461541631313 10.117483747628865 0 0 0
1388 1 2 1.85204 12.738741364072986 3.6758071306116826 10.153169079812278 0 0 0
1389 1 2 1.85204 14.919314640301673 2.444494891571579 10.084974986470149 0 0 0
1390 1 2 1.85204 16.28979250715433 2.4326154607772223 10.130048489376358 0 0 0
1391 1 2 1.85204 14.165923614404416 3.6837175856715683 10.13760684726838 0 0 0
1417 1 2 1.85204 10.634671206620327 4.8571993488008705 10.084602419411667 0 0 0
1418 1 2 1.85204 12.06224615820658 4.876361445596148 10.214795576351062 0 0 0
1419 1 2 1.85204 9.984621698358701 6.165874686670561 10.089336861746665 0 0 0
1420 1 2 1.85204 12.779520566761349 6.112559759282137 10.185540740043399 0 0 0
1421 1 2 1.85204 14.896136102971825 4.889962806472538 10.138181150557388 0 0 0
1422 1 2 1.85204 16.34351501977923 4.8551887637777815 10.124381227234732 0 0 0
1423 1 2 1.85204 14.172948124236953 6.120477142837317 10.080982984824962 0 0 0
1449 1 2 1.85204 10.72415633134262 7.399177806393064 10.112227157583021 0 0 0
1450 1 2 1.85204 12.145089560739212 7.3480678183751555 10.079767853025919 0 0 0
1453 1 2 1.85204 14.94767082186788 7.343890492134122 10.065862602655445 0 0 0
1454 1 2 1.85204 16.36665581299223 7.3827712064583535 10.034299130188346 0 0 0
1833 1 2 1.85204 9.802306687811667 1.1901066069749133 13.459407956906212 0 0 0
1834 1 2 1.85204 11.29405635143839 1.2274519605206187 13.516248786706711 0 0 0
1836 1 2 1.85204 12.03904713150171 2.446399893238129 13.644379388603939 0 0 0
1837 1 2 1.85204 14.15275209544851 1.2443971697981846 13.601900553144011 0 0 0
1838 1 2 1.85204 15.558274654072653 1.2115901300983123 13.516086974761254 0 0 0
1839 1 2 1.85204 13.47830945498947 2.4416509274429736 13.623087076159823 0 0 0
1840 1 2 1.85204 16.29840574984037 2.3634637724434886 13.515898614816404 0 0 0
1865 1 2 1.85204 9.957076332189732 3.696293051636527 13.473909350300273 0 0 0
1866 1 2 1.85204 11.374939353237957 3.657377785470099 13.457063053710916 0 0 0
1868 1 2 1.85204 12.056826140524151 4.874545853656215 13.490138002411888 0 0 0
1869 1 2 1.85204 14.14543381833044 3.6527078762352203 13.54775340133817 0 0 0
1870 1 2 1.85204 15.526158105407559 3.6134076791395158 13.55191337729529 0 0 0
1871 1 2 1.85204 13.48615266848861 4.904364414807337 13.514955573912964 0 0 0
1872 1 2 1.85204 16.241367051420003 4.870616045907665 13.589553851531821 0 0 0
1897 1 2 1.85204 9.870898088221786 6.088703508673308 13.599529558542269 0 0 0
1898 1 2 1.85204 11.316868883420991 6.1056467593372 13.460316139211368 0 0 0
1901 1 2 1.85204 14.177221632476504 6.084194536662175 13.480438433156255 0 0 0
1902 1 2 1.85204 15.570895186162268 6.141252690875196 13.487102404991989 0 0 0
5213 1 12 -1.85204 11.465230289082026 1.1728505290152356 6.744573799945782 0 0 0
5216 1 12 -1.85204 12.891062645081426 1.2165801790986985 6.789423450979238 0 0 0
5217 1 12 -1.85204 15.672352887400583 1.1666338367458127 6.608963057668093 0 0 0
5242 1 12 -1.85204 9.269084251814794 2.429868387345009 6.805616397998674 0 0 0
5243 1 12 -1.85204 10.683850447943405 2.401853650477166 6.803704003167176 0 0 0
5245 1 12 -1.85204 11.407298368175637 3.6354597947059304 6.861805617168483 0 0 0
5246 1 12 -1.85204 13.492817897752092 2.48640187645799 6.773271608956612 0 0 0
5247 1 12 -1.85204 14.900828839669899 2.403842084884238 6.723498419523693 0 0 0
5248 1 12 -1.85204 12.833785941587278 3.6612245003257162 6.7744132279895135 0 0 0
5249 1 12 -1.85204 15.652014820028615 3.605106887631462 6.71256162536859 0 0 0
5274 1 12 -1.85204 9.25834884325296 4.937225786169964 6.954910008567955 0 0 0
5275 1 12 -1.85204 10.668618351883893 4.868250816297207 6.81572574947842 0 0 0
5277 1 12 -1.85204 11.29999375196064 6.116956396630517 6.793410057608616 0 0 0
5278 1 12 -1.85204 13.569775609016581 4.909960138926764 6.76846917342478 0 0 0
5279 1 12 -1.85204 14.952190635490663 4.825181296324675 6.791214174131257 0 0 0
5280 1 12 -1.85204 12.815001193758564 6.1594580862424975 6.714955256101964 0 0 0
5281 1 12 -1.85204 15.639257148689675 6.071518302115645 6.752306473738405 0 0 0
5306 1 12 -1.85204 9.197442177277408 7.389165785988005 6.85482724395339 0 0 0
5307 1 12 -1.85204 10.615621439478327 7.37824353599785 6.864006334760883 0 0 0
5310 1 12 -1.85204 13.548254985538591 7.3854173613645875 6.7771245070977075 0 0 0
5311 1 12 -1.85204 14.931114460854916 7.310879715105135 6.708751336023884 0 0 0
5660 1 12 -1.85204 9.896548408457807 1.12710746203026 10.092407059549728 0 0 0
5661 1 12 -1.85204 12.705303346310307 1.2396595302400288 10.156583447582802 0 0 0
5664 1 12 -1.85204 14.110053027936205 1.2540110864536285 10.086374729294798 0 0 0
5690 1 12 -1.85204 10.568432909016488 2.3678234068658446 10.136646528975795 0 0 0
5691 1 12 -1.85204 12.003300291098272 2.4690127310782986 10.15264121337804 0 0 0
5692 1 12 -1.85204 9.964348791786245 3.653127609299033 10.117116061139829 0 0 0
5693 1 12 -1.85204 12.737817964091157 3.678029858590118 10.152446591465779 0 0 0
5694 1 12 -1.85204 14.922558647185934 2.4429172661809515 10.084308219702177 0 0 0
5695 1 12 -1.85204 16.288897152794757 2.4324579129939674 10.128846517634033 0 0 0
5696 1 12 -1.85204 14.165101411506624 3.684722714968468 10.137483206485468 0 0 0