
    -----------------------------------------------------------------------
          Psi4: An Open-Source Ab Initio Electronic Structure Package
                               Psi4 1.9 release

                         Git: Rev {} zzzzzzz 


    D. G. A. Smith, L. A. Burns, A. C. Simmonett, R. M. Parrish,
    M. C. Schieber, R. Galvelis, P. Kraus, H. Kruse, R. Di Remigio,
    A. Alenaizan, A. M. James, S. Lehtola, J. P. Misiewicz, M. Scheurer,
    R. A. Shaw, J. B. Schriber, Y. Xie, Z. L. Glick, D. A. Sirianni,
    J. S. O'Brien, J. M. Waldrop, A. Kumar, E. G. Hohenstein,
    B. P. Pritchard, B. R. Brooks, H. F. Schaefer III, A. Yu. Sokolov,
    K. Patkowski, A. E. DePrince III, U. Bozkaya, R. A. King,
    F. A. Evangelista, J. M. Turney, T. D. Crawford, C. D. Sherrill,
    J. Chem. Phys. 152(18) 184108 (2020). https://doi.org/10.1063/5.0006002

                            Additional Code Authors
    E. T. Seidl, C. L. Janssen, E. F. Valeev, M. L. Leininger,
    J. F. Gonthier, R. M. Richard, H. R. McAlexander, M. Saitow, X. Wang,
    P. Verma, M. H. Lechner, A. Jiang, S. Behnle, A. G. Heide,
    M. F. Herbst, and D. L. Poole

             Previous Authors, Complete List of Code Contributors,
                       and Citations for Specific Modules
    https://github.com/psi4/psi4/blob/master/codemeta.json
    https://github.com/psi4/psi4/graphs/contributors
    http://psicode.org/psi4manual/master/introduction.html#citing-psifour

    -----------------------------------------------------------------------


    Psi4 started on: Saturday, 20 January 2024 11:33PM

    Process ID: 2020689
    Host:       d-6-1-4
    PSIDATADIR: /home/gridsan/tfroembgen/.conda/envs/psi4test/share/psi4
    Memory:     500.0 MiB
    Threads:    12
    
  ==> Input File <==

--------------------------------------------------------------------------
memory 32 GB # how much memory is available ! Depends on the nodes/cores !

molecule dimer {
# monomer A
-1 1    # Charge and multiplicity
B -1.977592e-04  2.742729e-04 4.800034
F  1.123153e-16  1.430594e-17 6.212819
F  1.147860e+00  6.757812e-01 4.328893
F  1.191806e-02 -1.332011e+00 4.329095
F -1.159666e+00  6.560735e-01 4.329174
--
# monomer B
0 1     # Charge and multiplicity
C   1.22531237526482      0.70753866091955      0.00613762728373
C   1.22532433589282     -0.70753852257020     -0.00619318228664
C   -0.00000567409046      1.41496628609039     -0.00672680580738
C   2.45644923379077      1.41832825917820      0.00902448468363
C   0.00001130712078     -1.41497612663474      0.00347275151708
C   -1.22530046906674      0.70754574598412      0.00838914760619
C   2.45643823516184     -1.41832293188077     -0.00843833914343
C   -0.00000085313587      2.83680140328112     -0.00913035594137
C   3.68182717731192      0.70931832800114     -0.00808954934571
C   2.45512052870677      2.83422403348893     -0.00819210630633
C   3.68182158506039     -0.70933346742900      0.00798293467272
C   -1.22531311884624     -0.70752714354401     -0.00512042085974
C   1.22670006104402      3.54346985599427      0.00816696660346
C   0.00000526469929     -2.83678176723568      0.00832091913869
C   -2.45643555300670      1.41831729028492      0.00842454345199
C   2.45512389762097     -2.83422965658853      0.00783102630520
C   -1.22671388474763      3.54346943575023      0.00827029982280
C   4.91451777504333      1.42717324448953     -0.00160886631602
C   3.69315067131765      3.54279566454522     -0.00155906667985
C   -2.45643712022637     -1.41831290883911     -0.00846337726810
C   1.22670532178455     -3.54347386990643     -0.00780316414624
C   -2.45512491866593      2.83421703463423     -0.00818572995999
C   4.91452486062398     -1.42718653794377      0.00136387641845
C   1.22142509354026      4.97013443726031      0.00150231067809
C   4.89300870916237      2.82518837202648     -0.00039219795739
C   -1.22669652864725     -3.54347062507680     -0.00753595973677
C   -3.68181849668397      0.70932533873199     -0.00807686886569
C   3.69314758099218     -3.54280096939050      0.00148176697923
C   -1.22143177215231      4.97012866986289      0.00168580605083
C   6.13477145276790      0.68054831910577     -0.00083909176631
C   3.65678936045204      4.97295361556775     -0.00065042889723
C   -2.45512642789169     -2.83421472106065      0.00758666850712
C   -3.68181869921921     -0.70932533146830      0.00810055625144
C   4.89301309775526     -2.82519973363176      0.00021895393805
C   -0.00000059327114      5.65044773803267      0.00045449734393
C   6.13477559217374     -0.68055448207492      0.00042622874941
C   2.47813196269732      5.65357712333155      0.00063835075260
C   1.22142288457925     -4.97012668293268     -0.00129718634452
C   -3.69316190412301      3.54279732619245     -0.00139355922051
C   -1.22142804110313     -4.97011793159564     -0.00140994817719
C   -4.91452132810043      1.42717581899491     -0.00153192130862
C   3.65678749952045     -4.97295485423912      0.00080007163680
C   -2.47813805026426      5.65357479452875      0.00092287576113
C   -3.69314125872231     -3.54278984697859      0.00136564082345
C   -4.91451200321153     -1.42718062802730      0.00139857359209
C   -0.00000552908399     -5.65043791501335      0.00005899322272
C   -4.89302000425900      2.82518897091939     -0.00040227981744
C   2.47812647313991     -5.65357317188818     -0.00029052915548
C   -3.65679823041642      4.97295655404175     -0.00047374852278
C   -4.89299899901461     -2.82519139505969      0.00006491824035
C   -2.47812801824129     -5.65356579800621     -0.00056571680280
C   -6.13477002348955      0.68054913825639     -0.00086464346868
C   -3.65678835334731     -4.97294365097028      0.00058578382008
C   -6.13476456307132     -0.68055354348201      0.00040575295444
H   5.83528897565761      3.36927626695423      0.00396712770529
H   7.07385965258860      1.22821762089947     -0.00037744837300
H   4.60066374401555      5.51238117445323     -0.00014522814529
H   5.83528386714679     -3.36930568472863     -0.00423551337640
H   -0.00001167146422      6.73853104613662     -0.00389474766392
H   7.07386165167227     -1.22822657074368     -0.00008250934481
H   2.47331421164041      6.74068466339473      0.00017162982210
H   4.60066897122302     -5.51237575717576      0.00039007446835
H   -2.47331820069565      6.74068209160650      0.00047297644710
H   -0.00000978838621     -6.73852780445195      0.00458867820736
H   -5.83530143450167      3.36927132229595      0.00410314985360
H   2.47330840367253     -6.74068500242887      0.00027980126949
H   -4.60067436136587      5.51237839860371      0.00002010017831
H   -5.83527902699321     -3.36928859177951     -0.00451481925734
H   -2.47329986759855     -6.74067870613986     -0.00016951527498
H   -7.07385728692578      1.22822084484047     -0.00046143985387
H   -4.60067330624313     -5.51236229778631      0.00021776644566
H   -7.07385645456741     -1.22822025997701     -0.00017736581114

    units angstrom      # Angstroms are the default
    no_reorient         # Geometry fixed, default
    symmetry c1         # C1 symmetry, default
}

set {
    scf_type DF         # Density fitting, faster than exact integrals
    freeze_core True    # Freeze core electrons
    basis jun-cc-pVDZ   # Jun-cc-pVDZ basis set, recommended for sSAPT0 in https://doi.org/10.1063/1.4867135
}

energy('ssapt0')        # Compute sSAPT0 energy, includes also SAPT0
--------------------------------------------------------------------------

  Memory set to  29.802 GiB by Python driver.

Scratch directory: /state/partition1/slurm_tmp/24778963.4294967291.0/
   => Loading Basis Set <=

    Name: JUN-CC-PVDZ
    Role: ORBITAL
    Keyword: BASIS
    atoms 1     entry B          line   130 file /home/gridsan/tfroembgen/.conda/envs/psi4test/share/psi4/basis/jun-cc-pvdz.gbs 
    atoms 2-5   entry F          line   266 file /home/gridsan/tfroembgen/.conda/envs/psi4test/share/psi4/basis/jun-cc-pvdz.gbs 
    atoms 6-59  entry C          line   164 file /home/gridsan/tfroembgen/.conda/envs/psi4test/share/psi4/basis/jun-cc-pvdz.gbs 
    atoms 60-77 entry H          line    36 file /home/gridsan/tfroembgen/.conda/envs/psi4test/share/psi4/basis/jun-cc-pvdz.gbs 

   => Loading Basis Set <=

    Name: JUN-CC-PVDZ
    Role: ORBITAL
    Keyword: BASIS
    atoms 1     entry B          line   130 file /home/gridsan/tfroembgen/.conda/envs/psi4test/share/psi4/basis/jun-cc-pvdz.gbs 
    atoms 2-5   entry F          line   266 file /home/gridsan/tfroembgen/.conda/envs/psi4test/share/psi4/basis/jun-cc-pvdz.gbs 
    atoms 6-59  entry C          line   164 file /home/gridsan/tfroembgen/.conda/envs/psi4test/share/psi4/basis/jun-cc-pvdz.gbs 
    atoms 60-77 entry H          line    36 file /home/gridsan/tfroembgen/.conda/envs/psi4test/share/psi4/basis/jun-cc-pvdz.gbs 


  //>>>>>>>>>>>>>>>>>>>>>>>>>>>>>>>>>>>//
  //              Dimer HF             //
  //<<<<<<<<<<<<<<<<<<<<<<<<<<<<<<<<<<<//

   => Libint2 <=

    Primary   basis highest AM E, G, H:  7, 7, 4
    Auxiliary basis highest AM E, G, H:  7, 7, 5
    Onebody   basis highest AM E, G, H:  7, 7, 5
    Solid Harmonics ordering:            gaussian

*** tstart() called on d-6-1-4
*** at Sat Jan 20 23:33:11 2024

   => Loading Basis Set <=

    Name: JUN-CC-PVDZ
    Role: ORBITAL
    Keyword: BASIS
    atoms 1     entry B          line   130 file /home/gridsan/tfroembgen/.conda/envs/psi4test/share/psi4/basis/jun-cc-pvdz.gbs 
    atoms 2-5   entry F          line   266 file /home/gridsan/tfroembgen/.conda/envs/psi4test/share/psi4/basis/jun-cc-pvdz.gbs 
    atoms 6-59  entry C          line   164 file /home/gridsan/tfroembgen/.conda/envs/psi4test/share/psi4/basis/jun-cc-pvdz.gbs 
    atoms 60-77 entry H          line    36 file /home/gridsan/tfroembgen/.conda/envs/psi4test/share/psi4/basis/jun-cc-pvdz.gbs 


         ---------------------------------------------------------
                                   SCF
               by Justin Turney, Rob Parrish, Andy Simmonett
                          and Daniel G. A. Smith
                              RHF Reference
                       12 Threads,  30517 MiB Core
         ---------------------------------------------------------

  ==> Geometry <==

    Molecular point group: c1
    Full point group: C1

    Geometry (in Angstrom), charge = -1, multiplicity = 1:

       Center              X                  Y                   Z               Mass       
    ------------   -----------------  -----------------  -----------------  -----------------
         B           -0.000198161052     0.000273808717     4.245541805389    11.009305360000
         F           -0.000000401852    -0.000000464183     5.658326805389    18.998403162730
         F            1.147859598148     0.675780735817     3.774400805389    18.998403162730
         F            0.011917658148    -1.332011464183     3.774602805389    18.998403162730
         F           -1.159666401852     0.656073035817     3.774681805389    18.998403162730
         C            1.225311973413     0.707538196736    -0.548354567328    12.000000000000
         C            1.225323934041    -0.707538986754    -0.560685376898    12.000000000000
         C           -0.000006075942     1.414965821907    -0.561219000419    12.000000000000
         C            2.456448831939     1.418327794995    -0.545467709928    12.000000000000
         C            0.000010905269    -1.414976590818    -0.551019443094    12.000000000000
         C           -1.225300870919     0.707545281801    -0.546103047005    12.000000000000
         C            2.456437833310    -1.418323396064    -0.562930533755    12.000000000000
         C           -0.000001254988     2.836800939098    -0.563622550553    12.000000000000
         C            3.681826775460     0.709317863818    -0.562581743957    12.000000000000
         C            2.455120126855     2.834223569306    -0.562684300918    12.000000000000
         C            3.681821183209    -0.709333931612    -0.546509259939    12.000000000000
         C           -1.225313520698    -0.707527607727    -0.559612615471    12.000000000000
         C            1.226699659192     3.543469391811    -0.546325228008    12.000000000000
         C            0.000004862847    -2.836782231419    -0.546171275473    12.000000000000
         C           -2.456435954859     1.418316826102    -0.546067651159    12.000000000000
         C            2.455123495769    -2.834230120772    -0.546661168306    12.000000000000
         C           -1.226714286599     3.543468971567    -0.546221894789    12.000000000000
         C            4.914517373191     1.427172780306    -0.556101060927    12.000000000000
         C            3.693150269466     3.542795200362    -0.556051261291    12.000000000000
         C           -2.456437522078    -1.418313373022    -0.562955571879    12.000000000000
         C            1.226704919933    -3.543474334090    -0.562295358758    12.000000000000
         C           -2.455125320518     2.834216570451    -0.562677924571    12.000000000000
         C            4.914524458772    -1.427187002127    -0.553128318193    12.000000000000
         C            1.221424691688     4.970133973077    -0.552989883933    12.000000000000
         C            4.893008307311     2.825187907843    -0.554884392569    12.000000000000
         C           -1.226696930499    -3.543471089260    -0.562028154348    12.000000000000
         C           -3.681818898536     0.709324874549    -0.562569063477    12.000000000000
         C            3.693147179140    -3.542801433574    -0.553010427632    12.000000000000
         C           -1.221432174004     4.970128205680    -0.552806388560    12.000000000000
         C            6.134771050916     0.680547854922    -0.555331286378    12.000000000000
         C            3.656788958600     4.972953151384    -0.555142623509    12.000000000000
         C           -2.455126829744    -2.834215185244    -0.546905526104    12.000000000000
         C           -3.681819101071    -0.709325795652    -0.546391638360    12.000000000000
         C            4.893012695903    -2.825200197815    -0.554273240673    12.000000000000
         C           -0.000000995123     5.650447273849    -0.554037697267    12.000000000000
         C            6.134775190322    -0.680554946258    -0.554065965862    12.000000000000
         C            2.478131560845     5.653576659148    -0.553853843859    12.000000000000
         C            1.221422482727    -4.970127147116    -0.555789380956    12.000000000000
         C           -3.693162305975     3.542796862009    -0.555885753832    12.000000000000
         C           -1.221428442955    -4.970118395779    -0.555902142789    12.000000000000
         C           -4.914521729952     1.427175354812    -0.556024115920    12.000000000000
         C            3.656787097669    -4.972955318422    -0.553692122975    12.000000000000
         C           -2.478138452116     5.653574330345    -0.553569318850    12.000000000000
         C           -3.693141660574    -3.542790311162    -0.553126553788    12.000000000000
         C           -4.914512405063    -1.427181092211    -0.553093621019    12.000000000000
         C           -0.000005930936    -5.650438379197    -0.554433201389    12.000000000000
         C           -4.893020406111     2.825188506736    -0.554894474429    12.000000000000
         C            2.478126071288    -5.653573636072    -0.554782723767    12.000000000000
         C           -3.656798632268     4.972956089858    -0.554965943134    12.000000000000
         C           -4.892999400866    -2.825191859243    -0.554427276371    12.000000000000
         C           -2.478128420093    -5.653566262190    -0.555057911414    12.000000000000
         C           -6.134770425341     0.680548674073    -0.555356838080    12.000000000000
         C           -3.656788755199    -4.972944115154    -0.553906410791    12.000000000000
         C           -6.134764964923    -0.680554007665    -0.554086441657    12.000000000000
         H            5.835288573806     3.369275802771    -0.550525066906     1.007825032230
         H            7.073859250737     1.228217156716    -0.554869642984     1.007825032230
         H            4.600663342164     5.512380710270    -0.554637422757     1.007825032230
         H            5.835283465295    -3.369306148912    -0.558727707988     1.007825032230
         H           -0.000012073316     6.738530581953    -0.558386942275     1.007825032230
         H            7.073861249820    -1.228227034927    -0.554574703956     1.007825032230
         H            2.473313809789     6.740684199211    -0.554320564789     1.007825032230
         H            4.600668569371    -5.512376221359    -0.554102120143     1.007825032230
         H           -2.473318602548     6.740681627423    -0.554019218164     1.007825032230
         H           -0.000010190238    -6.738528268635    -0.549903516404     1.007825032230
         H           -5.835301836354     3.369270858113    -0.550389044758     1.007825032230
         H            2.473308001821    -6.740685466612    -0.554212393342     1.007825032230
         H           -4.600674763218     5.512377934420    -0.554472094433     1.007825032230
         H           -5.835279428845    -3.369289055963    -0.559007013869     1.007825032230
         H           -2.473300269450    -6.740679170323    -0.554661709886     1.007825032230
         H           -7.073857688778     1.228220380657    -0.554953634465     1.007825032230
         H           -4.600673708095    -5.512362761970    -0.554274428166     1.007825032230
         H           -7.073856856419    -1.228220724160    -0.554669560422     1.007825032230

  Running in c1 symmetry.

  Rotational constants: A =      0.00178  B =      0.00178  C =      0.00110 [cm^-1]
  Rotational constants: A =     53.33805  B =     53.33147  C =     33.02251 [MHz]
  Nuclear repulsion = 7756.567131449947738

  Charge       = -1
  Multiplicity = 1
  Electrons    = 384
  Nalpha       = 192
  Nbeta        = 192

  ==> Algorithm <==

  SCF Algorithm Type is DF.
  DIIS enabled.
  MOM disabled.
  Fractional occupation disabled.
  Guess Type is SAD.
  Energy threshold   = 1.00e-08
  Density threshold  = 1.00e-08
  Integral threshold = 1.00e-12

  ==> Primary Basis <==

  Basis Set: JUN-CC-PVDZ
    Blend: JUN-CC-PVDZ
    Number of shells: 526
    Number of basis functions: 1152
    Number of Cartesian functions: 1211
    Spherical Harmonics?: true
    Max angular momentum: 2

   => Loading Basis Set <=

    Name: (JUN-CC-PVDZ AUX)
    Role: JKFIT
    Keyword: DF_BASIS_SCF
    atoms 1     entry B          line    90 file /home/gridsan/tfroembgen/.conda/envs/psi4test/share/psi4/basis/jun-cc-pvdz-jkfit.gbs 
    atoms 2-5   entry F          line   314 file /home/gridsan/tfroembgen/.conda/envs/psi4test/share/psi4/basis/jun-cc-pvdz-jkfit.gbs 
    atoms 6-59  entry C          line   146 file /home/gridsan/tfroembgen/.conda/envs/psi4test/share/psi4/basis/jun-cc-pvdz-jkfit.gbs 
    atoms 60-77 entry H          line    70 file /home/gridsan/tfroembgen/.conda/envs/psi4test/share/psi4/basis/jun-cc-pvdz-jkfit.gbs 

  ==> Integral Setup <==

  ==> DiskDFJK: Density-Fitted J/K Matrices <==

    J tasked:                  Yes
    K tasked:                  Yes
    wK tasked:                  No
    OpenMP threads:             12
    Integrals threads:          12
    Memory [MiB]:            22888
    Algorithm:                Core
    Integral Cache:           SAVE
    Schwarz Cutoff:          1E-12
    Fitting Condition:       1E-10

   => Auxiliary Basis Set <=

  Basis Set: (JUN-CC-PVDZ AUX)
    Blend: JUN-CC-PVDZ-JKFIT
    Number of shells: 1755
    Number of basis functions: 5075
    Number of Cartesian functions: 5819
    Spherical Harmonics?: true
    Max angular momentum: 3

  Minimum eigenvalue in the overlap matrix is 8.2206934064E-10.
  Reciprocal condition number of the overlap matrix is 3.6137834559E-11.
    Using canonical orthogonalization.
  Overall, 14 of 1152 possible MOs eliminated.


  ==> Pre-Iterations <==

  SCF Guess: Superposition of Atomic Densities via on-the-fly atomic UHF (no occupation information).

   -------------------------
    Irrep   Nso     Nmo    
   -------------------------
     A       1152    1138 
   -------------------------
    Total    1152    1138
   -------------------------

  ==> Iterations <==

                           Total Energy        Delta E     RMS |[F,P]|

   @DF-RHF iter SAD: -2483.27986775962290   -2.48328e+03   0.00000e+00 
   @DF-RHF iter   1: -2477.60993618188377    5.66993e+00   1.10489e-03 ADIIS/DIIS
   @DF-RHF iter   2: -2478.50506729426434   -8.95131e-01   4.84528e-04 ADIIS/DIIS
   @DF-RHF iter   3: -2478.64327074525863   -1.38203e-01   1.36424e-04 ADIIS/DIIS
   @DF-RHF iter   4: -2478.65703338719277   -1.37626e-02   5.93979e-05 DIIS
   @DF-RHF iter   5: -2478.65995900948656   -2.92562e-03   1.69435e-05 DIIS
   @DF-RHF iter   6: -2478.66026682044867   -3.07811e-04   5.41605e-06 DIIS
   @DF-RHF iter   7: -2478.66034907750054   -8.22571e-05   2.67092e-06 DIIS
   @DF-RHF iter   8: -2478.66037195538547   -2.28779e-05   1.21415e-06 DIIS
   @DF-RHF iter   9: -2478.66037870541686   -6.75003e-06   2.57358e-07 DIIS
   @DF-RHF iter  10: -2478.66037893651173   -2.31095e-07   9.07050e-08 DIIS
   @DF-RHF iter  11: -2478.66037895360478   -1.70930e-08   3.49904e-08 DIIS
   @DF-RHF iter  12: -2478.66037895714362   -3.53884e-09   1.19523e-08 DIIS
   @DF-RHF iter  13: -2478.66037895750833   -3.64707e-10   4.15267e-09 DIIS
  Energy and wave function converged.


  ==> Post-Iterations <==

    Orbital Energies [Eh]
    ---------------------

    Doubly Occupied:                                                      

       1A    -26.069893     2A    -26.069798     3A    -26.069712  
       4A    -26.068503     5A    -11.187192     6A    -11.187180  
       7A    -11.187178     8A    -11.187135     9A    -11.187133  
      10A    -11.187128    11A    -11.187101    12A    -11.187089  
      13A    -11.187086    14A    -11.187044    15A    -11.187042  
      16A    -11.187039    17A    -11.184459    18A    -11.184399  
      19A    -11.184397    20A    -11.184240    21A    -11.184239  
      22A    -11.184110    23A    -11.184082    24A    -11.184080  
      25A    -11.184079    26A    -11.184075    27A    -11.184074  
      28A    -11.184060    29A    -11.183751    30A    -11.183554  
      31A    -11.183551    32A    -11.183234    33A    -11.183232  
      34A    -11.183084    35A    -11.182777    36A    -11.182693  
      37A    -11.182692    38A    -11.182680    39A    -11.182678  
      40A    -11.182677    41A    -11.182640    42A    -11.182572  
      43A    -11.182571    44A    -11.182384    45A    -11.182383  
      46A    -11.182316    47A    -11.182117    48A    -11.181688  
      49A    -11.181684    50A    -11.180661    51A    -11.180656  
      52A    -11.180634    53A    -11.180631    54A    -11.180629  
      55A    -11.180504    56A    -11.180503    57A    -11.180503  
      58A    -11.180140    59A     -7.541461    60A     -1.413364  
      61A     -1.353980    62A     -1.353817    63A     -1.352977  
      64A     -1.168298    65A     -1.146122    66A     -1.146122  
      67A     -1.117067    68A     -1.117059    69A     -1.106471  
      70A     -1.086330    71A     -1.076791    72A     -1.061767  
      73A     -1.061760    74A     -1.042109    75A     -1.042104  
      76A     -1.009406    77A     -1.009398    78A     -1.005394  
      79A     -0.995215    80A     -0.995211    81A     -0.967695  
      82A     -0.950321    83A     -0.947662    84A     -0.947621  
      85A     -0.946820    86A     -0.942312    87A     -0.914364  
      88A     -0.914320    89A     -0.890597    90A     -0.890548  
      91A     -0.823283    92A     -0.823253    93A     -0.814119  
      94A     -0.812108    95A     -0.812051    96A     -0.808712  
      97A     -0.808663    98A     -0.790801    99A     -0.767974  
     100A     -0.746826   101A     -0.743470   102A     -0.739684  
     103A     -0.739675   104A     -0.724229   105A     -0.724219  
     106A     -0.673606   107A     -0.672322   108A     -0.661587  
     109A     -0.661563   110A     -0.660754   111A     -0.660745  
     112A     -0.644548   113A     -0.627911   114A     -0.627900  
     115A     -0.621942   116A     -0.621925   117A     -0.604575  
     118A     -0.590863   119A     -0.581082   120A     -0.580171  
     121A     -0.580165   122A     -0.578311   123A     -0.568576  
     124A     -0.568573   125A     -0.557653   126A     -0.555594  
     127A     -0.555580   128A     -0.537908   129A     -0.530890  
     130A     -0.530835   131A     -0.530801   132A     -0.529190  
     133A     -0.529147   134A     -0.528979   135A     -0.528944  
     136A     -0.521584   137A     -0.517941   138A     -0.517929  
     139A     -0.516225   140A     -0.502050   141A     -0.502043  
     142A     -0.497321   143A     -0.497305   144A     -0.493847  
     145A     -0.493834   146A     -0.486381   147A     -0.484562  
     148A     -0.484553   149A     -0.468312   150A     -0.468309  
     151A     -0.465525   152A     -0.465520   153A     -0.458433  
     154A     -0.452683   155A     -0.451590   156A     -0.451583  
     157A     -0.449712   158A     -0.449669   159A     -0.430444  
     160A     -0.424585   161A     -0.422665   162A     -0.415723  
     163A     -0.412866   164A     -0.410854   165A     -0.410828  
     166A     -0.410757   167A     -0.410215   168A     -0.410207  
     169A     -0.395843   170A     -0.395819   171A     -0.387594  
     172A     -0.387207   173A     -0.387144   174A     -0.377630  
     175A     -0.377550   176A     -0.368355   177A     -0.368346  
     178A     -0.331144   179A     -0.331120   180A     -0.329334  
     181A     -0.305214   182A     -0.305212   183A     -0.277083  
     184A     -0.261655   185A     -0.260416   186A     -0.260347  
     187A     -0.240007   188A     -0.228660   189A     -0.210313  
     190A     -0.210263   191A     -0.152920   192A     -0.152851  

    Virtual:                                                              

     193A      0.085575   194A      0.085635   195A      0.104563  
     196A      0.104570   197A      0.106416   198A      0.107009  
     199A      0.107011   200A      0.113643   201A      0.117928  
     202A      0.128921   203A      0.128922   204A      0.137604  
     205A      0.137656   206A      0.143694   207A      0.143701  
     208A      0.144035   209A      0.150759   210A      0.150767  
     211A      0.151431   212A      0.151441   213A      0.151931  
     214A      0.156663   215A      0.158085   216A      0.158092  
     217A      0.158988   218A      0.163436   219A      0.166088  
     220A      0.172627   221A      0.172634   222A      0.174376  
     223A      0.176695   224A      0.181494   225A      0.183668  
     226A      0.183672   227A      0.187486   228A      0.187498  
     229A      0.187896   230A      0.189018   231A      0.189026  
     232A      0.191346   233A      0.191869   234A      0.195428  
     235A      0.196146   236A      0.196154   237A      0.203032  
     238A      0.210596   239A      0.210606   240A      0.211905  
     241A      0.211930   242A      0.215809   243A      0.215815  
     244A      0.218322   245A      0.220007   246A      0.220014  
     247A      0.231617   248A      0.233905   249A      0.233946  
     250A      0.240636   251A      0.245412   252A      0.247038  
     253A      0.247048   254A      0.248294   255A      0.248323  
     256A      0.251108   257A      0.251167   258A      0.251565  
     259A      0.257746   260A      0.257754   261A      0.259640  
     262A      0.263801   263A      0.263812   264A      0.264325  
     265A      0.264329   266A      0.266480   267A      0.270952  
     268A      0.270962   269A      0.273157   270A      0.273185  
     271A      0.273223   272A      0.275100   273A      0.275239  
     274A      0.276664   275A      0.279837   276A      0.286541  
     277A      0.287612   278A      0.287622   279A      0.290366  
     280A      0.290390   281A      0.290455   282A      0.292884  
     283A      0.292905   284A      0.299073   285A      0.299146  
     286A      0.299398   287A      0.299428   288A      0.300539  
     289A      0.305512   290A      0.305514   291A      0.306850  
     292A      0.308494   293A      0.317887   294A      0.317920  
     295A      0.319757   296A      0.319764   297A      0.322251  
     298A      0.322268   299A      0.325976   300A      0.326012  
     301A      0.327765   302A      0.327772   303A      0.336577  
     304A      0.336586   305A      0.337934   306A      0.337940  
     307A      0.343050   308A      0.348829   309A      0.348879  
     310A      0.352133   311A      0.352187   312A      0.356028  
     313A      0.357992   314A      0.358000   315A      0.359563  
     316A      0.359567   317A      0.362561   318A      0.362998  
     319A      0.366664   320A      0.366700   321A      0.368592  
     322A      0.373822   323A      0.373844   324A      0.373872  
     325A      0.375484   326A      0.375507   327A      0.375612  
     328A      0.380412   329A      0.382004   330A      0.382013  
     331A      0.383690   332A      0.385516   333A      0.386071  
     334A      0.386093   335A      0.386461   336A      0.390858  
     337A      0.393211   338A      0.397647   339A      0.397782  
     340A      0.399502   341A      0.402238   342A      0.406473  
     343A      0.406494   344A      0.409128   345A      0.409166  
     346A      0.409254   347A      0.409510   348A      0.415510  
     349A      0.418076   350A      0.418083   351A      0.418268  
     352A      0.424690   353A      0.424745   354A      0.427054  
     355A      0.433051   356A      0.433097   357A      0.436132  
     358A      0.438889   359A      0.438950   360A      0.444285  
     361A      0.448068   362A      0.448087   363A      0.451077  
     364A      0.451124   365A      0.451266   366A      0.454095  
     367A      0.454172   368A      0.457958   369A      0.458040  
     370A      0.458043   371A      0.459536   372A      0.459561  
     373A      0.459914   374A      0.461550   375A      0.466012  
     376A      0.466033   377A      0.467750   378A      0.467806  
     379A      0.472724   380A      0.472760   381A      0.474127  
     382A      0.474412   383A      0.481321   384A      0.481495  
     385A      0.482248   386A      0.484557   387A      0.485933  
     388A      0.485944   389A      0.486809   390A      0.486903  
     391A      0.488119   392A      0.489275   393A      0.489312  
     394A      0.495072   395A      0.495122   396A      0.496320  
     397A      0.497378   398A      0.497414   399A      0.499738  
     400A      0.499745   401A      0.506413   402A      0.507095  
     403A      0.507540   404A      0.507778   405A      0.507827  
     406A      0.510205   407A      0.515935   408A      0.515964  
     409A      0.519063   410A      0.520957   411A      0.521000  
     412A      0.521475   413A      0.521533   414A      0.528926  
     415A      0.529008   416A      0.533161   417A      0.535118  
     418A      0.535165   419A      0.537421   420A      0.540745  
     421A      0.541151   422A      0.541206   423A      0.544139  
     424A      0.546436   425A      0.546484   426A      0.551275  
     427A      0.551329   428A      0.555116   429A      0.558976  
     430A      0.559008   431A      0.560450   432A      0.560505  
     433A      0.562585   434A      0.565553   435A      0.565562  
     436A      0.568450   437A      0.569377   438A      0.571835  
     439A      0.571869   440A      0.575464   441A      0.576750  
     442A      0.576817   443A      0.578550   444A      0.584408  
     445A      0.584462   446A      0.592132   447A      0.592197  
     448A      0.597497   449A      0.601006   450A      0.601046  
     451A      0.604019   452A      0.606184   453A      0.607643  
     454A      0.607757   455A      0.610564   456A      0.613826  
     457A      0.615860   458A      0.615879   459A      0.620647  
     460A      0.620668   461A      0.621434   462A      0.622749  
     463A      0.624555   464A      0.630495   465A      0.632318  
     466A      0.632467   467A      0.635142   468A      0.637590  
     469A      0.637623   470A      0.638438   471A      0.640886  
     472A      0.640937   473A      0.658498   474A      0.659981  
     475A      0.660250   476A      0.664769   477A      0.666919  
     478A      0.671638   479A      0.671654   480A      0.674217  
     481A      0.674410   482A      0.690631   483A      0.691145  
     484A      0.691214   485A      0.698583   486A      0.698601  
     487A      0.701116   488A      0.701234   489A      0.715256  
     490A      0.715302   491A      0.720434   492A      0.727385  
     493A      0.727422   494A      0.729609   495A      0.738422  
     496A      0.740642   497A      0.744181   498A      0.744269  
     499A      0.748836   500A      0.748859   501A      0.757033  
     502A      0.786609   503A      0.787576   504A      0.787593  
     505A      0.806426   506A      0.806680   507A      0.808541  
     508A      0.810886   509A      0.816429   510A      0.816495  
     511A      0.816926   512A      0.816968   513A      0.828130  
     514A      0.828138   515A      0.831210   516A      0.845462  
     517A      0.846799   518A      0.862041   519A      0.870210  
     520A      0.870253   521A      0.876734   522A      0.880157  
     523A      0.884680   524A      0.887482   525A      0.887579  
     526A      0.896353   527A      0.896536   528A      0.897135  
     529A      0.898322   530A      0.898383   531A      0.899513  
     532A      0.909692   533A      0.926350   534A      0.926371  
     535A      0.927975   536A      0.932288   537A      0.932690  
     538A      0.932730   539A      0.942984   540A      0.943075  
     541A      0.945746   542A      0.945797   543A      0.951026  
     544A      0.952898   545A      0.952996   546A      0.958309  
     547A      0.958324   548A      0.967705   549A      0.967744  
     550A      0.970549   551A      0.975860   552A      0.975916  
     553A      0.979287   554A      0.979414   555A      0.979899  
     556A      0.980092   557A      0.982353   558A      0.989686  
     559A      0.989782   560A      0.995354   561A      0.996476  
     562A      1.001442   563A      1.004331   564A      1.004852  
     565A      1.005741   566A      1.006170   567A      1.006286  
     568A      1.010780   569A      1.010904   570A      1.011209  
     571A      1.015733   572A      1.015812   573A      1.021659  
     574A      1.021736   575A      1.037933   576A      1.038842  
     577A      1.039878   578A      1.040022   579A      1.044008  
     580A      1.044188   581A      1.045609   582A      1.049494  
     583A      1.052755   584A      1.055071   585A      1.055146  
     586A      1.059552   587A      1.059591   588A      1.062052  
     589A      1.072636   590A      1.072761   591A      1.078514  
     592A      1.080255   593A      1.084712   594A      1.084781  
     595A      1.084912   596A      1.086982   597A      1.087021  
     598A      1.099268   599A      1.099420   600A      1.106592  
     601A      1.106644   602A      1.107783   603A      1.111378  
     604A      1.112242   605A      1.112303   606A      1.116716  
     607A      1.116756   608A      1.116856   609A      1.118167  
     610A      1.118277   611A      1.121172   612A      1.123528  
     613A      1.125365   614A      1.125405   615A      1.131181  
     616A      1.135914   617A      1.136315   618A      1.142068  
     619A      1.142137   620A      1.147320   621A      1.147415  
     622A      1.147721   623A      1.157055   624A      1.158539  
     625A      1.158677   626A      1.159121   627A      1.165844  
     628A      1.165921   629A      1.167165   630A      1.167185  
     631A      1.174187   632A      1.174223   633A      1.178035  
     634A      1.180189   635A      1.181385   636A      1.181426  
     637A      1.183239   638A      1.183354   639A      1.187370  
     640A      1.187402   641A      1.189303   642A      1.198449  
     643A      1.200782   644A      1.200945   645A      1.201015  
     646A      1.213242   647A      1.213301   648A      1.214888  
     649A      1.216925   650A      1.217725   651A      1.217743  
     652A      1.223361   653A      1.225452   654A      1.225573  
     655A      1.226484   656A      1.229927   657A      1.234654  
     658A      1.248150   659A      1.255146   660A      1.258733  
     661A      1.258920   662A      1.265665   663A      1.265697  
     664A      1.271190   665A      1.271586   666A      1.271620  
     667A      1.274218   668A      1.274334   669A      1.289925  
     670A      1.290447   671A      1.290502   672A      1.292871  
     673A      1.295143   674A      1.295181   675A      1.307554  
     676A      1.307598   677A      1.309415   678A      1.328675  
     679A      1.328779   680A      1.333548   681A      1.333658  
     682A      1.334647   683A      1.334801   684A      1.337346  
     685A      1.337420   686A      1.346282   687A      1.346955  
     688A      1.356025   689A      1.356092   690A      1.364881  
     691A      1.365328   692A      1.368323   693A      1.369160  
     694A      1.369265   695A      1.378014   696A      1.378030  
     697A      1.379392   698A      1.382910   699A      1.382986  
     700A      1.383229   701A      1.390700   702A      1.390724  
     703A      1.398042   704A      1.398087   705A      1.402460  
     706A      1.402559   707A      1.405938   708A      1.411872  
     709A      1.415241   710A      1.420689   711A      1.420767  
     712A      1.425875   713A      1.428592   714A      1.428611  
     715A      1.431827   716A      1.431874   717A      1.435986  
     718A      1.436083   719A      1.448776   720A      1.449386  
     721A      1.449481   722A      1.462727   723A      1.464279  
     724A      1.475655   725A      1.475685   726A      1.483080  
     727A      1.483128   728A      1.483216   729A      1.483263  
     730A      1.491482   731A      1.493752   732A      1.501317  
     733A      1.501359   734A      1.503561   735A      1.506916  
     736A      1.506956   737A      1.511221   738A      1.511432  
     739A      1.511523   740A      1.513209   741A      1.516161  
     742A      1.520759   743A      1.520803   744A      1.522155  
     745A      1.531681   746A      1.540639   747A      1.540688  
     748A      1.550236   749A      1.550333   750A      1.588656  
     751A      1.588677   752A      1.594696   753A      1.594719  
     754A      1.603464   755A      1.625497   756A      1.658925  
     757A      1.659147   758A      1.659172   759A      1.667314  
     760A      1.675043   761A      1.675550   762A      1.679217  
     763A      1.683784   764A      1.685636   765A      1.685682  
     766A      1.691090   767A      1.691372   768A      1.699070  
     769A      1.699202   770A      1.700833   771A      1.709721  
     772A      1.709962   773A      1.716355   774A      1.716387  
     775A      1.717235   776A      1.719820   777A      1.719927  
     778A      1.720013   779A      1.730062   780A      1.733195  
     781A      1.733221   782A      1.739586   783A      1.747702  
     784A      1.747766   785A      1.750538   786A      1.751823  
     787A      1.751954   788A      1.755342   789A      1.760109  
     790A      1.760149   791A      1.767524   792A      1.769796  
     793A      1.770075   794A      1.770120   795A      1.776505  
     796A      1.779877   797A      1.779955   798A      1.787175  
     799A      1.787201   800A      1.814058   801A      1.825050  
     802A      1.829455   803A      1.830279   804A      1.830296  
     805A      1.833639   806A      1.848647   807A      1.848662  
     808A      1.863424   809A      1.863436   810A      1.887402  
     811A      1.887593   812A      1.887643   813A      1.898544  
     814A      1.898640   815A      1.903102   816A      1.903148  
     817A      1.906640   818A      1.911918   819A      1.915704  
     820A      1.920466   821A      1.930883   822A      1.930941  
     823A      1.933398   824A      1.933444   825A      1.935739  
     826A      1.941650   827A      1.945211   828A      1.953332  
     829A      1.953362   830A      1.968461   831A      1.968571  
     832A      1.969023   833A      1.972551   834A      1.972683  
     835A      1.981625   836A      1.981763   837A      1.987650  
     838A      1.987866   839A      1.989979   840A      1.990117  
     841A      1.991667   842A      1.993352   843A      1.993411  
     844A      1.998050   845A      1.998133   846A      2.008021  
     847A      2.012981   848A      2.013115   849A      2.013376  
     850A      2.014518   851A      2.014580   852A      2.026197  
     853A      2.026275   854A      2.030044   855A      2.030501  
     856A      2.030548   857A      2.037223   858A      2.037294  
     859A      2.044040   860A      2.057786   861A      2.057844  
     862A      2.063097   863A      2.063876   864A      2.067965  
     865A      2.068112   866A      2.069129   867A      2.072152  
     868A      2.072185   869A      2.074566   870A      2.079596  
     871A      2.084278   872A      2.084444   873A      2.100941  
     874A      2.101442   875A      2.102460   876A      2.102664  
     877A      2.103074   878A      2.104047   879A      2.104284  
     880A      2.122980   881A      2.124824   882A      2.125019  
     883A      2.133091   884A      2.133339   885A      2.136299  
     886A      2.136749   887A      2.138242   888A      2.139516  
     889A      2.144709   890A      2.148417   891A      2.148729  
     892A      2.150480   893A      2.156507   894A      2.156519  
     895A      2.164016   896A      2.164155   897A      2.164342  
     898A      2.164884   899A      2.167644   900A      2.168387  
     901A      2.172403   902A      2.172891   903A      2.172970  
     904A      2.181125   905A      2.181201   906A      2.182847  
     907A      2.185249   908A      2.185421   909A      2.187752  
     910A      2.191523   911A      2.191641   912A      2.195461  
     913A      2.195589   914A      2.200215   915A      2.200844  
     916A      2.201174   917A      2.206149   918A      2.207652  
     919A      2.207706   920A      2.209838   921A      2.214402  
     922A      2.214447   923A      2.228133   924A      2.233124  
     925A      2.233303   926A      2.235806   927A      2.235851  
     928A      2.241707   929A      2.245357   930A      2.245788  
     931A      2.254157   932A      2.254203   933A      2.260806  
     934A      2.260924   935A      2.261196   936A      2.264410  
     937A      2.265676   938A      2.271864   939A      2.271934  
     940A      2.291600   941A      2.294833   942A      2.294917  
     943A      2.296612   944A      2.298442   945A      2.307004  
     946A      2.307960   947A      2.308162   948A      2.311808  
     949A      2.312078   950A      2.314771   951A      2.315088  
     952A      2.316979   953A      2.329800   954A      2.329907  
     955A      2.341619   956A      2.341636   957A      2.342899  
     958A      2.342941   959A      2.349418   960A      2.370871  
     961A      2.377413   962A      2.385944   963A      2.387448  
     964A      2.396019   965A      2.402008   966A      2.406230  
     967A      2.406467   968A      2.406537   969A      2.410310  
     970A      2.424574   971A      2.425036   972A      2.425616  
     973A      2.425986   974A      2.440038   975A      2.440146  
     976A      2.450660   977A      2.454566   978A      2.486369  
     979A      2.496103   980A      2.496424   981A      2.496455  
     982A      2.506943   983A      2.514674   984A      2.514727  
     985A      2.542714   986A      2.545242   987A      2.545372  
     988A      2.557438   989A      2.557447   990A      2.574375  
     991A      2.591047   992A      2.601791   993A      2.603903  
     994A      2.616157   995A      2.617099   996A      2.617132  
     997A      2.623653   998A      2.623716   999A      2.629325  
    1000A      2.631717  1001A      2.631722  1002A      2.643916  
    1003A      2.644462  1004A      2.645186  1005A      2.645219  
    1006A      2.656501  1007A      2.656657  1008A      2.660155  
    1009A      2.660279  1010A      2.662142  1011A      2.678581  
    1012A      2.694699  1013A      2.694760  1014A      2.700592  
    1015A      2.704517  1016A      2.705017  1017A      2.711470  
    1018A      2.711535  1019A      2.721077  1020A      2.721406  
    1021A      2.727355  1022A      2.755036  1023A      2.756353  
    1024A      2.757099  1025A      2.757470  1026A      2.777154  
    1027A      2.777494  1028A      2.786292  1029A      2.786304  
    1030A      2.791577  1031A      2.791598  1032A      2.795711  
    1033A      2.795933  1034A      2.812502  1035A      2.823837  
    1036A      2.824229  1037A      2.851486  1038A      2.868578  
    1039A      2.868726  1040A      2.890428  1041A      2.900981  
    1042A      2.901971  1043A      2.925699  1044A      2.925837  
    1045A      2.931358  1046A      2.932894  1047A      2.932935  
    1048A      2.933621  1049A      2.941128  1050A      2.988531  
    1051A      2.988555  1052A      2.995110  1053A      3.002582  
    1054A      3.002640  1055A      3.022387  1056A      3.022405  
    1057A      3.034241  1058A      3.041361  1059A      3.056620  
    1060A      3.056823  1061A      3.080760  1062A      3.086387  
    1063A      3.086604  1064A      3.100767  1065A      3.138555  
    1066A      3.138622  1067A      3.143861  1068A      3.143948  
    1069A      3.184176  1070A      3.184913  1071A      3.198865  
    1072A      3.201211  1073A      3.201474  1074A      3.208262  
    1075A      3.218111  1076A      3.218149  1077A      3.218500  
    1078A      3.220272  1079A      3.220303  1080A      3.229802  
    1081A      3.230135  1082A      3.237151  1083A      3.237529  
    1084A      3.261434  1085A      3.280524  1086A      3.292348  
    1087A      3.306786  1088A      3.311639  1089A      3.349050  
    1090A      3.349228  1091A      3.349970  1092A      3.355948  
    1093A      3.356153  1094A      3.490718  1095A      3.491161  
    1096A      3.524830  1097A      3.557288  1098A      3.559753  
    1099A      3.625676  1100A      3.654651  1101A      3.656641  
    1102A      3.669340  1103A      3.699908  1104A      3.701785  
    1105A      3.735651  1106A      3.743465  1107A      3.842415  
    1108A      3.858252  1109A      3.859299  1110A      3.941959  
    1111A      3.941968  1112A      3.985288  1113A      3.985402  
    1114A      4.050922  1115A      4.085042  1116A      4.118054  
    1117A      4.129427  1118A      4.165067  1119A      4.170661  
    1120A      4.172941  1121A      4.173038  1122A      4.200746  
    1123A      4.201031  1124A      4.201137  1125A      4.203524  
    1126A      4.203560  1127A      4.239434  1128A      4.243436  
    1129A      4.243463  1130A      4.446952  1131A      4.447332  
    1132A      4.449733  1133A      4.653522  1134A      4.653594  
    1135A      4.662330  1136A      4.750212  1137A      4.785352  
    1138A      4.785658  

    Final Occupation by Irrep:
              A 
    DOCC [   192 ]
    NA   [   192 ]
    NB   [   192 ]

  @DF-RHF Final Energy: -2478.66037895750833

   => Energetics <=

    Nuclear Repulsion Energy =           7756.5671314499477376
    One-Electron Energy =              -18869.1557386717468034
    Two-Electron Energy =                8633.9282282642907376
    Total Energy =                      -2478.6603789575074188

Computation Completed


Properties will be evaluated at   0.000000,   0.000000,   0.000000 [a0]

Properties computed using the SCF density matrix


 Multipole Moments:

 ------------------------------------------------------------------------------------
     Multipole            Electronic (a.u.)      Nuclear  (a.u.)        Total (a.u.)
 ------------------------------------------------------------------------------------

 L = 1.  Multiply by 2.5417464519 to convert [e a0] to [Debye]
 Dipole X            :         -0.0005372            0.0000481           -0.0004891
 Dipole Y            :          0.0010005           -0.0001453            0.0008552
 Dipole Z            :         22.5223976          -29.4254454           -6.9030479
 Magnitude           :                                                    6.9030479

 ------------------------------------------------------------------------------------

*** tstop() called on d-6-1-4 at Sat Jan 20 23:39:13 2024
Module time:
	user time   =    3521.82 seconds =      58.70 minutes
	system time =      78.32 seconds =       1.31 minutes
	total time  =        362 seconds =       6.03 minutes
Total time:
	user time   =    3521.82 seconds =      58.70 minutes
	system time =      78.32 seconds =       1.31 minutes
	total time  =        362 seconds =       6.03 minutes

  //>>>>>>>>>>>>>>>>>>>>>>>>>>>>>>>>>>>//
  //            Monomer A HF           //
  //<<<<<<<<<<<<<<<<<<<<<<<<<<<<<<<<<<<//

   => Libint2 <=

    Primary   basis highest AM E, G, H:  7, 7, 4
    Auxiliary basis highest AM E, G, H:  7, 7, 5
    Onebody   basis highest AM E, G, H:  7, 7, 5
    Solid Harmonics ordering:            gaussian

*** tstart() called on d-6-1-4
*** at Sat Jan 20 23:39:13 2024

   => Loading Basis Set <=

    Name: JUN-CC-PVDZ
    Role: ORBITAL
    Keyword: BASIS
    atoms 1     entry B          line   130 file /home/gridsan/tfroembgen/.conda/envs/psi4test/share/psi4/basis/jun-cc-pvdz.gbs 
    atoms 2-5   entry F          line   266 file /home/gridsan/tfroembgen/.conda/envs/psi4test/share/psi4/basis/jun-cc-pvdz.gbs 
    atoms 6-59  entry C          line   164 file /home/gridsan/tfroembgen/.conda/envs/psi4test/share/psi4/basis/jun-cc-pvdz.gbs 
    atoms 60-77 entry H          line    36 file /home/gridsan/tfroembgen/.conda/envs/psi4test/share/psi4/basis/jun-cc-pvdz.gbs 


         ---------------------------------------------------------
                                   SCF
               by Justin Turney, Rob Parrish, Andy Simmonett
                          and Daniel G. A. Smith
                              RHF Reference
                       12 Threads,  30517 MiB Core
         ---------------------------------------------------------

  ==> Geometry <==

    Molecular point group: c1
    Full point group: C1

    Geometry (in Angstrom), charge = -1, multiplicity = 1:

       Center              X                  Y                   Z               Mass       
    ------------   -----------------  -----------------  -----------------  -----------------
         B           -0.000198161052     0.000273808717     4.245541805389    11.009305360000
         F           -0.000000401852    -0.000000464183     5.658326805389    18.998403162730
         F            1.147859598148     0.675780735817     3.774400805389    18.998403162730
         F            0.011917658148    -1.332011464183     3.774602805389    18.998403162730
         F           -1.159666401852     0.656073035817     3.774681805389    18.998403162730
      Gh(C)           1.225311973413     0.707538196736    -0.548354567328    12.000000000000
      Gh(C)           1.225323934041    -0.707538986754    -0.560685376898    12.000000000000
      Gh(C)          -0.000006075942     1.414965821907    -0.561219000419    12.000000000000
      Gh(C)           2.456448831939     1.418327794995    -0.545467709928    12.000000000000
      Gh(C)           0.000010905269    -1.414976590818    -0.551019443094    12.000000000000
      Gh(C)          -1.225300870919     0.707545281801    -0.546103047005    12.000000000000
      Gh(C)           2.456437833310    -1.418323396064    -0.562930533755    12.000000000000
      Gh(C)          -0.000001254988     2.836800939098    -0.563622550553    12.000000000000
      Gh(C)           3.681826775460     0.709317863818    -0.562581743957    12.000000000000
      Gh(C)           2.455120126855     2.834223569306    -0.562684300918    12.000000000000
      Gh(C)           3.681821183209    -0.709333931612    -0.546509259939    12.000000000000
      Gh(C)          -1.225313520698    -0.707527607727    -0.559612615471    12.000000000000
      Gh(C)           1.226699659192     3.543469391811    -0.546325228008    12.000000000000
      Gh(C)           0.000004862847    -2.836782231419    -0.546171275473    12.000000000000
      Gh(C)          -2.456435954859     1.418316826102    -0.546067651159    12.000000000000
      Gh(C)           2.455123495769    -2.834230120772    -0.546661168306    12.000000000000
      Gh(C)          -1.226714286599     3.543468971567    -0.546221894789    12.000000000000
      Gh(C)           4.914517373191     1.427172780306    -0.556101060927    12.000000000000
      Gh(C)           3.693150269466     3.542795200362    -0.556051261291    12.000000000000
      Gh(C)          -2.456437522078    -1.418313373022    -0.562955571879    12.000000000000
      Gh(C)           1.226704919933    -3.543474334090    -0.562295358758    12.000000000000
      Gh(C)          -2.455125320518     2.834216570451    -0.562677924571    12.000000000000
      Gh(C)           4.914524458772    -1.427187002127    -0.553128318193    12.000000000000
      Gh(C)           1.221424691688     4.970133973077    -0.552989883933    12.000000000000
      Gh(C)           4.893008307311     2.825187907843    -0.554884392569    12.000000000000
      Gh(C)          -1.226696930499    -3.543471089260    -0.562028154348    12.000000000000
      Gh(C)          -3.681818898536     0.709324874549    -0.562569063477    12.000000000000
      Gh(C)           3.693147179140    -3.542801433574    -0.553010427632    12.000000000000
      Gh(C)          -1.221432174004     4.970128205680    -0.552806388560    12.000000000000
      Gh(C)           6.134771050916     0.680547854922    -0.555331286378    12.000000000000
      Gh(C)           3.656788958600     4.972953151384    -0.555142623509    12.000000000000
      Gh(C)          -2.455126829744    -2.834215185244    -0.546905526104    12.000000000000
      Gh(C)          -3.681819101071    -0.709325795652    -0.546391638360    12.000000000000
      Gh(C)           4.893012695903    -2.825200197815    -0.554273240673    12.000000000000
      Gh(C)          -0.000000995123     5.650447273849    -0.554037697267    12.000000000000
      Gh(C)           6.134775190322    -0.680554946258    -0.554065965862    12.000000000000
      Gh(C)           2.478131560845     5.653576659148    -0.553853843859    12.000000000000
      Gh(C)           1.221422482727    -4.970127147116    -0.555789380956    12.000000000000
      Gh(C)          -3.693162305975     3.542796862009    -0.555885753832    12.000000000000
      Gh(C)          -1.221428442955    -4.970118395779    -0.555902142789    12.000000000000
      Gh(C)          -4.914521729952     1.427175354812    -0.556024115920    12.000000000000
      Gh(C)           3.656787097669    -4.972955318422    -0.553692122975    12.000000000000
      Gh(C)          -2.478138452116     5.653574330345    -0.553569318850    12.000000000000
      Gh(C)          -3.693141660574    -3.542790311162    -0.553126553788    12.000000000000
      Gh(C)          -4.914512405063    -1.427181092211    -0.553093621019    12.000000000000
      Gh(C)          -0.000005930936    -5.650438379197    -0.554433201389    12.000000000000
      Gh(C)          -4.893020406111     2.825188506736    -0.554894474429    12.000000000000
      Gh(C)           2.478126071288    -5.653573636072    -0.554782723767    12.000000000000
      Gh(C)          -3.656798632268     4.972956089858    -0.554965943134    12.000000000000
      Gh(C)          -4.892999400866    -2.825191859243    -0.554427276371    12.000000000000
      Gh(C)          -2.478128420093    -5.653566262190    -0.555057911414    12.000000000000
      Gh(C)          -6.134770425341     0.680548674073    -0.555356838080    12.000000000000
      Gh(C)          -3.656788755199    -4.972944115154    -0.553906410791    12.000000000000
      Gh(C)          -6.134764964923    -0.680554007665    -0.554086441657    12.000000000000
      Gh(H)           5.835288573806     3.369275802771    -0.550525066906     1.007825032230
      Gh(H)           7.073859250737     1.228217156716    -0.554869642984     1.007825032230
      Gh(H)           4.600663342164     5.512380710270    -0.554637422757     1.007825032230
      Gh(H)           5.835283465295    -3.369306148912    -0.558727707988     1.007825032230
      Gh(H)          -0.000012073316     6.738530581953    -0.558386942275     1.007825032230
      Gh(H)           7.073861249820    -1.228227034927    -0.554574703956     1.007825032230
      Gh(H)           2.473313809789     6.740684199211    -0.554320564789     1.007825032230
      Gh(H)           4.600668569371    -5.512376221359    -0.554102120143     1.007825032230
      Gh(H)          -2.473318602548     6.740681627423    -0.554019218164     1.007825032230
      Gh(H)          -0.000010190238    -6.738528268635    -0.549903516404     1.007825032230
      Gh(H)          -5.835301836354     3.369270858113    -0.550389044758     1.007825032230
      Gh(H)           2.473308001821    -6.740685466612    -0.554212393342     1.007825032230
      Gh(H)          -4.600674763218     5.512377934420    -0.554472094433     1.007825032230
      Gh(H)          -5.835279428845    -3.369289055963    -0.559007013869     1.007825032230
      Gh(H)          -2.473300269450    -6.740679170323    -0.554661709886     1.007825032230
      Gh(H)          -7.073857688778     1.228220380657    -0.554953634465     1.007825032230
      Gh(H)          -4.600673708095    -5.512362761970    -0.554274428166     1.007825032230
      Gh(H)          -7.073856856419    -1.228220724160    -0.554669560422     1.007825032230

  Running in c1 symmetry.

  Rotational constants: A =      0.00178  B =      0.00178  C =      0.00110 [cm^-1]
  Rotational constants: A =     53.33805  B =     53.33147  C =     33.02251 [MHz]
  Nuclear repulsion =  178.879455044809106

  Charge       = -1
  Multiplicity = 1
  Electrons    = 42
  Nalpha       = 21
  Nbeta        = 21

  ==> Algorithm <==

  SCF Algorithm Type is DF.
  DIIS enabled.
  MOM disabled.
  Fractional occupation disabled.
  Guess Type is SAD.
  Energy threshold   = 1.00e-08
  Density threshold  = 1.00e-08
  Integral threshold = 1.00e-12

  ==> Primary Basis <==

  Basis Set: JUN-CC-PVDZ
    Blend: JUN-CC-PVDZ
    Number of shells: 526
    Number of basis functions: 1152
    Number of Cartesian functions: 1211
    Spherical Harmonics?: true
    Max angular momentum: 2

   => Loading Basis Set <=

    Name: (JUN-CC-PVDZ AUX)
    Role: JKFIT
    Keyword: DF_BASIS_SCF
    atoms 1     entry B          line    90 file /home/gridsan/tfroembgen/.conda/envs/psi4test/share/psi4/basis/jun-cc-pvdz-jkfit.gbs 
    atoms 2-5   entry F          line   314 file /home/gridsan/tfroembgen/.conda/envs/psi4test/share/psi4/basis/jun-cc-pvdz-jkfit.gbs 
    atoms 6-59  entry C          line   146 file /home/gridsan/tfroembgen/.conda/envs/psi4test/share/psi4/basis/jun-cc-pvdz-jkfit.gbs 
    atoms 60-77 entry H          line    70 file /home/gridsan/tfroembgen/.conda/envs/psi4test/share/psi4/basis/jun-cc-pvdz-jkfit.gbs 

  ==> Integral Setup <==

  ==> DiskDFJK: Density-Fitted J/K Matrices <==

    J tasked:                  Yes
    K tasked:                  Yes
    wK tasked:                  No
    OpenMP threads:             12
    Integrals threads:          12
    Memory [MiB]:            22888
    Algorithm:                Core
    Integral Cache:           LOAD
    Schwarz Cutoff:          1E-12
    Fitting Condition:       1E-10

   => Auxiliary Basis Set <=

  Basis Set: (JUN-CC-PVDZ AUX)
    Blend: JUN-CC-PVDZ-JKFIT
    Number of shells: 1755
    Number of basis functions: 5075
    Number of Cartesian functions: 5819
    Spherical Harmonics?: true
    Max angular momentum: 3

  Minimum eigenvalue in the overlap matrix is 8.2206934064E-10.
  Reciprocal condition number of the overlap matrix is 3.6137834559E-11.
    Using canonical orthogonalization.
  Overall, 14 of 1152 possible MOs eliminated.


  ==> Pre-Iterations <==

  SCF Guess: Superposition of Atomic Densities via on-the-fly atomic UHF (no occupation information).

   -------------------------
    Irrep   Nso     Nmo    
   -------------------------
     A       1152    1138 
   -------------------------
    Total    1152    1138
   -------------------------

  ==> Iterations <==

                           Total Energy        Delta E     RMS |[F,P]|

   @DF-RHF iter SAD:  -421.23044557489993   -4.21230e+02   0.00000e+00 
   @DF-RHF iter   1:  -422.65028502941880   -1.41984e+00   5.30148e-04 ADIIS/DIIS
   @DF-RHF iter   2:  -422.73314439841238   -8.28594e-02   3.23353e-04 ADIIS/DIIS
   @DF-RHF iter   3:  -422.77170844773946   -3.85640e-02   1.74320e-05 DIIS
   @DF-RHF iter   4:  -422.77206973332920   -3.61286e-04   2.76199e-06 DIIS
   @DF-RHF iter   5:  -422.77207841007885   -8.67675e-06   7.09154e-07 DIIS
   @DF-RHF iter   6:  -422.77207897987046   -5.69792e-07   1.46121e-07 DIIS
   @DF-RHF iter   7:  -422.77207900134420   -2.14737e-08   1.66209e-08 DIIS
   @DF-RHF iter   8:  -422.77207900157953   -2.35332e-10   7.11460e-09 DIIS
  Energy and wave function converged.


  ==> Post-Iterations <==

    Orbital Energies [Eh]
    ---------------------

    Doubly Occupied:                                                      

       1A    -26.067067     2A    -26.067057     3A    -26.066967  
       4A    -26.066882     5A     -7.539020     6A     -1.410858  
       7A     -1.351202     8A     -1.351137     9A     -1.350975  
      10A     -0.602123    11A     -0.528333    12A     -0.528324  
      13A     -0.528238    14A     -0.447197    15A     -0.447155  
      16A     -0.408395    17A     -0.408369    18A     -0.408298  
      19A     -0.384926    20A     -0.384866    21A     -0.384776  

    Virtual:                                                              

      22A      0.087435    23A      0.088149    24A      0.088152  
      25A      0.095262    26A      0.095266    27A      0.106750  
      28A      0.107472    29A      0.113830    30A      0.123192  
      31A      0.123193    32A      0.128306    33A      0.128311  
      34A      0.140984    35A      0.141222    36A      0.141230  
      37A      0.144429    38A      0.144435    39A      0.144634  
      40A      0.144652    41A      0.154028    42A      0.156540  
      43A      0.156544    44A      0.162643    45A      0.162675  
      46A      0.165264    47A      0.171700    48A      0.175151  
      49A      0.176825    50A      0.177880    51A      0.177888  
      52A      0.181347    53A      0.184306    54A      0.184319  
      55A      0.185435    56A      0.185618    57A      0.185627  
      58A      0.191701    59A      0.191724    60A      0.197793  
      61A      0.197795    62A      0.198148    63A      0.198156  
      64A      0.201033    65A      0.201050    66A      0.204427  
      67A      0.208368    68A      0.208377    69A      0.210985  
      70A      0.210987    71A      0.216637    72A      0.217436  
      73A      0.220699    74A      0.220701    75A      0.221672  
      76A      0.223000    77A      0.223013    78A      0.228454  
      79A      0.228472    80A      0.231020    81A      0.231020  
      82A      0.231790    83A      0.233050    84A      0.238967  
      85A      0.242365    86A      0.242366    87A      0.243868  
      88A      0.244117    89A      0.250410    90A      0.250458  
      91A      0.256456    92A      0.257584    93A      0.260786  
      94A      0.261422    95A      0.262801    96A      0.264319  
      97A      0.264335    98A      0.265708    99A      0.266820  
     100A      0.266822   101A      0.273093   102A      0.273098  
     103A      0.277251   104A      0.277259   105A      0.280946  
     106A      0.280953   107A      0.285744   108A      0.285746  
     109A      0.288908   110A      0.290323   111A      0.290328  
     112A      0.291801   113A      0.294771   114A      0.297271  
     115A      0.297274   116A      0.299471   117A      0.299523  
     118A      0.303157   119A      0.303178   120A      0.303906  
     121A      0.308359   122A      0.312589   123A      0.315589  
     124A      0.321338   125A      0.321350   126A      0.324398  
     127A      0.324408   128A      0.325142   129A      0.325147  
     130A      0.326920   131A      0.326924   132A      0.327061  
     133A      0.337303   134A      0.337332   135A      0.342414  
     136A      0.342442   137A      0.345219   138A      0.345573  
     139A      0.349406   140A      0.349428   141A      0.349914  
     142A      0.350098   143A      0.352380   144A      0.352382  
     145A      0.354343   146A      0.354345   147A      0.360706  
     148A      0.364629   149A      0.371581   150A      0.376180  
     151A      0.376192   152A      0.376700   153A      0.380819  
     154A      0.380920   155A      0.383861   156A      0.388907  
     157A      0.388921   158A      0.392462   159A      0.395743  
     160A      0.395754   161A      0.397269   162A      0.401132  
     163A      0.401165   164A      0.403393   165A      0.403404  
     166A      0.407348   167A      0.409942   168A      0.413009  
     169A      0.413174   170A      0.418403   171A      0.422017  
     172A      0.422266   173A      0.423254   174A      0.425098  
     175A      0.425200   176A      0.429716   177A      0.430647  
     178A      0.430779   179A      0.433753   180A      0.437049  
     181A      0.437214   182A      0.437230   183A      0.438298  
     184A      0.441893   185A      0.442140   186A      0.445119  
     187A      0.445202   188A      0.445654   189A      0.451458  
     190A      0.451973   191A      0.452018   192A      0.457645  
     193A      0.457725   194A      0.459023   195A      0.459037  
     196A      0.464143   197A      0.464889   198A      0.464966  
     199A      0.474695   200A      0.474723   201A      0.479489  
     202A      0.480973   203A      0.481071   204A      0.486087  
     205A      0.486517   206A      0.488420   207A      0.488433  
     208A      0.495282   209A      0.496689   210A      0.500643  
     211A      0.503511   212A      0.503599   213A      0.504851  
     214A      0.504864   215A      0.510263   216A      0.510377  
     217A      0.510581   218A      0.511873   219A      0.514132  
     220A      0.514152   221A      0.519081   222A      0.519132  
     223A      0.519508   224A      0.519568   225A      0.523072  
     226A      0.523206   227A      0.523349   228A      0.529775  
     229A      0.532358   230A      0.532594   231A      0.536052  
     232A      0.536295   233A      0.537556   234A      0.541552  
     235A      0.546237   236A      0.546273   237A      0.549373  
     238A      0.553920   239A      0.553939   240A      0.555331  
     241A      0.558340   242A      0.558444   243A      0.559876  
     244A      0.559883   245A      0.560796   246A      0.569931  
     247A      0.569979   248A      0.573397   249A      0.574118  
     250A      0.574181   251A      0.574507   252A      0.575377  
     253A      0.581636   254A      0.583439   255A      0.583653  
     256A      0.590049   257A      0.590819   258A      0.590868  
     259A      0.594206   260A      0.594248   261A      0.599581  
     262A      0.600962   263A      0.601215   264A      0.601536  
     265A      0.601801   266A      0.604951   267A      0.605061  
     268A      0.607740   269A      0.610907   270A      0.619042  
     271A      0.621700   272A      0.621759   273A      0.626145  
     274A      0.635140   275A      0.635145   276A      0.640865  
     277A      0.640895   278A      0.642038   279A      0.642072  
     280A      0.646734   281A      0.650970   282A      0.651654  
     283A      0.653402   284A      0.653405   285A      0.654151  
     286A      0.654216   287A      0.658767   288A      0.663862  
     289A      0.663900   290A      0.669733   291A      0.669766  
     292A      0.678030   293A      0.683614   294A      0.683852  
     295A      0.684126   296A      0.685619   297A      0.685646  
     298A      0.688015   299A      0.690386   300A      0.690437  
     301A      0.690910   302A      0.690937   303A      0.697636  
     304A      0.703574   305A      0.703666   306A      0.706496  
     307A      0.715315   308A      0.715400   309A      0.715791  
     310A      0.717044   311A      0.720878   312A      0.721159  
     313A      0.721215   314A      0.725821   315A      0.726517  
     316A      0.726565   317A      0.737688   318A      0.740999  
     319A      0.741070   320A      0.744312   321A      0.748610  
     322A      0.753287   323A      0.753321   324A      0.755250  
     325A      0.755333   326A      0.755346   327A      0.756873  
     328A      0.761814   329A      0.761841   330A      0.772166  
     331A      0.772276   332A      0.772386   333A      0.776485  
     334A      0.777260   335A      0.786866   336A      0.786913  
     337A      0.789776   338A      0.789804   339A      0.799650  
     340A      0.799758   341A      0.804517   342A      0.805723  
     343A      0.805763   344A      0.808762   345A      0.809216  
     346A      0.809516   347A      0.816643   348A      0.817703  
     349A      0.817739   350A      0.826490   351A      0.826669  
     352A      0.830145   353A      0.831695   354A      0.832873  
     355A      0.832906   356A      0.846606   357A      0.846642  
     358A      0.848743   359A      0.853568   360A      0.853603  
     361A      0.859068   362A      0.859178   363A      0.859226  
     364A      0.860790   365A      0.864490   366A      0.864536  
     367A      0.866042   368A      0.872386   369A      0.875231  
     370A      0.875241   371A      0.875603   372A      0.879718  
     373A      0.879757   374A      0.880262   375A      0.880902  
     376A      0.880998   377A      0.882221   378A      0.894918  
     379A      0.895649   380A      0.907574   381A      0.907580  
     382A      0.910013   383A      0.910165   384A      0.922460  
     385A      0.922477   386A      0.953666   387A      0.953833  
     388A      0.956640   389A      0.956660   390A      0.961204  
     391A      0.961284   392A      0.968853   393A      0.968874  
     394A      0.973348   395A      0.973385   396A      0.977533  
     397A      0.980267   398A      0.989837   399A      0.989959  
     400A      1.014470   401A      1.014492   402A      1.021816  
     403A      1.027208   404A      1.032828   405A      1.032850  
     406A      1.044291   407A      1.044339   408A      1.046012  
     409A      1.051947   410A      1.055910   411A      1.064358  
     412A      1.064370   413A      1.088641   414A      1.088754  
     415A      1.114444   416A      1.114508   417A      1.135202  
     418A      1.135253   419A      1.136972   420A      1.137014  
     421A      1.137042   422A      1.149872   423A      1.149912  
     424A      1.172415   425A      1.173756   426A      1.173777  
     427A      1.183291   428A      1.238486   429A      1.238556  
     430A      1.240807   431A      1.240973   432A      1.241144  
     433A      1.254820   434A      1.254827   435A      1.255882  
     436A      1.276032   437A      1.276079   438A      1.298210  
     439A      1.298219   440A      1.298994   441A      1.303909  
     442A      1.313663   443A      1.354231   444A      1.354337  
     445A      1.370883   446A      1.377859   447A      1.377920  
     448A      1.385372   449A      1.385423   450A      1.387362  
     451A      1.398350   452A      1.398438   453A      1.409301  
     454A      1.412720   455A      1.437731   456A      1.451847  
     457A      1.451889   458A      1.485224   459A      1.497266  
     460A      1.529355   461A      1.529838   462A      1.545707  
     463A      1.545735   464A      1.552413   465A      1.553320  
     466A      1.553378   467A      1.555918   468A      1.566292  
     469A      1.567118   470A      1.631932   471A      1.638183  
     472A      1.638303   473A      1.643419   474A      1.644613  
     475A      1.652813   476A      1.659798   477A      1.659890  
     478A      1.664407   479A      1.712250   480A      1.720720  
     481A      1.722492   482A      1.735135   483A      1.737588  
     484A      1.743096   485A      1.754928   486A      1.755049  
     487A      1.768067   488A      1.770182   489A      1.770825  
     490A      1.771332   491A      1.788925   492A      1.821476  
     493A      1.822468   494A      1.823289   495A      1.823706  
     496A      1.826321   497A      1.828703   498A      1.833405  
     499A      1.833649   500A      1.846314   501A      1.853149  
     502A      1.853249   503A      1.854793   504A      1.868926  
     505A      1.870246   506A      1.875704   507A      1.876194  
     508A      1.891027   509A      1.895473   510A      1.905610  
     511A      1.906051   512A      1.906171   513A      1.907290  
     514A      1.908649   515A      1.908689   516A      1.908962  
     517A      1.912429   518A      1.914616   519A      1.919684  
     520A      1.919734   521A      1.926311   522A      1.926488  
     523A      1.928385   524A      1.937207   525A      1.938036  
     526A      1.955635   527A      1.958086   528A      1.961410  
     529A      1.961556   530A      1.961694   531A      1.965446  
     532A      1.966213   533A      1.970870   534A      1.970972  
     535A      1.983442   536A      1.983860   537A      1.987788  
     538A      1.988790   539A      1.991802   540A      1.993372  
     541A      1.994618   542A      1.999819   543A      2.000232  
     544A      2.002447   545A      2.007227   546A      2.007834  
     547A      2.016797   548A      2.016897   549A      2.017495  
     550A      2.019684   551A      2.024727   552A      2.025477  
     553A      2.025621   554A      2.034128   555A      2.034150  
     556A      2.049573   557A      2.049941   558A      2.050234  
     559A      2.055998   560A      2.056134   561A      2.062448  
     562A      2.068119   563A      2.068210   564A      2.068972  
     565A      2.069097   566A      2.073173   567A      2.073991  
     568A      2.076597   569A      2.076623   570A      2.080158  
     571A      2.080316   572A      2.082718   573A      2.084095  
     574A      2.105338   575A      2.105401   576A      2.107968  
     577A      2.108244   578A      2.133887   579A      2.151939  
     580A      2.152030   581A      2.152954   582A      2.156783  
     583A      2.159723   584A      2.161656   585A      2.163086  
     586A      2.163157   587A      2.173041   588A      2.173321  
     589A      2.175349   590A      2.179938   591A      2.192482  
     592A      2.192511   593A      2.196174   594A      2.196269  
     595A      2.201768   596A      2.209382   597A      2.209458  
     598A      2.211877   599A      2.211950   600A      2.218253  
     601A      2.219321   602A      2.219400   603A      2.219675  
     604A      2.219787   605A      2.222573   606A      2.228117  
     607A      2.228142   608A      2.228199   609A      2.229757  
     610A      2.232251   611A      2.232318   612A      2.237566  
     613A      2.237622   614A      2.239722   615A      2.239795  
     616A      2.241399   617A      2.242915   618A      2.242958  
     619A      2.243592   620A      2.247653   621A      2.247684  
     622A      2.250123   623A      2.251057   624A      2.255982  
     625A      2.256012   626A      2.259756   627A      2.259875  
     628A      2.260682   629A      2.263104   630A      2.264541  
     631A      2.264572   632A      2.268431   633A      2.268517  
     634A      2.271374   635A      2.271494   636A      2.271789  
     637A      2.276098   638A      2.283446   639A      2.288490  
     640A      2.298282   641A      2.298404   642A      2.302148  
     643A      2.302159   644A      2.314943   645A      2.318447  
     646A      2.323934   647A      2.323949   648A      2.329118  
     649A      2.329181   650A      2.330858   651A      2.330893  
     652A      2.340415   653A      2.349787   654A      2.350922  
     655A      2.351051   656A      2.353541   657A      2.353575  
     658A      2.354299   659A      2.364778   660A      2.364796  
     661A      2.370034   662A      2.370066   663A      2.375964  
     664A      2.388037   665A      2.388074   666A      2.395378  
     667A      2.408563   668A      2.408626   669A      2.411608  
     670A      2.416018   671A      2.416123   672A      2.417279  
     673A      2.426640   674A      2.426656   675A      2.437142  
     676A      2.439922   677A      2.448021   678A      2.448088  
     679A      2.449826   680A      2.451947   681A      2.452446  
     682A      2.452457   683A      2.458054   684A      2.458129  
     685A      2.459363   686A      2.464251   687A      2.464305  
     688A      2.470740   689A      2.473334   690A      2.475161  
     691A      2.475249   692A      2.481043   693A      2.481445  
     694A      2.488605   695A      2.488694   696A      2.496185  
     697A      2.500766   698A      2.500799   699A      2.508675  
     700A      2.525104   701A      2.525219   702A      2.528669  
     703A      2.528792   704A      2.533909   705A      2.534031  
     706A      2.544228   707A      2.544271   708A      2.547574  
     709A      2.550704   710A      2.554473   711A      2.563411  
     712A      2.563681   713A      2.566656   714A      2.569423  
     715A      2.569474   716A      2.579242   717A      2.582677  
     718A      2.582693   719A      2.583640   720A      2.583654  
     721A      2.588977   722A      2.593266   723A      2.602670  
     724A      2.606054   725A      2.612359   726A      2.612453  
     727A      2.618073   728A      2.618141   729A      2.621427  
     730A      2.625960   731A      2.630043   732A      2.630168  
     733A      2.631440   734A      2.631523   735A      2.639830  
     736A      2.639840   737A      2.639875   738A      2.644469  
     739A      2.651438   740A      2.660573   741A      2.660729  
     742A      2.684433   743A      2.684475   744A      2.690454  
     745A      2.704108   746A      2.704544   747A      2.704632  
     748A      2.710633   749A      2.710694   750A      2.711440  
     751A      2.715949   752A      2.716084   753A      2.727854  
     754A      2.732247   755A      2.732627   756A      2.733088  
     757A      2.737597   758A      2.737932   759A      2.741281  
     760A      2.741342   761A      2.755558   762A      2.755876  
     763A      2.770198   764A      2.770271   765A      2.780496  
     766A      2.780684   767A      2.785498   768A      2.788970  
     769A      2.793102   770A      2.795918   771A      2.796178  
     772A      2.798198   773A      2.798275   774A      2.803621  
     775A      2.803663   776A      2.822384   777A      2.824940  
     778A      2.825173   779A      2.829100   780A      2.831272  
     781A      2.831589   782A      2.837710   783A      2.838770  
     784A      2.838844   785A      2.847960   786A      2.864246  
[...]
     709A      1.380200   710A      1.390588   711A      1.399237  
     712A      1.405098   713A      1.405128   714A      1.410896  
     715A      1.410969   716A      1.411478   717A      1.414039  
     718A      1.414046   719A      1.420171   720A      1.424519  
     721A      1.429675   722A      1.433987   723A      1.434017  
     724A      1.436530   725A      1.436589   726A      1.441653  
     727A      1.441795   728A      1.441891   729A      1.443512  
     730A      1.448783   731A      1.450610   732A      1.450648  
     733A      1.450763   734A      1.466980   735A      1.467032  
     736A      1.478939   737A      1.479047   738A      1.517709  
     739A      1.517728   740A      1.522105   741A      1.522122  
     742A      1.535281   743A      1.552420   744A      1.583275  
     745A      1.600693   746A      1.601227   747A      1.603579  
     748A      1.609675   749A      1.611540   750A      1.611600  
     751A      1.613879   752A      1.614189   753A      1.620109  
     754A      1.624458   755A      1.624564   756A      1.634868  
     757A      1.635066   758A      1.642649   759A      1.642669  
     760A      1.643648   761A      1.643821   762A      1.646146  
     763A      1.646288   764A      1.650957   765A      1.661417  
     766A      1.661451   767A      1.667993   768A      1.674672  
     769A      1.676592   770A      1.676793   771A      1.676887  
     772A      1.677001   773A      1.677215   774A      1.684052  
     775A      1.686174   776A      1.686220   777A      1.696156  
     778A      1.699063   779A      1.699120   780A      1.699212  
     781A      1.700154   782A      1.700207   783A      1.704524  
     784A      1.704921   785A      1.704993   786A      1.717286  
     787A      1.717315   788A      1.741826   789A      1.749524  
     790A      1.751753   791A      1.760929   792A      1.760955  
     793A      1.761148   794A      1.761757   795A      1.761875  
     796A      1.762116   797A      1.777790   798A      1.777825  
     799A      1.792506   800A      1.792531   801A      1.817417  
     802A      1.817462   803A      1.818020   804A      1.824904  
     805A      1.825003   806A      1.832515   807A      1.832594  
     808A      1.840058   809A      1.842486   810A      1.847425  
     811A      1.852069   812A      1.862004   813A      1.862052  
     814A      1.864735   815A      1.867837   816A      1.867928  
     817A      1.869344   818A      1.873361   819A      1.880331  
     820A      1.880368   821A      1.881233   822A      1.896555  
     823A      1.896638   824A      1.900262   825A      1.903464  
     826A      1.903581   827A      1.908878   828A      1.909010  
     829A      1.917911   830A      1.918044   831A      1.918524  
     832A      1.918783   833A      1.919378   834A      1.922208  
     835A      1.922296   836A      1.940613   837A      1.942741  
     838A      1.944005   839A      1.944210   840A      1.947864  
     841A      1.947891   842A      1.955387   843A      1.955503  
     844A      1.957636   845A      1.957701   846A      1.958146  
     847A      1.977794   848A      1.984663   849A      1.984731  
     850A      1.993614   851A      1.997252   852A      1.999976  
     853A      1.999994   854A      2.006581   855A      2.008842  
     856A      2.013476   857A      2.013655   858A      2.028140  
     859A      2.030194   860A      2.030449   861A      2.030963  
     862A      2.031905   863A      2.032142   864A      2.033676  
     865A      2.048778   866A      2.053156   867A      2.053459  
     868A      2.060453   869A      2.060738   870A      2.062889  
     871A      2.063458   872A      2.070260   873A      2.074228  
     874A      2.074494   875A      2.074853   876A      2.081324  
     877A      2.081366   878A      2.084411   879A      2.089312  
     880A      2.089401   881A      2.093437   882A      2.095300  
     883A      2.097028   884A      2.097703   885A      2.101135  
     886A      2.101204   887A      2.109283   888A      2.109327  
     889A      2.111834   890A      2.112139   891A      2.112312  
     892A      2.116777   893A      2.120182   894A      2.120345  
     895A      2.120441   896A      2.121674   897A      2.121749  
     898A      2.128846   899A      2.129070   900A      2.134682  
     901A      2.135093   902A      2.136733   903A      2.136792  
     904A      2.143530   905A      2.143564   906A      2.156890  
     907A      2.160836   908A      2.160867   909A      2.163329  
     910A      2.163387   911A      2.172171   912A      2.180276  
     913A      2.180340   914A      2.191315   915A      2.191646  
     916A      2.192626   917A      2.194499   918A      2.195983  
     919A      2.196064   920A      2.206249   921A      2.219812  
     922A      2.220583   923A      2.220615   924A      2.228419  
     925A      2.229785   926A      2.233583   927A      2.233716  
     928A      2.243674   929A      2.244014   930A      2.244898  
     931A      2.245281   932A      2.248010   933A      2.260458  
     934A      2.260562   935A      2.270625   936A      2.270638  
     937A      2.272651   938A      2.272690   939A      2.281133  
     940A      2.300446   941A      2.306764   942A      2.312710  
     943A      2.314423   944A      2.322752   945A      2.327011  
     946A      2.331314   947A      2.331434   948A      2.332564  
     949A      2.335941   950A      2.351474   951A      2.352103  
     952A      2.353507   953A      2.353678   954A      2.366870  
     955A      2.367036   956A      2.375029   957A      2.382887  
     958A      2.416283   959A      2.424140   960A      2.424603  
     961A      2.424627   962A      2.436552   963A      2.441708  
     964A      2.441759   965A      2.470348   966A      2.474299  
     967A      2.474439   968A      2.486259   969A      2.486276  
     970A      2.502469   971A      2.520716   972A      2.530103  
     973A      2.531995   974A      2.546020   975A      2.546479  
     976A      2.546506   977A      2.554756   978A      2.554811  
     979A      2.555000   980A      2.560300   981A      2.560302  
     982A      2.573192   983A      2.573222   984A      2.575075  
     985A      2.575611   986A      2.585812   987A      2.585931  
     988A      2.587573   989A      2.590243   990A      2.591509  
     991A      2.608265   992A      2.624342   993A      2.624399  
     994A      2.628942   995A      2.631765   996A      2.632292  
     997A      2.641688   998A      2.641749   999A      2.651409  
    1000A      2.651754  1001A      2.656930  1002A      2.683441  
    1003A      2.684167  1004A      2.684581  1005A      2.688836  
    1006A      2.702477  1007A      2.702799  1008A      2.713233  
    1009A      2.713242  1010A      2.719018  1011A      2.719041  
    1012A      2.723733  1013A      2.723959  1014A      2.739864  
    1015A      2.753258  1016A      2.753628  1017A      2.777925  
    1018A      2.795254  1019A      2.795412  1020A      2.815882  
    1021A      2.827256  1022A      2.829522  1023A      2.833527  
    1024A      2.845493  1025A      2.845852  1026A      2.856258  
    1027A      2.858480  1028A      2.858705  1029A      2.858868  
    1030A      2.861656  1031A      2.862040  1032A      2.871762  
    1033A      2.918964  1034A      2.918995  1035A      2.925371  
    1036A      2.933988  1037A      2.934044  1038A      2.951303  
    1039A      2.951344  1040A      2.963918  1041A      3.010562  
    1042A      3.010682  1043A      3.012080  1044A      3.030488  
    1045A      3.064642  1046A      3.064699  1047A      3.070956  
    1048A      3.071071  1049A      3.111517  1050A      3.112304  
    1051A      3.129538  1052A      3.130156  1053A      3.130391  
    1054A      3.137610  1055A      3.147428  1056A      3.147466  
    1057A      3.147602  1058A      3.149570  1059A      3.149585  
    1060A      3.159019  1061A      3.159346  1062A      3.166378  
    1063A      3.166776  1064A      3.191988  1065A      3.211219  
    1066A      3.219921  1067A      3.239031  1068A      3.276103  
    1069A      3.277124  1070A      3.277291  1071A      3.283430  
    1072A      3.283629  1073A      3.416775  1074A      3.417243  
    1075A      3.443981  1076A      3.482678  1077A      3.485186  
    1078A      3.550325  1079A      3.578225  1080A      3.580239  
    1081A      3.594543  1082A      3.627625  1083A      3.629492  
    1084A      3.663398  1085A      3.671150  1086A      3.769470  
    1087A      3.783385  1088A      3.784371  1089A      3.871210  
    1090A      3.871219  1091A      3.913691  1092A      3.913810  
    1093A      3.977106  1094A      4.011139  1095A      4.041174  
    1096A      4.052634  1097A      4.086104  1098A      4.258776  
    1099A      4.289785  1100A      4.290067  1101A      4.373599  
    1102A      5.752785  1103A      5.752790  1104A      5.754026  
    1105A      5.760267  1106A      5.760281  1107A      5.764397  
    1108A      5.764401  1109A      5.765068  1110A      5.791252  
    1111A      5.791687  1112A      5.791767  1113A      6.023843  
    1114A      6.024173  1115A      6.025641  1116A      6.199061  
    1117A      6.330053  1118A      6.330374  1119A      6.383068  
    1120A      6.383421  1121A      6.386992  1122A      7.217946  
    1123A      7.218111  1124A      7.244956  1125A      7.245133  
    1126A      7.284477  1127A      7.297484  1128A      7.297530  
    1129A      7.397522  1130A      7.485988  1131A      7.535690  
    1132A      7.535991  1133A      7.669395  1134A     12.631297  
    1135A     42.921055  1136A     42.934279  1137A     42.934323  
    1138A     42.949430  

    Final Occupation by Irrep:
              A 
    DOCC [   171 ]
    NA   [   171 ]
    NB   [   171 ]

  @DF-RHF Final Energy: -2055.89298334632122

   => Energetics <=

    Nuclear Repulsion Energy =           6452.5568002797772351
    One-Electron Energy =              -15636.4672362999881443
    Two-Electron Energy =                7128.0174526738901477
    Total Energy =                      -2055.8929833463207615

Computation Completed


Properties will be evaluated at   0.000000,   0.000000,   0.000000 [a0]

Properties computed using the SCF density matrix


 Multipole Moments:

 ------------------------------------------------------------------------------------
     Multipole            Electronic (a.u.)      Nuclear  (a.u.)        Total (a.u.)
 ------------------------------------------------------------------------------------

 L = 1.  Multiply by 2.5417464519 to convert [e a0] to [Debye]
 Dipole X            :          0.0000420            0.0000419            0.0000839
 Dipole Y            :          0.0000243           -0.0000426           -0.0000182
 Dipole Z            :        358.3553344         -358.3621712           -0.0068368
 Magnitude           :                                                    0.0068373

 ------------------------------------------------------------------------------------

*** tstop() called on d-6-1-4 at Sat Jan 20 23:45:26 2024
Module time:
	user time   =    2267.08 seconds =      37.78 minutes
	system time =      52.37 seconds =       0.87 minutes
	total time  =        245 seconds =       4.08 minutes
Total time:
	user time   =    6955.75 seconds =     115.93 minutes
	system time =     162.37 seconds =       2.71 minutes
	total time  =        735 seconds =      12.25 minutes
  Constructing Basis Sets for SAPT...

   => Loading Basis Set <=

    Name: (JUN-CC-PVDZ AUX)
    Role: RIFIT
    Keyword: DF_BASIS_SAPT
    atoms 1     entry B          line    56 file /home/gridsan/tfroembgen/.conda/envs/psi4test/share/psi4/basis/jun-cc-pvdz-ri.gbs 
    atoms 2-5   entry F          line   232 file /home/gridsan/tfroembgen/.conda/envs/psi4test/share/psi4/basis/jun-cc-pvdz-ri.gbs 
    atoms 6-59  entry C          line   100 file /home/gridsan/tfroembgen/.conda/envs/psi4test/share/psi4/basis/jun-cc-pvdz-ri.gbs 
    atoms 60-77 entry H          line    30 file /home/gridsan/tfroembgen/.conda/envs/psi4test/share/psi4/basis/jun-cc-pvdz-ri.gbs 

   => Loading Basis Set <=

    Name: (JUN-CC-PVDZ AUX)
    Role: JKFIT
    Keyword: DF_BASIS_ELST
    atoms 1     entry B          line    90 file /home/gridsan/tfroembgen/.conda/envs/psi4test/share/psi4/basis/jun-cc-pvdz-jkfit.gbs 
    atoms 2-5   entry F          line   314 file /home/gridsan/tfroembgen/.conda/envs/psi4test/share/psi4/basis/jun-cc-pvdz-jkfit.gbs 
    atoms 6-59  entry C          line   146 file /home/gridsan/tfroembgen/.conda/envs/psi4test/share/psi4/basis/jun-cc-pvdz-jkfit.gbs 
    atoms 60-77 entry H          line    70 file /home/gridsan/tfroembgen/.conda/envs/psi4test/share/psi4/basis/jun-cc-pvdz-jkfit.gbs 


  //>>>>>>>>>>>>>>>>>>>>>>>>>>>>>>>>>>>//
  //               SSAPT0              //
  //<<<<<<<<<<<<<<<<<<<<<<<<<<<<<<<<<<<//


*** tstart() called on d-6-1-4
*** at Sat Jan 20 23:45:27 2024

        SAPT0  
    Ed Hohenstein
     6 June 2009

      Orbital Information
  --------------------------
    NSO        =      1152
    NMO        =      1138
    NRI        =      4087
    NRI (Elst) =      5075
    NOCC A     =        21
    NOCC B     =       171
    FOCC A     =         5
    FOCC B     =        54
    NVIR A     =      1117
    NVIR B     =       967

    Elst10,r            =     0.011620265078 [Eh]
    Exch10              =     0.000111081465 [Eh]
    Exch10 (S^2)        =     0.000111085927 [Eh]

    Iter     Energy [mEh]          dE [mEh]         Residual      Time [s]
       1      -0.01941937       0.019419369       0.737249872           204
       2      -0.02222297       0.002803604       0.349511416           223
       3      -0.02293697       0.000713998       0.071249688           237
       4      -0.02289041      -0.000046562       0.017055988           252
       5      -0.02286610      -0.000024310       0.002172083           269
       6      -0.02286937       0.000003268       0.000757633           285
       7      -0.02286958       0.000000210       0.000193323           299
       8      -0.02286934      -0.000000234       0.000036509           312
       9      -0.02286935       0.000000007       0.000005875           327
      10      -0.02286935       0.000000004       0.000000720           341

    CHF Iterations converged


    Iter     Energy [mEh]          dE [mEh]         Residual      Time [s]
       1     -10.34695640      10.346956404      53.852095462           294
       2      -6.96206346      -3.384892942       6.980320246           382
       3      -6.95098604      -0.011077427       2.372822779           403
       4      -7.11016186       0.159175823       0.559362241           422
       5      -7.11945510       0.009293238       0.161250804           443
       6      -7.11596202      -0.003493071       0.077714868           461
       7      -7.11492904      -0.001032983       0.029665992           479
       8      -7.11539211       0.000463068       0.012154648           498
       9      -7.11551144       0.000119326       0.003939761           517
      10      -7.11547966      -0.000031771       0.002280913           535
      11      -7.11546191      -0.000017752       0.001553920           554
      12      -7.11546645       0.000004533       0.001050561           574
      13      -7.11547567       0.000009222       0.000495635           593
      14      -7.11547487      -0.000000798       0.000191382           612
      15      -7.11547253      -0.000002340       0.000070210           629
      16      -7.11547292       0.000000391       0.000039570           646
      17      -7.11547324       0.000000324       0.000017227           663
      18      -7.11547324      -0.000000008       0.000005279           680
      19      -7.11547318      -0.000000055       0.000002013           695
      20      -7.11547318      -0.000000004       0.000000807           711

    CHF Iterations converged

    Ind20,r (A<-B)      =    -0.000022869354 [Eh]
    Ind20,r (B<-A)      =    -0.007115473176 [Eh]
    Ind20,r             =    -0.007138342530 [Eh]
    Exch-Ind20,r (A<-B) =     0.000010463594 [Eh]
    Exch-Ind20,r (B<-A) =     0.000014005943 [Eh]
    Exch-Ind20,r        =     0.000024469537 [Eh]
    Disp20              =    -0.002544719208 [Eh]
    Disp20 (SS)         =    -0.001272359604 [Eh]
    Disp20 (OS)         =    -0.001272359604 [Eh]
    Exch-Disp20         =     0.000035084460 [Eh]
    Exch-Disp20 (SS)    =     0.000024590801 [Eh]
    Exch-Disp20 (OS)    =     0.000010493660 [Eh]

    SAPT Results 
  --------------------------------------------------------------------------------------------------------
    Electrostatics                 11.62026508 [mEh]       7.29182642 [kcal/mol]      30.50900176 [kJ/mol]
      Elst10,r                     11.62026508 [mEh]       7.29182642 [kcal/mol]      30.50900176 [kJ/mol]

    Exchange                        0.11108146 [mEh]       0.06970467 [kcal/mol]       0.29164435 [kJ/mol]
      Exch10                        0.11108146 [mEh]       0.06970467 [kcal/mol]       0.29164435 [kJ/mol]
      Exch10(S^2)                   0.11108593 [mEh]       0.06970747 [kcal/mol]       0.29165606 [kJ/mol]

    Induction                      -7.04795615 [mEh]      -4.42265925 [kcal/mol]     -18.50440632 [kJ/mol]
      Ind20,r                      -7.13834253 [mEh]      -4.47937756 [kcal/mol]     -18.74171573 [kJ/mol]
      Exch-Ind20,r                  0.02446954 [mEh]       0.01535487 [kcal/mol]       0.06424476 [kJ/mol]
      delta HF,r (2)                0.06591684 [mEh]       0.04136344 [kcal/mol]       0.17306465 [kJ/mol]

    Dispersion                     -2.50963475 [mEh]      -1.57481958 [kcal/mol]      -6.58904512 [kJ/mol]
      Disp20                       -2.54471921 [mEh]      -1.59683541 [kcal/mol]      -6.68115936 [kJ/mol]
      Exch-Disp20                   0.03508446 [mEh]       0.02201583 [kcal/mol]       0.09211424 [kJ/mol]
      Disp20 (SS)                  -1.27235960 [mEh]      -0.79841771 [kcal/mol]      -3.34057968 [kJ/mol]
      Disp20 (OS)                  -1.27235960 [mEh]      -0.79841771 [kcal/mol]      -3.34057968 [kJ/mol]
      Exch-Disp20 (SS)              0.02459080 [mEh]       0.01543096 [kcal/mol]       0.06456314 [kJ/mol]
      Exch-Disp20 (OS)              0.01049366 [mEh]       0.00658487 [kcal/mol]       0.02755110 [kJ/mol]

  Total HF                          4.68339039 [mEh]       2.93887184 [kcal/mol]      12.29623978 [kJ/mol]
  Total SAPT0                       2.17375564 [mEh]       1.36405226 [kcal/mol]       5.70719466 [kJ/mol]

  Special recipe for scaled SAPT0 (see Manual):
    Electrostatics sSAPT0          11.62026508 [mEh]       7.29182642 [kcal/mol]      30.50900176 [kJ/mol]
    Exchange sSAPT0                 0.11108146 [mEh]       0.06970467 [kcal/mol]       0.29164435 [kJ/mol]
    Induction sSAPT0               -7.04795910 [mEh]      -4.42266111 [kcal/mol]     -18.50441406 [kJ/mol]
    Dispersion sSAPT0              -2.50963898 [mEh]      -1.57482223 [kcal/mol]      -6.58905622 [kJ/mol]
  Total sSAPT0                      2.17374847 [mEh]       1.36404776 [kcal/mol]       5.70717582 [kJ/mol]
  --------------------------------------------------------------------------------------------------------

*** tstop() called on d-6-1-4 at Sun Jan 21 00:55:58 2024
Module time:
	user time   =    7628.79 seconds =     127.15 minutes
	system time =     776.38 seconds =      12.94 minutes
	total time  =       4231 seconds =      70.52 minutes
Total time:
	user time   =   14585.51 seconds =     243.09 minutes
	system time =     938.78 seconds =      15.65 minutes
	total time  =       4967 seconds =      82.78 minutes

    Psi4 stopped on: Sunday, 21 January 2024 12:55AM
    Psi4 wall time for execution: 1:22:48.42

*** Psi4 exiting successfully. Buy a developer a beer!
