
    -----------------------------------------------------------------------
          Psi4: An Open-Source Ab Initio Electronic Structure Package
                               Psi4 1.9 release

                         Git: Rev {} zzzzzzz 


    D. G. A. Smith, L. A. Burns, A. C. Simmonett, R. M. Parrish,
    M. C. Schieber, R. Galvelis, P. Kraus, H. Kruse, R. Di Remigio,
    A. Alenaizan, A. M. James, S. Lehtola, J. P. Misiewicz, M. Scheurer,
    R. A. Shaw, J. B. Schriber, Y. Xie, Z. L. Glick, D. A. Sirianni,
    J. S. O'Brien, J. M. Waldrop, A. Kumar, E. G. Hohenstein,
    B. P. Pritchard, B. R. Brooks, H. F. Schaefer III, A. Yu. Sokolov,
    K. Patkowski, A. E. DePrince III, U. Bozkaya, R. A. King,
    F. A. Evangelista, J. M. Turney, T. D. Crawford, C. D. Sherrill,
    J. Chem. Phys. 152(18) 184108 (2020). https://doi.org/10.1063/5.0006002

                            Additional Code Authors
    E. T. Seidl, C. L. Janssen, E. F. Valeev, M. L. Leininger,
    J. F. Gonthier, R. M. Richard, H. R. McAlexander, M. Saitow, X. Wang,
    P. Verma, M. H. Lechner, A. Jiang, S. Behnle, A. G. Heide,
    M. F. Herbst, and D. L. Poole

             Previous Authors, Complete List of Code Contributors,
                       and Citations for Specific Modules
    https://github.com/psi4/psi4/blob/master/codemeta.json
    https://github.com/psi4/psi4/graphs/contributors
    http://psicode.org/psi4manual/master/introduction.html#citing-psifour

    -----------------------------------------------------------------------


    Psi4 started on: Monday, 22 January 2024 11:57AM

    Process ID: 2404291
    Host:       d-16-12-3
    PSIDATADIR: /home/gridsan/tfroembgen/.conda/envs/psi4test/share/psi4
    Memory:     500.0 MiB
    Threads:    12
    
  ==> Input File <==

--------------------------------------------------------------------------
memory 32 GB # how much memory is available ! Depends on the nodes/cores !

molecule dimer {
# monomer A
-1 1    # Charge and multiplicity
B -0.000046  0.000337 4.999994
F -1.153597  0.000048 5.815641
F  1.153661 -0.000581 5.815641
F -0.000019 -1.153637 4.184360
F -0.000019  1.153978 4.184360
--
# monomer B
0 1     # Charge and multiplicity
C   1.22531237526482      0.70753866091955      0.00613762728373
C   1.22532433589282     -0.70753852257020     -0.00619318228664
C   -0.00000567409046      1.41496628609039     -0.00672680580738
C   2.45644923379077      1.41832825917820      0.00902448468363
C   0.00001130712078     -1.41497612663474      0.00347275151708
C   -1.22530046906674      0.70754574598412      0.00838914760619
C   2.45643823516184     -1.41832293188077     -0.00843833914343
C   -0.00000085313587      2.83680140328112     -0.00913035594137
C   3.68182717731192      0.70931832800114     -0.00808954934571
C   2.45512052870677      2.83422403348893     -0.00819210630633
C   3.68182158506039     -0.70933346742900      0.00798293467272
C   -1.22531311884624     -0.70752714354401     -0.00512042085974
C   1.22670006104402      3.54346985599427      0.00816696660346
C   0.00000526469929     -2.83678176723568      0.00832091913869
C   -2.45643555300670      1.41831729028492      0.00842454345199
C   2.45512389762097     -2.83422965658853      0.00783102630520
C   -1.22671388474763      3.54346943575023      0.00827029982280
C   4.91451777504333      1.42717324448953     -0.00160886631602
C   3.69315067131765      3.54279566454522     -0.00155906667985
C   -2.45643712022637     -1.41831290883911     -0.00846337726810
C   1.22670532178455     -3.54347386990643     -0.00780316414624
C   -2.45512491866593      2.83421703463423     -0.00818572995999
C   4.91452486062398     -1.42718653794377      0.00136387641845
C   1.22142509354026      4.97013443726031      0.00150231067809
C   4.89300870916237      2.82518837202648     -0.00039219795739
C   -1.22669652864725     -3.54347062507680     -0.00753595973677
C   -3.68181849668397      0.70932533873199     -0.00807686886569
C   3.69314758099218     -3.54280096939050      0.00148176697923
C   -1.22143177215231      4.97012866986289      0.00168580605083
C   6.13477145276790      0.68054831910577     -0.00083909176631
C   3.65678936045204      4.97295361556775     -0.00065042889723
C   -2.45512642789169     -2.83421472106065      0.00758666850712
C   -3.68181869921921     -0.70932533146830      0.00810055625144
C   4.89301309775526     -2.82519973363176      0.00021895393805
C   -0.00000059327114      5.65044773803267      0.00045449734393
C   6.13477559217374     -0.68055448207492      0.00042622874941
C   2.47813196269732      5.65357712333155      0.00063835075260
C   1.22142288457925     -4.97012668293268     -0.00129718634452
C   -3.69316190412301      3.54279732619245     -0.00139355922051
C   -1.22142804110313     -4.97011793159564     -0.00140994817719
C   -4.91452132810043      1.42717581899491     -0.00153192130862
C   3.65678749952045     -4.97295485423912      0.00080007163680
C   -2.47813805026426      5.65357479452875      0.00092287576113
C   -3.69314125872231     -3.54278984697859      0.00136564082345
C   -4.91451200321153     -1.42718062802730      0.00139857359209
C   -0.00000552908399     -5.65043791501335      0.00005899322272
C   -4.89302000425900      2.82518897091939     -0.00040227981744
C   2.47812647313991     -5.65357317188818     -0.00029052915548
C   -3.65679823041642      4.97295655404175     -0.00047374852278
C   -4.89299899901461     -2.82519139505969      0.00006491824035
C   -2.47812801824129     -5.65356579800621     -0.00056571680280
C   -6.13477002348955      0.68054913825639     -0.00086464346868
C   -3.65678835334731     -4.97294365097028      0.00058578382008
C   -6.13476456307132     -0.68055354348201      0.00040575295444
H   5.83528897565761      3.36927626695423      0.00396712770529
H   7.07385965258860      1.22821762089947     -0.00037744837300
H   4.60066374401555      5.51238117445323     -0.00014522814529
H   5.83528386714679     -3.36930568472863     -0.00423551337640
H   -0.00001167146422      6.73853104613662     -0.00389474766392
H   7.07386165167227     -1.22822657074368     -0.00008250934481
H   2.47331421164041      6.74068466339473      0.00017162982210
H   4.60066897122302     -5.51237575717576      0.00039007446835
H   -2.47331820069565      6.74068209160650      0.00047297644710
H   -0.00000978838621     -6.73852780445195      0.00458867820736
H   -5.83530143450167      3.36927132229595      0.00410314985360
H   2.47330840367253     -6.74068500242887      0.00027980126949
H   -4.60067436136587      5.51237839860371      0.00002010017831
H   -5.83527902699321     -3.36928859177951     -0.00451481925734
H   -2.47329986759855     -6.74067870613986     -0.00016951527498
H   -7.07385728692578      1.22822084484047     -0.00046143985387
H   -4.60067330624313     -5.51236229778631      0.00021776644566
H   -7.07385645456741     -1.22822025997701     -0.00017736581114

    units angstrom      # Angstroms are the default
    no_reorient         # Geometry fixed, default
    symmetry c1         # C1 symmetry, default
}

set {
    scf_type DF         # Density fitting, faster than exact integrals
    freeze_core True    # Freeze core electrons
    basis jun-cc-pVDZ   # Jun-cc-pVDZ basis set, recommended for sSAPT0 in https://doi.org/10.1063/1.4867135
}

energy('ssapt0')        # Compute sSAPT0 energy, includes also SAPT0
--------------------------------------------------------------------------

  Memory set to  29.802 GiB by Python driver.

Scratch directory: /state/partition1/slurm_tmp/24792924.4294967291.0/
   => Loading Basis Set <=

    Name: JUN-CC-PVDZ
    Role: ORBITAL
    Keyword: BASIS
    atoms 1     entry B          line   130 file /home/gridsan/tfroembgen/.conda/envs/psi4test/share/psi4/basis/jun-cc-pvdz.gbs 
    atoms 2-5   entry F          line   266 file /home/gridsan/tfroembgen/.conda/envs/psi4test/share/psi4/basis/jun-cc-pvdz.gbs 
    atoms 6-59  entry C          line   164 file /home/gridsan/tfroembgen/.conda/envs/psi4test/share/psi4/basis/jun-cc-pvdz.gbs 
    atoms 60-77 entry H          line    36 file /home/gridsan/tfroembgen/.conda/envs/psi4test/share/psi4/basis/jun-cc-pvdz.gbs 

   => Loading Basis Set <=

    Name: JUN-CC-PVDZ
    Role: ORBITAL
    Keyword: BASIS
    atoms 1     entry B          line   130 file /home/gridsan/tfroembgen/.conda/envs/psi4test/share/psi4/basis/jun-cc-pvdz.gbs 
    atoms 2-5   entry F          line   266 file /home/gridsan/tfroembgen/.conda/envs/psi4test/share/psi4/basis/jun-cc-pvdz.gbs 
    atoms 6-59  entry C          line   164 file /home/gridsan/tfroembgen/.conda/envs/psi4test/share/psi4/basis/jun-cc-pvdz.gbs 
    atoms 60-77 entry H          line    36 file /home/gridsan/tfroembgen/.conda/envs/psi4test/share/psi4/basis/jun-cc-pvdz.gbs 


  //>>>>>>>>>>>>>>>>>>>>>>>>>>>>>>>>>>>//
  //              Dimer HF             //
  //<<<<<<<<<<<<<<<<<<<<<<<<<<<<<<<<<<<//

   => Libint2 <=

    Primary   basis highest AM E, G, H:  7, 7, 4
    Auxiliary basis highest AM E, G, H:  7, 7, 5
    Onebody   basis highest AM E, G, H:  7, 7, 5
    Solid Harmonics ordering:            gaussian

*** tstart() called on d-16-12-3
*** at Mon Jan 22 11:57:51 2024

   => Loading Basis Set <=

    Name: JUN-CC-PVDZ
    Role: ORBITAL
    Keyword: BASIS
    atoms 1     entry B          line   130 file /home/gridsan/tfroembgen/.conda/envs/psi4test/share/psi4/basis/jun-cc-pvdz.gbs 
    atoms 2-5   entry F          line   266 file /home/gridsan/tfroembgen/.conda/envs/psi4test/share/psi4/basis/jun-cc-pvdz.gbs 
    atoms 6-59  entry C          line   164 file /home/gridsan/tfroembgen/.conda/envs/psi4test/share/psi4/basis/jun-cc-pvdz.gbs 
    atoms 60-77 entry H          line    36 file /home/gridsan/tfroembgen/.conda/envs/psi4test/share/psi4/basis/jun-cc-pvdz.gbs 


         ---------------------------------------------------------
                                   SCF
               by Justin Turney, Rob Parrish, Andy Simmonett
                          and Daniel G. A. Smith
                              RHF Reference
                       12 Threads,  30517 MiB Core
         ---------------------------------------------------------

  ==> Geometry <==

    Molecular point group: c1
    Full point group: C1

    Geometry (in Angstrom), charge = -1, multiplicity = 1:

       Center              X                  Y                   Z               Mass       
    ------------   -----------------  -----------------  -----------------  -----------------
         B           -0.000046449334     0.000336519434     4.422397926791    11.009305360000
         F           -1.153597449334     0.000047519434     5.238044926791    18.998403162730
         F            1.153660550666    -0.000581480566     5.238044926791    18.998403162730
         F           -0.000019449334    -1.153637480566     3.606763926791    18.998403162730
         F           -0.000019449334     1.153977519434     3.606763926791    18.998403162730
         C            1.225311925931     0.707538180353    -0.571458445926    12.000000000000
         C            1.225323886559    -0.707539003137    -0.583789255496    12.000000000000
         C           -0.000006123424     1.414965805524    -0.584322879017    12.000000000000
         C            2.456448784457     1.418327778612    -0.568571588526    12.000000000000
         C            0.000010857787    -1.414976607201    -0.574123321692    12.000000000000
         C           -1.225300918401     0.707545265418    -0.569206925603    12.000000000000
         C            2.456437785828    -1.418323412447    -0.586034412353    12.000000000000
         C           -0.000001302470     2.836800922715    -0.586726429151    12.000000000000
         C            3.681826727978     0.709317847435    -0.585685622555    12.000000000000
         C            2.455120079373     2.834223552923    -0.585788179516    12.000000000000
         C            3.681821135726    -0.709333947995    -0.569613138537    12.000000000000
         C           -1.225313568180    -0.707527624110    -0.582716494069    12.000000000000
         C            1.226699611710     3.543469375428    -0.569429106606    12.000000000000
         C            0.000004815365    -2.836782247802    -0.569275154071    12.000000000000
         C           -2.456436002341     1.418316809719    -0.569171529757    12.000000000000
         C            2.455123448287    -2.834230137155    -0.569765046904    12.000000000000
         C           -1.226714334082     3.543468955184    -0.569325773387    12.000000000000
         C            4.914517325709     1.427172763923    -0.579204939525    12.000000000000
         C            3.693150221984     3.542795183979    -0.579155139889    12.000000000000
         C           -2.456437569560    -1.418313389406    -0.586059450478    12.000000000000
         C            1.226704872451    -3.543474350473    -0.585399237356    12.000000000000
         C           -2.455125368000     2.834216554068    -0.585781803169    12.000000000000
         C            4.914524411290    -1.427187018510    -0.576232196791    12.000000000000
         C            1.221424644206     4.970133956694    -0.576093762531    12.000000000000
         C            4.893008259828     2.825187891460    -0.577988271167    12.000000000000
         C           -1.226696977981    -3.543471105643    -0.585132032946    12.000000000000
         C           -3.681818946018     0.709324858166    -0.585672942075    12.000000000000
         C            3.693147131658    -3.542801449957    -0.576114306230    12.000000000000
         C           -1.221432221486     4.970128189296    -0.575910267159    12.000000000000
         C            6.134771003434     0.680547838539    -0.578435164976    12.000000000000
         C            3.656788911118     4.972953135001    -0.578246502107    12.000000000000
         C           -2.455126877226    -2.834215201627    -0.570009404702    12.000000000000
         C           -3.681819148553    -0.709325812035    -0.569495516958    12.000000000000
         C            4.893012648421    -2.825200214198    -0.577377119271    12.000000000000
         C           -0.000001042605     5.650447257466    -0.577141575865    12.000000000000
         C            6.134775142840    -0.680554962641    -0.577169844460    12.000000000000
         C            2.478131513363     5.653576642765    -0.576957722457    12.000000000000
         C            1.221422435245    -4.970127163499    -0.578893259554    12.000000000000
         C           -3.693162353457     3.542796845626    -0.578989632430    12.000000000000
         C           -1.221428490437    -4.970118412162    -0.579006021387    12.000000000000
         C           -4.914521777434     1.427175338429    -0.579127994518    12.000000000000
         C            3.656787050187    -4.972955334806    -0.576796001573    12.000000000000
         C           -2.478138499598     5.653574313962    -0.576673197448    12.000000000000
         C           -3.693141708056    -3.542790327545    -0.576230432386    12.000000000000
         C           -4.914512452545    -1.427181108594    -0.576197499617    12.000000000000
         C           -0.000005978418    -5.650438395580    -0.577537079987    12.000000000000
         C           -4.893020453593     2.825188490353    -0.577998353027    12.000000000000
         C            2.478126023806    -5.653573652455    -0.577886602365    12.000000000000
         C           -3.656798679750     4.972956073475    -0.578069821732    12.000000000000
         C           -4.892999448349    -2.825191875626    -0.577531154969    12.000000000000
         C           -2.478128467575    -5.653566278573    -0.578161790012    12.000000000000
         C           -6.134770472823     0.680548657690    -0.578460716678    12.000000000000
         C           -3.656788802681    -4.972944131537    -0.577010289389    12.000000000000
         C           -6.134765012405    -0.680554024048    -0.577190320255    12.000000000000
         H            5.835288526324     3.369275786388    -0.573628945504     1.007825032230
         H            7.073859203255     1.228217140333    -0.577973521582     1.007825032230
         H            4.600663294682     5.512380693887    -0.577741301355     1.007825032230
         H            5.835283417813    -3.369306165295    -0.581831586586     1.007825032230
         H           -0.000012120798     6.738530565570    -0.581490820873     1.007825032230
         H            7.073861202338    -1.228227051310    -0.577678582554     1.007825032230
         H            2.473313762307     6.740684182828    -0.577424443387     1.007825032230
         H            4.600668521889    -5.512376237742    -0.577205998741     1.007825032230
         H           -2.473318650030     6.740681611040    -0.577123096762     1.007825032230
         H           -0.000010237720    -6.738528285018    -0.573007395002     1.007825032230
         H           -5.835301883836     3.369270841730    -0.573492923356     1.007825032230
         H            2.473307954339    -6.740685482995    -0.577316271940     1.007825032230
         H           -4.600674810700     5.512377918037    -0.577575973031     1.007825032230
         H           -5.835279476327    -3.369289072346    -0.582110892467     1.007825032230
         H           -2.473300316932    -6.740679186706    -0.577765588484     1.007825032230
         H           -7.073857736260     1.228220364274    -0.578057513063     1.007825032230
         H           -4.600673755577    -5.512362778353    -0.577378306764     1.007825032230
         H           -7.073856903901    -1.228220740543    -0.577773439021     1.007825032230

  Running in c1 symmetry.

  Rotational constants: A =      0.00175  B =      0.00175  C =      0.00110 [cm^-1]
  Rotational constants: A =     52.50243  B =     52.49585  C =     33.02250 [MHz]
  Nuclear repulsion = 7731.300706498385807

  Charge       = -1
  Multiplicity = 1
  Electrons    = 384
  Nalpha       = 192
  Nbeta        = 192

  ==> Algorithm <==

  SCF Algorithm Type is DF.
  DIIS enabled.
  MOM disabled.
  Fractional occupation disabled.
  Guess Type is SAD.
  Energy threshold   = 1.00e-08
  Density threshold  = 1.00e-08
  Integral threshold = 1.00e-12

  ==> Primary Basis <==

  Basis Set: JUN-CC-PVDZ
    Blend: JUN-CC-PVDZ
    Number of shells: 526
    Number of basis functions: 1152
    Number of Cartesian functions: 1211
    Spherical Harmonics?: true
    Max angular momentum: 2

   => Loading Basis Set <=

    Name: (JUN-CC-PVDZ AUX)
    Role: JKFIT
    Keyword: DF_BASIS_SCF
    atoms 1     entry B          line    90 file /home/gridsan/tfroembgen/.conda/envs/psi4test/share/psi4/basis/jun-cc-pvdz-jkfit.gbs 
    atoms 2-5   entry F          line   314 file /home/gridsan/tfroembgen/.conda/envs/psi4test/share/psi4/basis/jun-cc-pvdz-jkfit.gbs 
    atoms 6-59  entry C          line   146 file /home/gridsan/tfroembgen/.conda/envs/psi4test/share/psi4/basis/jun-cc-pvdz-jkfit.gbs 
    atoms 60-77 entry H          line    70 file /home/gridsan/tfroembgen/.conda/envs/psi4test/share/psi4/basis/jun-cc-pvdz-jkfit.gbs 

  ==> Integral Setup <==

  ==> DiskDFJK: Density-Fitted J/K Matrices <==

    J tasked:                  Yes
    K tasked:                  Yes
    wK tasked:                  No
    OpenMP threads:             12
    Integrals threads:          12
    Memory [MiB]:            22888
    Algorithm:                Core
    Integral Cache:           SAVE
    Schwarz Cutoff:          1E-12
    Fitting Condition:       1E-10

   => Auxiliary Basis Set <=

  Basis Set: (JUN-CC-PVDZ AUX)
    Blend: JUN-CC-PVDZ-JKFIT
    Number of shells: 1755
    Number of basis functions: 5075
    Number of Cartesian functions: 5819
    Spherical Harmonics?: true
    Max angular momentum: 3

  Minimum eigenvalue in the overlap matrix is 8.1669677301E-10.
  Reciprocal condition number of the overlap matrix is 3.5998138024E-11.
    Using canonical orthogonalization.
  Overall, 14 of 1152 possible MOs eliminated.


  ==> Pre-Iterations <==

  SCF Guess: Superposition of Atomic Densities via on-the-fly atomic UHF (no occupation information).

   -------------------------
    Irrep   Nso     Nmo    
   -------------------------
     A       1152    1138 
   -------------------------
    Total    1152    1138
   -------------------------

  ==> Iterations <==

                           Total Energy        Delta E     RMS |[F,P]|

   @DF-RHF iter SAD: -2483.27572361585862   -2.48328e+03   0.00000e+00 
   @DF-RHF iter   1: -2477.61161709285398    5.66411e+00   1.10420e-03 DIIS/ADIIS
   @DF-RHF iter   2: -2478.50574931385745   -8.94132e-01   4.83578e-04 DIIS/ADIIS
   @DF-RHF iter   3: -2478.64325774748977   -1.37508e-01   1.36038e-04 DIIS/ADIIS
   @DF-RHF iter   4: -2478.65694910059528   -1.36914e-02   5.90742e-05 DIIS
   @DF-RHF iter   5: -2478.65984264769213   -2.89355e-03   1.69094e-05 DIIS
   @DF-RHF iter   6: -2478.66014952004161   -3.06872e-04   5.40385e-06 DIIS
   @DF-RHF iter   7: -2478.66023157914151   -8.20591e-05   2.66371e-06 DIIS
   @DF-RHF iter   8: -2478.66025431110029   -2.27320e-05   1.21313e-06 DIIS
   @DF-RHF iter   9: -2478.66026103627246   -6.72517e-06   2.57286e-07 DIIS
   @DF-RHF iter  10: -2478.66026126690940   -2.30637e-07   9.13141e-08 DIIS
   @DF-RHF iter  11: -2478.66026128418207   -1.72727e-08   3.57978e-08 DIIS
   @DF-RHF iter  12: -2478.66026128786507   -3.68300e-09   1.38529e-08 DIIS
   @DF-RHF iter  13: -2478.66026128828753   -4.22460e-10   6.13567e-09 DIIS
  Energy and wave function converged.


  ==> Post-Iterations <==

    Orbital Energies [Eh]
    ---------------------

    Doubly Occupied:                                                      

       1A    -26.069747     2A    -26.069568     3A    -26.068075  
       4A    -26.068040     5A    -11.188629     6A    -11.188628  
       7A    -11.188571     8A    -11.188570     9A    -11.188502  
      10A    -11.188500    11A    -11.188445    12A    -11.188444  
      13A    -11.188386    14A    -11.188344    15A    -11.188300  
      16A    -11.188256    17A    -11.185969    18A    -11.185950  
      19A    -11.185814    20A    -11.185739    21A    -11.185639  
      22A    -11.185523    23A    -11.185428    24A    -11.185414  
      25A    -11.185297    26A    -11.185252    27A    -11.185239  
      28A    -11.185237    29A    -11.185162    30A    -11.185059  
      31A    -11.184949    32A    -11.184707    33A    -11.184693  
      34A    -11.184559    35A    -11.184229    36A    -11.184135  
      37A    -11.184020    38A    -11.183997    39A    -11.183984  
      40A    -11.183912    41A    -11.183844    42A    -11.183836  
      43A    -11.183806    44A    -11.183800    45A    -11.183748  
      46A    -11.183725    47A    -11.183616    48A    -11.183206  
      49A    -11.183175    50A    -11.182184    51A    -11.182162  
      52A    -11.181978    53A    -11.181977    54A    -11.181938  
      55A    -11.181938    56A    -11.181752    57A    -11.181698  
      58A    -11.181653    59A     -7.540935    60A     -1.412737  
      61A     -1.353749    62A     -1.352965    63A     -1.352198  
      64A     -1.169790    65A     -1.147698    66A     -1.147448  
      67A     -1.118473    68A     -1.118463    69A     -1.107874  
      70A     -1.087680    71A     -1.078183    72A     -1.063279  
      73A     -1.063074    74A     -1.043459    75A     -1.043435  
      76A     -1.010831    77A     -1.010813    78A     -1.006773  
      79A     -0.996539    80A     -0.996532    81A     -0.969071  
      82A     -0.951786    83A     -0.949108    84A     -0.949000  
      85A     -0.948154    86A     -0.943615    87A     -0.915761  
      88A     -0.915734    89A     -0.891911    90A     -0.891903  
      91A     -0.824605    92A     -0.824585    93A     -0.815538  
      94A     -0.813597    95A     -0.813430    96A     -0.810108  
      97A     -0.810074    98A     -0.792138    99A     -0.769234  
     100A     -0.748186   101A     -0.744883   102A     -0.741102  
     103A     -0.741005   104A     -0.725535   105A     -0.725523  
     106A     -0.675012   107A     -0.673704   108A     -0.662900  
     109A     -0.662878   110A     -0.662170   111A     -0.662074  
     112A     -0.645894   113A     -0.629286   114A     -0.629190  
     115A     -0.623332   116A     -0.623238   117A     -0.604013  
     118A     -0.592170   119A     -0.582413   120A     -0.581452  
     121A     -0.581444   122A     -0.579705   123A     -0.569931  
     124A     -0.569870   125A     -0.559018   126A     -0.556968  
     127A     -0.556923   128A     -0.539100   129A     -0.530865  
     130A     -0.530580   131A     -0.530514   132A     -0.530335  
     133A     -0.530238   134A     -0.530141   135A     -0.529886  
     136A     -0.522967   137A     -0.519387   138A     -0.519289  
     139A     -0.517469   140A     -0.503678   141A     -0.503400  
     142A     -0.498607   143A     -0.498599   144A     -0.495227  
     145A     -0.495147   146A     -0.487743   147A     -0.485873  
     148A     -0.485822   149A     -0.469614   150A     -0.469603  
     151A     -0.466942   152A     -0.466941   153A     -0.459775  
     154A     -0.454265   155A     -0.452973   156A     -0.452887  
     157A     -0.449011   158A     -0.448924   159A     -0.431743  
     160A     -0.425930   161A     -0.423981   162A     -0.417116  
     163A     -0.414255   164A     -0.411571   165A     -0.411557  
     166A     -0.410350   167A     -0.410250   168A     -0.410089  
     169A     -0.397377   170A     -0.397157   171A     -0.387099  
     172A     -0.386705   173A     -0.386302   174A     -0.379074  
     175A     -0.378936   176A     -0.369697   177A     -0.369652  
     178A     -0.332602   179A     -0.332593   180A     -0.330713  
     181A     -0.306523   182A     -0.306488   183A     -0.278500  
     184A     -0.263231   185A     -0.261924   186A     -0.261729  
     187A     -0.241351   188A     -0.229909   189A     -0.211824  
     190A     -0.211722   191A     -0.154236   192A     -0.154208  

    Virtual:                                                              

     193A      0.084187   194A      0.084331   195A      0.103914  
     196A      0.104026   197A      0.105791   198A      0.106387  
     199A      0.106417   200A      0.113172   201A      0.117342  
     202A      0.128333   203A      0.128345   204A      0.136212  
     205A      0.136257   206A      0.143080   207A      0.143099  
     208A      0.143110   209A      0.149796   210A      0.149850  
     211A      0.150447   212A      0.150574   213A      0.150816  
     214A      0.155441   215A      0.156656   216A      0.157301  
     217A      0.157763   218A      0.162841   219A      0.165216  
     220A      0.171527   221A      0.171601   222A      0.173628  
     223A      0.175832   224A      0.182242   225A      0.182507  
     226A      0.182760   227A      0.186506   228A      0.186668  
     229A      0.186944   230A      0.187399   231A      0.188435  
     232A      0.190370   233A      0.190808   234A      0.194497  
     235A      0.195234   236A      0.195270   237A      0.202158  
     238A      0.210059   239A      0.210093   240A      0.210411  
     241A      0.211430   242A      0.214868   243A      0.215068  
     244A      0.215433   245A      0.219187   246A      0.219211  
     247A      0.230899   248A      0.233444   249A      0.233662  
     250A      0.239984   251A      0.244046   252A      0.245720  
     253A      0.245777   254A      0.247347   255A      0.247767  
     256A      0.249542   257A      0.250659   258A      0.251748  
     259A      0.255759   260A      0.256696   261A      0.258605  
     262A      0.262446   263A      0.262578   264A      0.263636  
     265A      0.263673   266A      0.265479   267A      0.269964  
     268A      0.270056   269A      0.271774   270A      0.272465  
     271A      0.272892   272A      0.274271   273A      0.274395  
     274A      0.276131   275A      0.278801   276A      0.285839  
     277A      0.286621   278A      0.286945   279A      0.288591  
     280A      0.289710   281A      0.289777   282A      0.292108  
     283A      0.292160   284A      0.294975   285A      0.297100  
     286A      0.297628   287A      0.299157   288A      0.299423  
     289A      0.304809   290A      0.304810   291A      0.306036  
     292A      0.307778   293A      0.316807   294A      0.317166  
     295A      0.317975   296A      0.319104   297A      0.320104  
     298A      0.320708   299A      0.322334   300A      0.325345  
     301A      0.326845   302A      0.328006   303A      0.335303  
     304A      0.335399   305A      0.336907   306A      0.337080  
     307A      0.341810   308A      0.346491   309A      0.347723  
     310A      0.348631   311A      0.350851   312A      0.352349  
     313A      0.356036   314A      0.356845   315A      0.356953  
     316A      0.359174   317A      0.361861   318A      0.363212  
     319A      0.365841   320A      0.366031   321A      0.367361  
     322A      0.372579   323A      0.372657   324A      0.373151  
     325A      0.374261   326A      0.374463   327A      0.375628  
     328A      0.379463   329A      0.380567   330A      0.380780  
     331A      0.382458   332A      0.384800   333A      0.385087  
     334A      0.385223   335A      0.385413   336A      0.390606  
     337A      0.391560   338A      0.395311   339A      0.398138  
     340A      0.399051   341A      0.401213   342A      0.403663  
     343A      0.404708   344A      0.407342   345A      0.408240  
     346A      0.408521   347A      0.409826   348A      0.414278  
     349A      0.416271   350A      0.416764   351A      0.417041  
     352A      0.417880   353A      0.420469   354A      0.424664  
     355A      0.430192   356A      0.432013   357A      0.433398  
     358A      0.435868   359A      0.437215   360A      0.440189  
     361A      0.442992   362A      0.445553   363A      0.447553  
     364A      0.447907   365A      0.448414   366A      0.452304  
     367A      0.453046   368A      0.455657   369A      0.455852  
     370A      0.456969   371A      0.457325   372A      0.458476  
     373A      0.458637   374A      0.458721   375A      0.462241  
     376A      0.464558   377A      0.464793   378A      0.465219  
     379A      0.465634   380A      0.469904   381A      0.471768  
     382A      0.471887   383A      0.473678   384A      0.477854  
     385A      0.479017   386A      0.482987   387A      0.483407  
     388A      0.484000   389A      0.484279   390A      0.484598  
     391A      0.485489   392A      0.486267   393A      0.488195  
     394A      0.491860   395A      0.492793   396A      0.493264  
     397A      0.495089   398A      0.495440   399A      0.498302  
     400A      0.504519   401A      0.505835   402A      0.506160  
     403A      0.506193   404A      0.506505   405A      0.508341  
     406A      0.510149   407A      0.512567   408A      0.514504  
     409A      0.515282   410A      0.517727   411A      0.519090  
     412A      0.519611   413A      0.519679   414A      0.519995  
     415A      0.524059   416A      0.531354   417A      0.532058  
     418A      0.532204   419A      0.537197   420A      0.537818  
     421A      0.539145   422A      0.541699   423A      0.542029  
     424A      0.543184   425A      0.544456   426A      0.548644  
     427A      0.548960   428A      0.554921   429A      0.555656  
     430A      0.558014   431A      0.558920   432A      0.558962  
     433A      0.561398   434A      0.564119   435A      0.564967  
     436A      0.565129   437A      0.567008   438A      0.567204  
     439A      0.573701   440A      0.574030   441A      0.574455  
     442A      0.574944   443A      0.580335   444A      0.581874  
     445A      0.581896   446A      0.588823   447A      0.591890  
     448A      0.593625   449A      0.594156   450A      0.598273  
     451A      0.601629   452A      0.604190   453A      0.606607  
     454A      0.607112   455A      0.609036   456A      0.610554  
     457A      0.610991   458A      0.614657   459A      0.616642  
     460A      0.619526   461A      0.620235   462A      0.620509  
     463A      0.622063   464A      0.623312   465A      0.629238  
     466A      0.631342   467A      0.636103   468A      0.636219  
     469A      0.636516   470A      0.636829   471A      0.636895  
     472A      0.642973   473A      0.654657   474A      0.658018  
     475A      0.659356   476A      0.665250   477A      0.668301  
     478A      0.669960   479A      0.670298   480A      0.672393  
     481A      0.685645   482A      0.689641   483A      0.689938  
     484A      0.696012   485A      0.697164   486A      0.697883  
     487A      0.700503   488A      0.701360   489A      0.712927  
     490A      0.716984   491A      0.719291   492A      0.724416  
     493A      0.724641   494A      0.730812   495A      0.739320  
     496A      0.740249   497A      0.744154   498A      0.745916  
     499A      0.747429   500A      0.747681   501A      0.757247  
     502A      0.777128   503A      0.786314   504A      0.786514  
     505A      0.792894   506A      0.806623   507A      0.809587  
     508A      0.810713   509A      0.814844   510A      0.814971  
     511A      0.815176   512A      0.819154   513A      0.826228  
     514A      0.828143   515A      0.832918   516A      0.842718  
     517A      0.845257   518A      0.860719   519A      0.869397  
     520A      0.869644   521A      0.875275   522A      0.879178  
     523A      0.882973   524A      0.886668   525A      0.887950  
     526A      0.892384   527A      0.892912   528A      0.895677  
     529A      0.895971   530A      0.897301   531A      0.897379  
     532A      0.907488   533A      0.923753   534A      0.925085  
     535A      0.928951   536A      0.930869   537A      0.933415  
     538A      0.934177   539A      0.935540   540A      0.938658  
     541A      0.944336   542A      0.944359   543A      0.946599  
     544A      0.947156   545A      0.954247   546A      0.956810  
     547A      0.957725   548A      0.959601   549A      0.966529  
     550A      0.966777   551A      0.968083   552A      0.973122  
     553A      0.974499   554A      0.976488   555A      0.979012  
     556A      0.980573   557A      0.981442   558A      0.981719  
     559A      0.986104   560A      0.988010   561A      0.988515  
     562A      0.994122   563A      0.994210   564A      0.999213  
     565A      1.003257   566A      1.004851   567A      1.004903  
     568A      1.006591   569A      1.007339   570A      1.010492  
     571A      1.016487   572A      1.017634   573A      1.018793  
     574A      1.019687   575A      1.031954   576A      1.036113  
     577A      1.036817   578A      1.037205   579A      1.041339  
     580A      1.041645   581A      1.042741   582A      1.047344  
     583A      1.047457   584A      1.049967   585A      1.052701  
     586A      1.055751   587A      1.058313   588A      1.061744  
     589A      1.068963   590A      1.069155   591A      1.074468  
     592A      1.078814   593A      1.081477   594A      1.082935  
     595A      1.083387   596A      1.085875   597A      1.085963  
     598A      1.091645   599A      1.102195   600A      1.102266  
     601A      1.103799   602A      1.105771   603A      1.106564  
     604A      1.109336   605A      1.111932   606A      1.112944  
     607A      1.115442   608A      1.115651   609A      1.115916  
     610A      1.117389   611A      1.119480   612A      1.120012  
     613A      1.123692   614A      1.125217   615A      1.125570  
     616A      1.129151   617A      1.137277   618A      1.139325  
     619A      1.139481   620A      1.142269   621A      1.148489  
     622A      1.149679   623A      1.153597   624A      1.153879  
     625A      1.156339   626A      1.157673   627A      1.159452  
     628A      1.159715   629A      1.163778   630A      1.168656  
     631A      1.170672   632A      1.171894   633A      1.174361  
     634A      1.176457   635A      1.177867   636A      1.179582  
     637A      1.179624   638A      1.181654   639A      1.185661  
     640A      1.187945   641A      1.190533   642A      1.196887  
     643A      1.199913   644A      1.200602   645A      1.202554  
     646A      1.211221   647A      1.211783   648A      1.212620  
     649A      1.213497   650A      1.216020   651A      1.217185  
     652A      1.217235   653A      1.221578   654A      1.224219  
     655A      1.225113   656A      1.225191   657A      1.233442  
     658A      1.246701   659A      1.254199   660A      1.254382  
     661A      1.258170   662A      1.259781   663A      1.261147  
     664A      1.263062   665A      1.267834   666A      1.270168  
     667A      1.271793   668A      1.272436   669A      1.282904  
     670A      1.288160   671A      1.291510   672A      1.292926  
     673A      1.292944   674A      1.293287   675A      1.305963  
     676A      1.306705   677A      1.307744   678A      1.327649  
     679A      1.327768   680A      1.330981   681A      1.332268  
     682A      1.333482   683A      1.333570   684A      1.334584  
     685A      1.338134   686A      1.344712   687A      1.345843  
     688A      1.348394   689A      1.354356   690A      1.363690  
     691A      1.365844   692A      1.366659   693A      1.366995  
     694A      1.367847   695A      1.375017   696A      1.376519  
     697A      1.378134   698A      1.379333   699A      1.380241  
     700A      1.388303   701A      1.388573   702A      1.389942  
     703A      1.393923   704A      1.395186   705A      1.400919  
     706A      1.401227   707A      1.405742   708A      1.410424  
     709A      1.414463   710A      1.417652   711A      1.420457  
     712A      1.423804   713A      1.427079   714A      1.427275  
     715A      1.429680   716A      1.430088   717A      1.434349  
     718A      1.436982   719A      1.442640   720A      1.447583  
     721A      1.451666   722A      1.462194   723A      1.466445  
     724A      1.474060   725A      1.474176   726A      1.480883  
     727A      1.481363   728A      1.482033   729A      1.482804  
     730A      1.489952   731A      1.492343   732A      1.499517  
     733A      1.499584   734A      1.502080   735A      1.505740  
     736A      1.505869   737A      1.509524   738A      1.510022  
     739A      1.510128   740A      1.510921   741A      1.518735  
     742A      1.518885   743A      1.520288   744A      1.520748  
     745A      1.534180   746A      1.539346   747A      1.547828  
     748A      1.549949   749A      1.560600   750A      1.586650  
     751A      1.587649   752A      1.593341   753A      1.593352  
     754A      1.600428   755A      1.624048   756A      1.649307  
     757A      1.649454   758A      1.658014   759A      1.659397  
     760A      1.672851   761A      1.673936   762A      1.678255  
     763A      1.683073   764A      1.683886   765A      1.685788  
     766A      1.688591   767A      1.690072   768A      1.695266  
     769A      1.696544   770A      1.698072   771A      1.708112  
     772A      1.709526   773A      1.712181   774A      1.713819  
     775A      1.715758   776A      1.716980   777A      1.717146  
     778A      1.719354   779A      1.728483   780A      1.731798  
     781A      1.732154   782A      1.738159   783A      1.746278  
     784A      1.746705   785A      1.749093   786A      1.750425  
     787A      1.750541   788A      1.754145   789A      1.758623  
     790A      1.758832   791A      1.766170   792A      1.768653  
     793A      1.768873   794A      1.769030   795A      1.774370  
     796A      1.778275   797A      1.778459   798A      1.785516  
     799A      1.786245   800A      1.812701   801A      1.823607  
     802A      1.828238   803A      1.828774   804A      1.829396  
     805A      1.832227   806A      1.847233   807A      1.847252  
     808A      1.862139   809A      1.862164   810A      1.885656  
     811A      1.885852   812A      1.886366   813A      1.895657  
     814A      1.897173   815A      1.897194   816A      1.901641  
     817A      1.901919   818A      1.910440   819A      1.914256  
     820A      1.917289   821A      1.929628   822A      1.929682  
     823A      1.933803   824A      1.934729   825A      1.934746  
     826A      1.940529   827A      1.943462   828A      1.951899  
     829A      1.952064   830A      1.963392   831A      1.967613  
     832A      1.967783   833A      1.967824   834A      1.971174  
     835A      1.971624   836A      1.980370   837A      1.980517  
     838A      1.984792   839A      1.988660   840A      1.988868  
     841A      1.989679   842A      1.990300   843A      1.993169  
     844A      1.993260   845A      2.007385   846A      2.011111  
     847A      2.011487   848A      2.013173   849A      2.013408  
     850A      2.014122   851A      2.014269   852A      2.026140  
     853A      2.026864   854A      2.027170   855A      2.028760  
     856A      2.029275   857A      2.033731   858A      2.046990  
     859A      2.054546   860A      2.056314   861A      2.056338  
     862A      2.062963   863A      2.066006   864A      2.067567  
     865A      2.067678   866A      2.067861   867A      2.074178  
     868A      2.076337   869A      2.077346   870A      2.081970  
     871A      2.085979   872A      2.086720   873A      2.088618  
     874A      2.100307   875A      2.100387   876A      2.101444  
     877A      2.101897   878A      2.102087   879A      2.103756  
     880A      2.104374   881A      2.120527   882A      2.122842  
     883A      2.124834   884A      2.131909   885A      2.132876  
     886A      2.134810   887A      2.138327   888A      2.141155  
     889A      2.144603   890A      2.145848   891A      2.146151  
     892A      2.151985   893A      2.153220   894A      2.153544  
     895A      2.160169   896A      2.160642   897A      2.162975  
     898A      2.163708   899A      2.165662   900A      2.166226  
     901A      2.168214   902A      2.169498   903A      2.171800  
     904A      2.171994   905A      2.179030   906A      2.179441  
     907A      2.179904   908A      2.183861   909A      2.185246  
     910A      2.187845   911A      2.190050   912A      2.190988  
     913A      2.192418   914A      2.193176   915A      2.194589  
     916A      2.199109   917A      2.199813   918A      2.204793  
     919A      2.204817   920A      2.205901   921A      2.206421  
     922A      2.212912   923A      2.212931   924A      2.226547  
     925A      2.232967   926A      2.233479   927A      2.234447  
     928A      2.234562   929A      2.242860   930A      2.249346  
     931A      2.250853   932A      2.258792   933A      2.259528  
     934A      2.261356   935A      2.264251   936A      2.266126  
     937A      2.270085   938A      2.272481   939A      2.285437  
     940A      2.290253   941A      2.293443   942A      2.293812  
     943A      2.297055   944A      2.301883   945A      2.304818  
     946A      2.305886   947A      2.310501   948A      2.311176  
     949A      2.312442   950A      2.313331   951A      2.314821  
     952A      2.316023   953A      2.328409   954A      2.329038  
     955A      2.340163   956A      2.340344   957A      2.341062  
     958A      2.343293   959A      2.348206   960A      2.369701  
     961A      2.376092   962A      2.384152   963A      2.384853  
     964A      2.394473   965A      2.398162   966A      2.404655  
     967A      2.405020   968A      2.405328   969A      2.408438  
     970A      2.422679   971A      2.423938   972A      2.424098  
     973A      2.424865   974A      2.438583   975A      2.439209  
     976A      2.448965   977A      2.452349   978A      2.485035  
     979A      2.494716   980A      2.495014   981A      2.495187  
     982A      2.505638   983A      2.512950   984A      2.513538  
     985A      2.541405   986A      2.543515   987A      2.544383  
     988A      2.555631   989A      2.556223   990A      2.572958  
     991A      2.589088   992A      2.600444   993A      2.601843  
     994A      2.614357   995A      2.615621   996A      2.616564  
     997A      2.622237   998A      2.622292   999A      2.627900  
    1000A      2.630270  1001A      2.630411  1002A      2.642816  
    1003A      2.643230  1004A      2.643795  1005A      2.643853  
    1006A      2.655485  1007A      2.655589  1008A      2.658908  
    1009A      2.658996  1010A      2.660688  1011A      2.677313  
    1012A      2.693026  1013A      2.693416  1014A      2.698797  
    1015A      2.703083  1016A      2.703815  1017A      2.710199  
    1018A      2.710299  1019A      2.719754  1020A      2.720080  
    1021A      2.726025  1022A      2.753717  1023A      2.754430  
    1024A      2.755066  1025A      2.756327  1026A      2.775849  
    1027A      2.776102  1028A      2.784746  1029A      2.785030  
    1030A      2.790110  1031A      2.790274  1032A      2.794379  
    1033A      2.794640  1034A      2.811649  1035A      2.822101  
    1036A      2.822953  1037A      2.849954  1038A      2.867092  
    1039A      2.867378  1040A      2.887868  1041A      2.899333  
    1042A      2.899598  1043A      2.923817  1044A      2.925141  
    1045A      2.929876  1046A      2.931487  1047A      2.932044  
    1048A      2.932149  1049A      2.939163  1050A      2.986425  
    1051A      2.987037  1052A      2.991692  1053A      2.993577  
    1054A      3.001705  1055A      3.002979  1056A      3.020226  
    1057A      3.021417  1058A      3.033931  1059A      3.051854  
    1060A      3.056243  1061A      3.079568  1062A      3.081685  
    1063A      3.081932  1064A      3.099318  1065A      3.136935  
    1066A      3.137135  1067A      3.142079  1068A      3.142648  
    1069A      3.180172  1070A      3.181649  1071A      3.197544  
    1072A      3.199670  1073A      3.200372  1074A      3.206975  
    1075A      3.216705  1076A      3.216868  1077A      3.217255  
    1078A      3.218482  1079A      3.218487  1080A      3.228204  
    1081A      3.229338  1082A      3.235681  1083A      3.236230  
    1084A      3.260193  1085A      3.279270  1086A      3.290599  
    1087A      3.303794  1088A      3.310197  1089A      3.347576  
    1090A      3.347733  1091A      3.348042  1092A      3.353472  
    1093A      3.355708  1094A      3.489545  1095A      3.490154  
    1096A      3.522687  1097A      3.555588  1098A      3.558871  
    1099A      3.624818  1100A      3.652735  1101A      3.654502  
    1102A      3.667822  1103A      3.698150  1104A      3.700574  
    1105A      3.734161  1106A      3.742116  1107A      3.840994  
    1108A      3.857246  1109A      3.857919  1110A      3.940600  
    1111A      3.940689  1112A      3.983760  1113A      3.984245  
    1114A      4.049480  1115A      4.083645  1116A      4.114035  
    1117A      4.128765  1118A      4.162580  1119A      4.172395  
    1120A      4.172822  1121A      4.173709  1122A      4.200523  
    1123A      4.200850  1124A      4.201592  1125A      4.204062  
    1126A      4.204171  1127A      4.235814  1128A      4.241434  
    1129A      4.250881  1130A      4.447548  1131A      4.448009  
    1132A      4.448488  1133A      4.650032  1134A      4.656167  
    1135A      4.657468  1136A      4.750001  1137A      4.785095  
    1138A      4.787224  

    Final Occupation by Irrep:
              A 
    DOCC [   192 ]
    NA   [   192 ]
    NB   [   192 ]

  @DF-RHF Final Energy: -2478.66026128828753

   => Energetics <=

    Nuclear Repulsion Energy =           7731.3007064983858072
    One-Electron Energy =              -18818.1794373330449162
    Two-Electron Energy =                8608.2184695463711250
    Total Energy =                      -2478.6602612882870744

Computation Completed


Properties will be evaluated at   0.000000,   0.000000,   0.000000 [a0]

Properties computed using the SCF density matrix


 Multipole Moments:

 ------------------------------------------------------------------------------------
     Multipole            Electronic (a.u.)      Nuclear  (a.u.)        Total (a.u.)
 ------------------------------------------------------------------------------------

 L = 1.  Multiply by 2.5417464519 to convert [e a0] to [Debye]
 Dipole X            :         -0.0002212           -0.0000160           -0.0002372
 Dipole Y            :          0.0012825           -0.0001716            0.0011109
 Dipole Z            :         23.3781290          -30.6514931           -7.2733641
 Magnitude           :                                                    7.2733641

 ------------------------------------------------------------------------------------

*** tstop() called on d-16-12-3 at Mon Jan 22 12:04:21 2024
Module time:
	user time   =    3485.41 seconds =      58.09 minutes
	system time =      75.04 seconds =       1.25 minutes
	total time  =        390 seconds =       6.50 minutes
Total time:
	user time   =    3485.41 seconds =      58.09 minutes
	system time =      75.04 seconds =       1.25 minutes
	total time  =        390 seconds =       6.50 minutes

  //>>>>>>>>>>>>>>>>>>>>>>>>>>>>>>>>>>>//
  //            Monomer A HF           //
  //<<<<<<<<<<<<<<<<<<<<<<<<<<<<<<<<<<<//

   => Libint2 <=

    Primary   basis highest AM E, G, H:  7, 7, 4
    Auxiliary basis highest AM E, G, H:  7, 7, 5
    Onebody   basis highest AM E, G, H:  7, 7, 5
    Solid Harmonics ordering:            gaussian

*** tstart() called on d-16-12-3
*** at Mon Jan 22 12:04:21 2024

   => Loading Basis Set <=

    Name: JUN-CC-PVDZ
    Role: ORBITAL
    Keyword: BASIS
    atoms 1     entry B          line   130 file /home/gridsan/tfroembgen/.conda/envs/psi4test/share/psi4/basis/jun-cc-pvdz.gbs 
    atoms 2-5   entry F          line   266 file /home/gridsan/tfroembgen/.conda/envs/psi4test/share/psi4/basis/jun-cc-pvdz.gbs 
    atoms 6-59  entry C          line   164 file /home/gridsan/tfroembgen/.conda/envs/psi4test/share/psi4/basis/jun-cc-pvdz.gbs 
    atoms 60-77 entry H          line    36 file /home/gridsan/tfroembgen/.conda/envs/psi4test/share/psi4/basis/jun-cc-pvdz.gbs 


         ---------------------------------------------------------
                                   SCF
               by Justin Turney, Rob Parrish, Andy Simmonett
                          and Daniel G. A. Smith
                              RHF Reference
                       12 Threads,  30517 MiB Core
         ---------------------------------------------------------

  ==> Geometry <==

    Molecular point group: c1
    Full point group: C1

    Geometry (in Angstrom), charge = -1, multiplicity = 1:

       Center              X                  Y                   Z               Mass       
    ------------   -----------------  -----------------  -----------------  -----------------
         B           -0.000046449334     0.000336519434     4.422397926791    11.009305360000
         F           -1.153597449334     0.000047519434     5.238044926791    18.998403162730
         F            1.153660550666    -0.000581480566     5.238044926791    18.998403162730
         F           -0.000019449334    -1.153637480566     3.606763926791    18.998403162730
         F           -0.000019449334     1.153977519434     3.606763926791    18.998403162730
      Gh(C)           1.225311925931     0.707538180353    -0.571458445926    12.000000000000
      Gh(C)           1.225323886559    -0.707539003137    -0.583789255496    12.000000000000
      Gh(C)          -0.000006123424     1.414965805524    -0.584322879017    12.000000000000
      Gh(C)           2.456448784457     1.418327778612    -0.568571588526    12.000000000000
      Gh(C)           0.000010857787    -1.414976607201    -0.574123321692    12.000000000000
      Gh(C)          -1.225300918401     0.707545265418    -0.569206925603    12.000000000000
      Gh(C)           2.456437785828    -1.418323412447    -0.586034412353    12.000000000000
      Gh(C)          -0.000001302470     2.836800922715    -0.586726429151    12.000000000000
      Gh(C)           3.681826727978     0.709317847435    -0.585685622555    12.000000000000
      Gh(C)           2.455120079373     2.834223552923    -0.585788179516    12.000000000000
      Gh(C)           3.681821135726    -0.709333947995    -0.569613138537    12.000000000000
      Gh(C)          -1.225313568180    -0.707527624110    -0.582716494069    12.000000000000
      Gh(C)           1.226699611710     3.543469375428    -0.569429106606    12.000000000000
      Gh(C)           0.000004815365    -2.836782247802    -0.569275154071    12.000000000000
      Gh(C)          -2.456436002341     1.418316809719    -0.569171529757    12.000000000000
      Gh(C)           2.455123448287    -2.834230137155    -0.569765046904    12.000000000000
      Gh(C)          -1.226714334082     3.543468955184    -0.569325773387    12.000000000000
      Gh(C)           4.914517325709     1.427172763923    -0.579204939525    12.000000000000
      Gh(C)           3.693150221984     3.542795183979    -0.579155139889    12.000000000000
      Gh(C)          -2.456437569560    -1.418313389406    -0.586059450478    12.000000000000
      Gh(C)           1.226704872451    -3.543474350473    -0.585399237356    12.000000000000
      Gh(C)          -2.455125368000     2.834216554068    -0.585781803169    12.000000000000
      Gh(C)           4.914524411290    -1.427187018510    -0.576232196791    12.000000000000
      Gh(C)           1.221424644206     4.970133956694    -0.576093762531    12.000000000000
      Gh(C)           4.893008259828     2.825187891460    -0.577988271167    12.000000000000
      Gh(C)          -1.226696977981    -3.543471105643    -0.585132032946    12.000000000000
      Gh(C)          -3.681818946018     0.709324858166    -0.585672942075    12.000000000000
      Gh(C)           3.693147131658    -3.542801449957    -0.576114306230    12.000000000000
      Gh(C)          -1.221432221486     4.970128189296    -0.575910267159    12.000000000000
      Gh(C)           6.134771003434     0.680547838539    -0.578435164976    12.000000000000
      Gh(C)           3.656788911118     4.972953135001    -0.578246502107    12.000000000000
      Gh(C)          -2.455126877226    -2.834215201627    -0.570009404702    12.000000000000
      Gh(C)          -3.681819148553    -0.709325812035    -0.569495516958    12.000000000000
      Gh(C)           4.893012648421    -2.825200214198    -0.577377119271    12.000000000000
      Gh(C)          -0.000001042605     5.650447257466    -0.577141575865    12.000000000000
      Gh(C)           6.134775142840    -0.680554962641    -0.577169844460    12.000000000000
      Gh(C)           2.478131513363     5.653576642765    -0.576957722457    12.000000000000
      Gh(C)           1.221422435245    -4.970127163499    -0.578893259554    12.000000000000
      Gh(C)          -3.693162353457     3.542796845626    -0.578989632430    12.000000000000
      Gh(C)          -1.221428490437    -4.970118412162    -0.579006021387    12.000000000000
      Gh(C)          -4.914521777434     1.427175338429    -0.579127994518    12.000000000000
      Gh(C)           3.656787050187    -4.972955334806    -0.576796001573    12.000000000000
      Gh(C)          -2.478138499598     5.653574313962    -0.576673197448    12.000000000000
      Gh(C)          -3.693141708056    -3.542790327545    -0.576230432386    12.000000000000
      Gh(C)          -4.914512452545    -1.427181108594    -0.576197499617    12.000000000000
      Gh(C)          -0.000005978418    -5.650438395580    -0.577537079987    12.000000000000
      Gh(C)          -4.893020453593     2.825188490353    -0.577998353027    12.000000000000
      Gh(C)           2.478126023806    -5.653573652455    -0.577886602365    12.000000000000
      Gh(C)          -3.656798679750     4.972956073475    -0.578069821732    12.000000000000
      Gh(C)          -4.892999448349    -2.825191875626    -0.577531154969    12.000000000000
      Gh(C)          -2.478128467575    -5.653566278573    -0.578161790012    12.000000000000
      Gh(C)          -6.134770472823     0.680548657690    -0.578460716678    12.000000000000
      Gh(C)          -3.656788802681    -4.972944131537    -0.577010289389    12.000000000000
      Gh(C)          -6.134765012405    -0.680554024048    -0.577190320255    12.000000000000
      Gh(H)           5.835288526324     3.369275786388    -0.573628945504     1.007825032230
      Gh(H)           7.073859203255     1.228217140333    -0.577973521582     1.007825032230
      Gh(H)           4.600663294682     5.512380693887    -0.577741301355     1.007825032230
      Gh(H)           5.835283417813    -3.369306165295    -0.581831586586     1.007825032230
      Gh(H)          -0.000012120798     6.738530565570    -0.581490820873     1.007825032230
      Gh(H)           7.073861202338    -1.228227051310    -0.577678582554     1.007825032230
      Gh(H)           2.473313762307     6.740684182828    -0.577424443387     1.007825032230
      Gh(H)           4.600668521889    -5.512376237742    -0.577205998741     1.007825032230
      Gh(H)          -2.473318650030     6.740681611040    -0.577123096762     1.007825032230
      Gh(H)          -0.000010237720    -6.738528285018    -0.573007395002     1.007825032230
      Gh(H)          -5.835301883836     3.369270841730    -0.573492923356     1.007825032230
      Gh(H)           2.473307954339    -6.740685482995    -0.577316271940     1.007825032230
      Gh(H)          -4.600674810700     5.512377918037    -0.577575973031     1.007825032230
      Gh(H)          -5.835279476327    -3.369289072346    -0.582110892467     1.007825032230
      Gh(H)          -2.473300316932    -6.740679186706    -0.577765588484     1.007825032230
      Gh(H)          -7.073857736260     1.228220364274    -0.578057513063     1.007825032230
      Gh(H)          -4.600673755577    -5.512362778353    -0.577378306764     1.007825032230
      Gh(H)          -7.073856903901    -1.228220740543    -0.577773439021     1.007825032230

  Running in c1 symmetry.

  Rotational constants: A =      0.00175  B =      0.00175  C =      0.00110 [cm^-1]
  Rotational constants: A =     52.50243  B =     52.49585  C =     33.02250 [MHz]
  Nuclear repulsion =  178.879482610381302

  Charge       = -1
  Multiplicity = 1
  Electrons    = 42
  Nalpha       = 21
  Nbeta        = 21

  ==> Algorithm <==

  SCF Algorithm Type is DF.
  DIIS enabled.
  MOM disabled.
  Fractional occupation disabled.
  Guess Type is SAD.
  Energy threshold   = 1.00e-08
  Density threshold  = 1.00e-08
  Integral threshold = 1.00e-12

  ==> Primary Basis <==

  Basis Set: JUN-CC-PVDZ
    Blend: JUN-CC-PVDZ
    Number of shells: 526
    Number of basis functions: 1152
    Number of Cartesian functions: 1211
    Spherical Harmonics?: true
    Max angular momentum: 2

   => Loading Basis Set <=

    Name: (JUN-CC-PVDZ AUX)
    Role: JKFIT
    Keyword: DF_BASIS_SCF
    atoms 1     entry B          line    90 file /home/gridsan/tfroembgen/.conda/envs/psi4test/share/psi4/basis/jun-cc-pvdz-jkfit.gbs 
    atoms 2-5   entry F          line   314 file /home/gridsan/tfroembgen/.conda/envs/psi4test/share/psi4/basis/jun-cc-pvdz-jkfit.gbs 
    atoms 6-59  entry C          line   146 file /home/gridsan/tfroembgen/.conda/envs/psi4test/share/psi4/basis/jun-cc-pvdz-jkfit.gbs 
    atoms 60-77 entry H          line    70 file /home/gridsan/tfroembgen/.conda/envs/psi4test/share/psi4/basis/jun-cc-pvdz-jkfit.gbs 

  ==> Integral Setup <==

  ==> DiskDFJK: Density-Fitted J/K Matrices <==

    J tasked:                  Yes
    K tasked:                  Yes
    wK tasked:                  No
    OpenMP threads:             12
    Integrals threads:          12
    Memory [MiB]:            22888
    Algorithm:                Core
    Integral Cache:           LOAD
    Schwarz Cutoff:          1E-12
    Fitting Condition:       1E-10

   => Auxiliary Basis Set <=

  Basis Set: (JUN-CC-PVDZ AUX)
    Blend: JUN-CC-PVDZ-JKFIT
    Number of shells: 1755
    Number of basis functions: 5075
    Number of Cartesian functions: 5819
    Spherical Harmonics?: true
    Max angular momentum: 3

  Minimum eigenvalue in the overlap matrix is 8.1669677301E-10.
  Reciprocal condition number of the overlap matrix is 3.5998138024E-11.
    Using canonical orthogonalization.
  Overall, 14 of 1152 possible MOs eliminated.


  ==> Pre-Iterations <==

  SCF Guess: Superposition of Atomic Densities via on-the-fly atomic UHF (no occupation information).

   -------------------------
    Irrep   Nso     Nmo    
   -------------------------
     A       1152    1138 
   -------------------------
    Total    1152    1138
   -------------------------

  ==> Iterations <==

                           Total Energy        Delta E     RMS |[F,P]|

   @DF-RHF iter SAD:  -421.23044656652405   -4.21230e+02   0.00000e+00 
   @DF-RHF iter   1:  -422.65023769942377   -1.41979e+00   5.30173e-04 DIIS/ADIIS
   @DF-RHF iter   2:  -422.73309910200601   -8.28614e-02   3.23319e-04 DIIS/ADIIS
   @DF-RHF iter   3:  -422.77166410636829   -3.85650e-02   1.74251e-05 DIIS
   @DF-RHF iter   4:  -422.77202530189777   -3.61196e-04   2.76176e-06 DIIS
   @DF-RHF iter   5:  -422.77203397885916   -8.67696e-06   7.08515e-07 DIIS
   @DF-RHF iter   6:  -422.77203454745882   -5.68600e-07   1.45849e-07 DIIS
   @DF-RHF iter   7:  -422.77203456887673   -2.14179e-08   1.61268e-08 DIIS
   @DF-RHF iter   8:  -422.77203456910780   -2.31068e-10   6.67266e-09 DIIS
  Energy and wave function converged.


  ==> Post-Iterations <==

    Orbital Energies [Eh]
    ---------------------

    Doubly Occupied:                                                      

       1A    -26.067052     2A    -26.067040     3A    -26.067014  
       4A    -26.066861     5A     -7.539081     6A     -1.410858  
       7A     -1.351192     8A     -1.351153     9A     -1.350963  
      10A     -0.602135    11A     -0.528333    12A     -0.528320  
      13A     -0.528249    14A     -0.447199    15A     -0.447157  
      16A     -0.408415    17A     -0.408362    18A     -0.408314  
      19A     -0.384940    20A     -0.384837    21A     -0.384796  

    Virtual:                                                              

      22A      0.086509    23A      0.087248    24A      0.087428  
      25A      0.094541    26A      0.094555    27A      0.106178  
      28A      0.106818    29A      0.112605    30A      0.122578  
      31A      0.122593    32A      0.127176    33A      0.127211  
      34A      0.139545    35A      0.140604    36A      0.140619  
      37A      0.142516    38A      0.143510    39A      0.143733  
      40A      0.143779    41A      0.152896    42A      0.155477  
      43A      0.155496    44A      0.162012    45A      0.162119  
      46A      0.164443    47A      0.170807    48A      0.174456  
      49A      0.175758    50A      0.176427    51A      0.176515  
      52A      0.182156    53A      0.183264    54A      0.183698  
      55A      0.184237    56A      0.184905    57A      0.184918  
      58A      0.191094    59A      0.191290    60A      0.196112  
      61A      0.196694    62A      0.197149    63A      0.197187  
      64A      0.200172    65A      0.200192    66A      0.202136  
      67A      0.207694    68A      0.207796    69A      0.210253  
      70A      0.210279    71A      0.215492    72A      0.216397  
      73A      0.220015    74A      0.220075    75A      0.220832  
      76A      0.221271    77A      0.223527    78A      0.226474  
      79A      0.226632    80A      0.230012    81A      0.230152  
      82A      0.230895    83A      0.231158    84A      0.238312  
      85A      0.241590    86A      0.241616    87A      0.243106  
      88A      0.243454    89A      0.247954    90A      0.250422  
      91A      0.255277    92A      0.257051    93A      0.259730  
      94A      0.259943    95A      0.261057    96A      0.261290  
      97A      0.263004    98A      0.264061    99A      0.266070  
     100A      0.266079   101A      0.271673   102A      0.271914  
     103A      0.275275   104A      0.276122   105A      0.280125  
     106A      0.280220   107A      0.285078   108A      0.285080  
     109A      0.286067   110A      0.287562   111A      0.289182  
     112A      0.291127   113A      0.292467   114A      0.295511  
     115A      0.296568   116A      0.298642   117A      0.298712  
     118A      0.301254   119A      0.302344   120A      0.303145  
     121A      0.306802   122A      0.312092   123A      0.313829  
     124A      0.319909   125A      0.320579   126A      0.322036  
     127A      0.322975   128A      0.324313   129A      0.324511  
     130A      0.326015   131A      0.326262   132A      0.326962  
     133A      0.334074   134A      0.334118   135A      0.341084  
     136A      0.341395   137A      0.344810   138A      0.345317  
     139A      0.347788   140A      0.348246   141A      0.348314  
     142A      0.349109   143A      0.351329   144A      0.351342  
     145A      0.352708   146A      0.352771   147A      0.359886  
     148A      0.362839   149A      0.369480   150A      0.372655  
     151A      0.374965   152A      0.375198   153A      0.378242  
     154A      0.378267   155A      0.382551   156A      0.387920  
     157A      0.388036   158A      0.390502   159A      0.394235  
     160A      0.394535   161A      0.396100   162A      0.398396  
     163A      0.399574   164A      0.401002   165A      0.402080  
     166A      0.402869   167A      0.406110   168A      0.407270  
     169A      0.409665   170A      0.410062   171A      0.417252  
     172A      0.417721   173A      0.422297   174A      0.426544  
     175A      0.426819   176A      0.428979   177A      0.429861  
     178A      0.432621   179A      0.434364   180A      0.435730  
     181A      0.435849   182A      0.435890   183A      0.436895  
     184A      0.438692   185A      0.440369   186A      0.441509  
     187A      0.445862   188A      0.448638   189A      0.449383  
     190A      0.450772   191A      0.453952   192A      0.454115  
     193A      0.454537   194A      0.457321   195A      0.458264  
     196A      0.460157   197A      0.465689   198A      0.471299  
     199A      0.472733   200A      0.473196   201A      0.480503  
     202A      0.481396   203A      0.483215   204A      0.483702  
     205A      0.483903   206A      0.485197   207A      0.485623  
     208A      0.488567   209A      0.495912   210A      0.496621  
     211A      0.497923   212A      0.499146   213A      0.502047  
     214A      0.503469   215A      0.504437   216A      0.509883  
     217A      0.510169   218A      0.510740   219A      0.511307  
     220A      0.512411   221A      0.512990   222A      0.515379  
     223A      0.517572   224A      0.518700   225A      0.519795  
     226A      0.523781   227A      0.524583   228A      0.526143  
     229A      0.527408   230A      0.528129   231A      0.528355  
     232A      0.529111   233A      0.531697   234A      0.541483  
     235A      0.544081   236A      0.545783   237A      0.549613  
     238A      0.551392   239A      0.553261   240A      0.554524  
     241A      0.556245   242A      0.558376   243A      0.558471  
     244A      0.558875   245A      0.559081   246A      0.559611  
     247A      0.569173   248A      0.570730   249A      0.572504  
     250A      0.573557   251A      0.574498   252A      0.574619  
     253A      0.575447   254A      0.580343   255A      0.584823  
     256A      0.587379   257A      0.587785   258A      0.589149  
     259A      0.589239   260A      0.592604   261A      0.596858  
     262A      0.598189   263A      0.599330   264A      0.599535  
     265A      0.600615   266A      0.602246   267A      0.604495  
     268A      0.606730   269A      0.611763   270A      0.612501  
     271A      0.615752   272A      0.622447   273A      0.622697  
     274A      0.625628   275A      0.632088   276A      0.633132  
     277A      0.639423   278A      0.640568   279A      0.641298  
     280A      0.643376   281A      0.643690   282A      0.648366  
     283A      0.649606   284A      0.650022   285A      0.652113  
     286A      0.652494   287A      0.658948   288A      0.661696  
     289A      0.664689   290A      0.667005   291A      0.668634  
     292A      0.672222   293A      0.675587   294A      0.679039  
     295A      0.680337   296A      0.682585   297A      0.683803  
     298A      0.684000   299A      0.686268   300A      0.687334  
     301A      0.688027   302A      0.688389   303A      0.693007  
     304A      0.699967   305A      0.701409   306A      0.708654  
     307A      0.709731   308A      0.712071   309A      0.712384  
     310A      0.713015   311A      0.715337   312A      0.716129  
     313A      0.716972   314A      0.719529   315A      0.721465  
     316A      0.726744   317A      0.731445   318A      0.736356  
     319A      0.738169   320A      0.741879   321A      0.742644  
     322A      0.747136   323A      0.748637   324A      0.751338  
     325A      0.751756   326A      0.756042   327A      0.757310  
     328A      0.758103   329A      0.767946   330A      0.770081  
     331A      0.770380   332A      0.772477   333A      0.774900  
     334A      0.785399   335A      0.785911   336A      0.786923  
     337A      0.787585   338A      0.791901   339A      0.794839  
     340A      0.798073   341A      0.801748   342A      0.804195  
     343A      0.805113   344A      0.809359   345A      0.812889  
     346A      0.815016   347A      0.815069   348A      0.816158  
     349A      0.817897   350A      0.822333   351A      0.830359  
     352A      0.830804   353A      0.831621   354A      0.834512  
     355A      0.842595   356A      0.845019   357A      0.845204  
     358A      0.845516   359A      0.848588   360A      0.849478  
     361A      0.852273   362A      0.856103   363A      0.857590  
     364A      0.861900   365A      0.862473   366A      0.863454  
     367A      0.865204   368A      0.865240   369A      0.870977  
     370A      0.872356   371A      0.874283   372A      0.877220  
     373A      0.877861   374A      0.878975   375A      0.879088  
     376A      0.879512   377A      0.879999   378A      0.881152  
     379A      0.891074   380A      0.896144   381A      0.906399  
     382A      0.906435   383A      0.910176   384A      0.921001  
     385A      0.921326   386A      0.951748   387A      0.952107  
     388A      0.952874   389A      0.955506   390A      0.956413  
     391A      0.959233   392A      0.966869   393A      0.967110  
     394A      0.971810   395A      0.972069   396A      0.975964  
     397A      0.978677   398A      0.985566   399A      0.987985  
     400A      0.991015   401A      1.011422   402A      1.012699  
     403A      1.020260   404A      1.026066   405A      1.031363  
     406A      1.031478   407A      1.042600   408A      1.042730  
     409A      1.050481   410A      1.054764   411A      1.063165  
     412A      1.063180   413A      1.086512   414A      1.087101  
     415A      1.112552   416A      1.113093   417A      1.133261  
     418A      1.133688   419A      1.135210   420A      1.135476  
     421A      1.135502   422A      1.148108   423A      1.148169  
     424A      1.170722   425A      1.172243   426A      1.172435  
     427A      1.181687   428A      1.236533   429A      1.236892  
     430A      1.239190   431A      1.239481   432A      1.239737  
     433A      1.253341   434A      1.253493   435A      1.254178  
     436A      1.274261   437A      1.274524   438A      1.296551  
     439A      1.296646   440A      1.297055   441A      1.302304  
     442A      1.311922   443A      1.354739   444A      1.354935  
     445A      1.369174   446A      1.376094   447A      1.376388  
     448A      1.383581   449A      1.383748   450A      1.385842  
     451A      1.396759   452A      1.396912   453A      1.407605  
     454A      1.411083   455A      1.436263   456A      1.450106  
     457A      1.450236   458A      1.490491   459A      1.504670  
     460A      1.526489   461A      1.528313   462A      1.543924  
     463A      1.544641   464A      1.551358   465A      1.551790  
     466A      1.552940   467A      1.554052   468A      1.564410  
     469A      1.565942   470A      1.629647   471A      1.635996  
     472A      1.636464   473A      1.639946   474A      1.641823  
     475A      1.650897   476A      1.651247   477A      1.653268  
     478A      1.658872   479A      1.710046   480A      1.718297  
     481A      1.721711   482A      1.733761   483A      1.735510  
     484A      1.741395   485A      1.751277   486A      1.752282  
     487A      1.766579   488A      1.768154   489A      1.768823  
     490A      1.769856   491A      1.783540   492A      1.819871  
     493A      1.820930   494A      1.821598   495A      1.821977  
     496A      1.824082   497A      1.827402   498A      1.832123  
     499A      1.832762   500A      1.844334   501A      1.851088  
     502A      1.852000   503A      1.853840   504A      1.867275  
     505A      1.868476   506A      1.872502   507A      1.873986  
     508A      1.886754   509A      1.893671   510A      1.903784  
     511A      1.904355   512A      1.904642   513A      1.905078  
     514A      1.905243   515A      1.907540   516A      1.908036  
     517A      1.908170   518A      1.912850   519A      1.914994  
     520A      1.919596   521A      1.922957   522A      1.925944  
     523A      1.926521   524A      1.935722   525A      1.936366  
     526A      1.952108   527A      1.956169   528A      1.958721  
     529A      1.959825   530A      1.960083   531A      1.964143  
     532A      1.966395   533A      1.967958   534A      1.968202  
     535A      1.974962   536A      1.985180   537A      1.985477  
     538A      1.987937   539A      1.989873   540A      1.991268  
     541A      1.992285   542A      1.996705   543A      1.997869  
     544A      2.005123   545A      2.007003   546A      2.011020  
     547A      2.013820   548A      2.014379   549A      2.015755  
     550A      2.019600   551A      2.020528   552A      2.030397  
     553A      2.031174   554A      2.046976   555A      2.047704  
     556A      2.048066   557A      2.050263   558A      2.051695  
     559A      2.053015   560A      2.057496   561A      2.065963  
     562A      2.066301   563A      2.066766   564A      2.069261  
     565A      2.069961   566A      2.070154   567A      2.072011  
     568A      2.073982   569A      2.077222   570A      2.078336  
     571A      2.079296   572A      2.080869   573A      2.082307  
     574A      2.083559   575A      2.102826   576A      2.106359  
     577A      2.107199   578A      2.111439   579A      2.147144  
     580A      2.148798   581A      2.151159   582A      2.154306  
     583A      2.155373   584A      2.157045   585A      2.160139  
     586A      2.161707   587A      2.166175   588A      2.171466  
     589A      2.171848   590A      2.173573   591A      2.179058  
     592A      2.192114   593A      2.193106   594A      2.194949  
     595A      2.199189   596A      2.201031   597A      2.207790  
     598A      2.208294   599A      2.214561   600A      2.215324  
     601A      2.216116   602A      2.216547   603A      2.219125  
     604A      2.221127   605A      2.225518   606A      2.226318  
     607A      2.226605   608A      2.227522   609A      2.228208  
     610A      2.229115   611A      2.233321   612A      2.234375  
     613A      2.236955   614A      2.237447   615A      2.238705  
     616A      2.240747   617A      2.241094   618A      2.242411  
     619A      2.245391   620A      2.245999   621A      2.246946  
     622A      2.249390   623A      2.252109   624A      2.254183  
     625A      2.254504   626A      2.256407   627A      2.257543  
     628A      2.259578   629A      2.261494   630A      2.262346  
     631A      2.264476   632A      2.264504   633A      2.266852  
     634A      2.268774   635A      2.269403   636A      2.271019  
     637A      2.274232   638A      2.281031   639A      2.288717  
     640A      2.295046   641A      2.299975   642A      2.301065  
     643A      2.304648   644A      2.313769   645A      2.316837  
     646A      2.321972   647A      2.323057   648A      2.326697  
     649A      2.327715   650A      2.329043   651A      2.332764  
     652A      2.338283   653A      2.347850   654A      2.348866  
     655A      2.349489   656A      2.351566   657A      2.351950  
     658A      2.352743   659A      2.362805   660A      2.363068  
     661A      2.369123   662A      2.369345   663A      2.374665  
     664A      2.386000   665A      2.386688   666A      2.394145  
     667A      2.406161   668A      2.408480   669A      2.410255  
     670A      2.410322   671A      2.413336   672A      2.415921  
     673A      2.424820   674A      2.424850   675A      2.434456  
     676A      2.438475   677A      2.439807   678A      2.446270  
     679A      2.447134   680A      2.450280   681A      2.450424  
     682A      2.450561   683A      2.455953   684A      2.457261  
     685A      2.457550   686A      2.459874   687A      2.467170  
     688A      2.469283   689A      2.469383   690A      2.471268  
     691A      2.472832   692A      2.472939   693A      2.479853  
     694A      2.486826   695A      2.487945   696A      2.494682  
     697A      2.499210   698A      2.499482   699A      2.507622  
     700A      2.510480   701A      2.524199   702A      2.524563  
     703A      2.529649   704A      2.532562   705A      2.534661  
     706A      2.537000   707A      2.538332   708A      2.546086  
     709A      2.548741   710A      2.552210   711A      2.554377  
     712A      2.556994   713A      2.562102   714A      2.563700  
     715A      2.564586   716A      2.567639   717A      2.578319  
     718A      2.581640   719A      2.582075   720A      2.583160  
     721A      2.585677   722A      2.591634   723A      2.593269  
     724A      2.601166   725A      2.604588   726A      2.613775  
     727A      2.613807   728A      2.619771   729A      2.622946  
     730A      2.624403   731A      2.628260   732A      2.628815  
     733A      2.628943   734A      2.633447   735A      2.637595  
     736A      2.637840   737A      2.638972   738A      2.642927  
     739A      2.649882   740A      2.658582   741A      2.659875  
     742A      2.682617   743A      2.682997   744A      2.685408  
     745A      2.702140   746A      2.702656   747A      2.703084  
     748A      2.709104   749A      2.709200   750A      2.710017  
     751A      2.711431   752A      2.717848   753A      2.724151  
     754A      2.729959   755A      2.730998   756A      2.731134  
     757A      2.734961   758A      2.735695   759A      2.738315  
     760A      2.740967   761A      2.753277   762A      2.755673  
     763A      2.768412   764A      2.769366   765A      2.778209  
     766A      2.779249   767A      2.783716   768A      2.787578  
     769A      2.791178   770A      2.794013   771A      2.794147  
     772A      2.795579   773A      2.796428   774A      2.801899  
     775A      2.802101   776A      2.821400   777A      2.822976  
     778A      2.823985   779A      2.826427   780A      2.827282  
     781A      2.829933   782A      2.836064   783A      2.837072  
     784A      2.837086   785A      2.846416   786A      2.861769  
     787A      2.862129   788A      2.888907   789A      2.895881  
[...]
     715A      1.408949   716A      1.411651   717A      1.414084  
     718A      1.415175   719A      1.420179   720A      1.423400  
     721A      1.429658   722A      1.429980   723A      1.433259  
     724A      1.436647   725A      1.437193   726A      1.440437  
     727A      1.440653   728A      1.442349   729A      1.444464  
     730A      1.448915   731A      1.449848   732A      1.450849  
     733A      1.451036   734A      1.466973   735A      1.470330  
     736A      1.477566   737A      1.479375   738A      1.517181  
     739A      1.517320   740A      1.521855   741A      1.522098  
     742A      1.533993   743A      1.552412   744A      1.580915  
     745A      1.600936   746A      1.601288   747A      1.603561  
     748A      1.609827   749A      1.611070   750A      1.612493  
     751A      1.613369   752A      1.613619   753A      1.619950  
     754A      1.623467   755A      1.624789   756A      1.634097  
     757A      1.634282   758A      1.641322   759A      1.642138  
     760A      1.643635   761A      1.644180   762A      1.645462  
     763A      1.645885   764A      1.650242   765A      1.658357  
     766A      1.661390   767A      1.661655   768A      1.666184  
     769A      1.670769   770A      1.676699   771A      1.676816  
     772A      1.677085   773A      1.677198   774A      1.677360  
     775A      1.684230   776A      1.687065   777A      1.687261  
     778A      1.696190   779A      1.698849   780A      1.699312  
     781A      1.699433   782A      1.700891   783A      1.704857  
     784A      1.704970   785A      1.713198   786A      1.715856  
     787A      1.716005   788A      1.741854   789A      1.751790  
     790A      1.760641   791A      1.760986   792A      1.761130  
     793A      1.761660   794A      1.762603   795A      1.764387  
     796A      1.768341   797A      1.777157   798A      1.779387  
     799A      1.792239   800A      1.792854   801A      1.816853  
     802A      1.817750   803A      1.817901   804A      1.824877  
     805A      1.824976   806A      1.827844   807A      1.831452  
     808A      1.832422   809A      1.842481   810A      1.842664  
     811A      1.849220   812A      1.860999   813A      1.861258  
     814A      1.864636   815A      1.866457   816A      1.869201  
     817A      1.870123   818A      1.872981   819A      1.880269  
     820A      1.880377   821A      1.893095   822A      1.896517  
     823A      1.896716   824A      1.900485   825A      1.903251  
     826A      1.903542   827A      1.908992   828A      1.909487  
     829A      1.916249   830A      1.917950   831A      1.918078  
     832A      1.919387   833A      1.920924   834A      1.922186  
     835A      1.922267   836A      1.940756   837A      1.942270  
     838A      1.942531   839A      1.944069   840A      1.947322  
     841A      1.947695   842A      1.955257   843A      1.956819  
     844A      1.957280   845A      1.958130   846A      1.959505  
     847A      1.974467   848A      1.983790   849A      1.985144  
     850A      1.993391   851A      1.997220   852A      1.999010  
     853A      2.000581   854A      2.006948   855A      2.008705  
     856A      2.012612   857A      2.013882   858A      2.028145  
     859A      2.030165   860A      2.030567   861A      2.031075  
     862A      2.031785   863A      2.031900   864A      2.033526  
     865A      2.048553   866A      2.052909   867A      2.053665  
     868A      2.059379   869A      2.061269   870A      2.062412  
     871A      2.062877   872A      2.070099   873A      2.073002  
     874A      2.073822   875A      2.076351   876A      2.078547  
     877A      2.080730   878A      2.085155   879A      2.088471  
     880A      2.091345   881A      2.093232   882A      2.095188  
     883A      2.097054   884A      2.097781   885A      2.101233  
     886A      2.101836   887A      2.108748   888A      2.109216  
     889A      2.110584   890A      2.112094   891A      2.112587  
     892A      2.116984   893A      2.119690   894A      2.120300  
     895A      2.120997   896A      2.121376   897A      2.121879  
     898A      2.128079   899A      2.129474   900A      2.134674  
     901A      2.135735   902A      2.136346   903A      2.137004  
     904A      2.143426   905A      2.143496   906A      2.156647  
     907A      2.160313   908A      2.161063   909A      2.163362  
     910A      2.163394   911A      2.171985   912A      2.179433  
     913A      2.180071   914A      2.191303   915A      2.191496  
     916A      2.192620   917A      2.194490   918A      2.196047  
     919A      2.196200   920A      2.202444   921A      2.219798  
     922A      2.220568   923A      2.220758   924A      2.228421  
     925A      2.229231   926A      2.231747   927A      2.233931  
     928A      2.243503   929A      2.244365   930A      2.244563  
     931A      2.244924   932A      2.248075   933A      2.260412  
     934A      2.260661   935A      2.270442   936A      2.270688  
     937A      2.272388   938A      2.272887   939A      2.281125  
     940A      2.300538   941A      2.306754   942A      2.312237  
     943A      2.313226   944A      2.322614   945A      2.326404  
     946A      2.331303   947A      2.331416   948A      2.332501  
     949A      2.335538   950A      2.351146   951A      2.352513  
     952A      2.353068   953A      2.353628   954A      2.366846  
     955A      2.367528   956A      2.374904   957A      2.383003  
     958A      2.416170   959A      2.424129   960A      2.424566  
     961A      2.424623   962A      2.436541   963A      2.441497  
     964A      2.441746   965A      2.470396   966A      2.473882  
     967A      2.474774   968A      2.485853   969A      2.486352  
     970A      2.502457   971A      2.520161   972A      2.530121  
     973A      2.530787   974A      2.545078   975A      2.546381  
     976A      2.547044   977A      2.554554   978A      2.554629  
     979A      2.554983   980A      2.560130   981A      2.560288  
     982A      2.573140   983A      2.573228   984A      2.575188  
     985A      2.575581   986A      2.586095   987A      2.586198  
     988A      2.587624   989A      2.590133   990A      2.591496  
     991A      2.608339   992A      2.624042   993A      2.624427  
     994A      2.628643   995A      2.631668   996A      2.632481  
     997A      2.641597   998A      2.641716   999A      2.651434  
    1000A      2.651713  1001A      2.656911  1002A      2.683115  
    1003A      2.684161  1004A      2.684835  1005A      2.687594  
    1006A      2.702547  1007A      2.702821  1008A      2.713183  
    1009A      2.713272  1010A      2.718950  1011A      2.719000  
    1012A      2.723709  1013A      2.723959  1014A      2.739865  
    1015A      2.752795  1016A      2.753598  1017A      2.777787  
    1018A      2.795085  1019A      2.795194  1020A      2.816874  
    1021A      2.827207  1022A      2.828728  1023A      2.829486  
    1024A      2.841254  1025A      2.847553  1026A      2.854026  
    1027A      2.856206  1028A      2.858501  1029A      2.859772  
    1030A      2.861028  1031A      2.868850  1032A      2.871306  
    1033A      2.917538  1034A      2.919042  1035A      2.925296  
    1036A      2.933812  1037A      2.934088  1038A      2.950412  
    1039A      2.951597  1040A      2.963734  1041A      3.010453  
    1042A      3.010612  1043A      3.012111  1044A      3.030008  
    1045A      3.064464  1046A      3.064736  1047A      3.070864  
    1048A      3.071199  1049A      3.110852  1050A      3.111555  
    1051A      3.129214  1052A      3.130023  1053A      3.130616  
    1054A      3.137603  1055A      3.147345  1056A      3.147513  
    1057A      3.147815  1058A      3.149473  1059A      3.149547  
    1060A      3.158773  1061A      3.159679  1062A      3.166391  
    1063A      3.166950  1064A      3.191946  1065A      3.211209  
    1066A      3.219823  1067A      3.238419  1068A      3.275118  
    1069A      3.277109  1070A      3.277254  1071A      3.282705  
    1072A      3.283941  1073A      3.417101  1074A      3.417503  
    1075A      3.443473  1076A      3.482405  1077A      3.485697  
    1078A      3.550672  1079A      3.578554  1080A      3.580122  
    1081A      3.594479  1082A      3.627304  1083A      3.629547  
    1084A      3.663379  1085A      3.671021  1086A      3.769450  
    1087A      3.783870  1088A      3.784669  1089A      3.871199  
    1090A      3.871221  1091A      3.913576  1092A      3.913830  
    1093A      3.977082  1094A      4.011132  1095A      4.038878  
    1096A      4.052558  1097A      4.085075  1098A      4.222273  
    1099A      4.277205  1100A      4.284990  1101A      4.369069  
    1102A      5.750922  1103A      5.751547  1104A      5.756199  
    1105A      5.757628  1106A      5.760154  1107A      5.761832  
    1108A      5.764240  1109A      5.765731  1110A      5.786278  
    1111A      5.791330  1112A      5.798139  1113A      6.022762  
    1114A      6.023479  1115A      6.024877  1116A      6.198938  
    1117A      6.329689  1118A      6.329943  1119A      6.381036  
    1120A      6.381603  1121A      6.382960  1122A      7.175901  
    1123A      7.243215  1124A      7.261105  1125A      7.269983  
    1126A      7.293366  1127A      7.295676  1128A      7.307104  
    1129A      7.309298  1130A      7.478790  1131A      7.524428  
    1132A      7.562680  1133A      7.678061  1134A     12.631537  
    1135A     42.916196  1136A     42.927764  1137A     42.933710  
    1138A     42.948126  

    Final Occupation by Irrep:
              A 
    DOCC [   171 ]
    NA   [   171 ]
    NB   [   171 ]

  @DF-RHF Final Energy: -2055.89290340626030

   => Energetics <=

    Nuclear Repulsion Energy =           6452.5568002797781446
    One-Electron Energy =              -15636.4628779831400607
    Two-Electron Energy =                7128.0131742971025233
    Total Energy =                      -2055.8929034062603023

Computation Completed


Properties will be evaluated at   0.000000,   0.000000,   0.000000 [a0]

Properties computed using the SCF density matrix


 Multipole Moments:

 ------------------------------------------------------------------------------------
     Multipole            Electronic (a.u.)      Nuclear  (a.u.)        Total (a.u.)
 ------------------------------------------------------------------------------------

 L = 1.  Multiply by 2.5417464519 to convert [e a0] to [Debye]
 Dipole X            :          0.0000675            0.0000112            0.0000787
 Dipole Y            :          0.0002295           -0.0000531            0.0001764
 Dipole Z            :        373.2890523         -373.2938922           -0.0048399
 Magnitude           :                                                    0.0048437

 ------------------------------------------------------------------------------------

*** tstop() called on d-16-12-3 at Mon Jan 22 12:10:39 2024
Module time:
	user time   =    2512.16 seconds =      41.87 minutes
	system time =      44.50 seconds =       0.74 minutes
	total time  =        261 seconds =       4.35 minutes
Total time:
	user time   =    7123.07 seconds =     118.72 minutes
	system time =     136.44 seconds =       2.27 minutes
	total time  =        768 seconds =      12.80 minutes
  Constructing Basis Sets for SAPT...

   => Loading Basis Set <=

    Name: (JUN-CC-PVDZ AUX)
    Role: RIFIT
    Keyword: DF_BASIS_SAPT
    atoms 1     entry B          line    56 file /home/gridsan/tfroembgen/.conda/envs/psi4test/share/psi4/basis/jun-cc-pvdz-ri.gbs 
    atoms 2-5   entry F          line   232 file /home/gridsan/tfroembgen/.conda/envs/psi4test/share/psi4/basis/jun-cc-pvdz-ri.gbs 
    atoms 6-59  entry C          line   100 file /home/gridsan/tfroembgen/.conda/envs/psi4test/share/psi4/basis/jun-cc-pvdz-ri.gbs 
    atoms 60-77 entry H          line    30 file /home/gridsan/tfroembgen/.conda/envs/psi4test/share/psi4/basis/jun-cc-pvdz-ri.gbs 

   => Loading Basis Set <=

    Name: (JUN-CC-PVDZ AUX)
    Role: JKFIT
    Keyword: DF_BASIS_ELST
    atoms 1     entry B          line    90 file /home/gridsan/tfroembgen/.conda/envs/psi4test/share/psi4/basis/jun-cc-pvdz-jkfit.gbs 
    atoms 2-5   entry F          line   314 file /home/gridsan/tfroembgen/.conda/envs/psi4test/share/psi4/basis/jun-cc-pvdz-jkfit.gbs 
    atoms 6-59  entry C          line   146 file /home/gridsan/tfroembgen/.conda/envs/psi4test/share/psi4/basis/jun-cc-pvdz-jkfit.gbs 
    atoms 60-77 entry H          line    70 file /home/gridsan/tfroembgen/.conda/envs/psi4test/share/psi4/basis/jun-cc-pvdz-jkfit.gbs 


  //>>>>>>>>>>>>>>>>>>>>>>>>>>>>>>>>>>>//
  //               SSAPT0              //
  //<<<<<<<<<<<<<<<<<<<<<<<<<<<<<<<<<<<//


*** tstart() called on d-16-12-3
*** at Mon Jan 22 12:10:40 2024

        SAPT0  
    Ed Hohenstein
     6 June 2009

      Orbital Information
  --------------------------
    NSO        =      1152
    NMO        =      1138
    NRI        =      4087
    NRI (Elst) =      5075
    NOCC A     =        21
    NOCC B     =       171
    FOCC A     =         5
    FOCC B     =        54
    NVIR A     =      1117
    NVIR B     =       967

    Elst10,r            =     0.011129020092 [Eh]
    Exch10              =     0.000126132603 [Eh]
    Exch10 (S^2)        =     0.000126135815 [Eh]

    Iter     Energy [mEh]          dE [mEh]         Residual      Time [s]
       1      -0.01971923       0.019719232       0.766382559           253
       2      -0.02266020       0.002940964       0.366668450           355
       3      -0.02347221       0.000812013       0.069405553           376
       4      -0.02341390      -0.000058310       0.016949035           392
       5      -0.02339300      -0.000020898       0.002338289           411
       6      -0.02339654       0.000003535       0.000740957           427
       7      -0.02339667       0.000000129       0.000200541           441
       8      -0.02339644      -0.000000229       0.000038321           456
       9      -0.02339644       0.000000002       0.000006540           470
      10      -0.02339644       0.000000005       0.000001138           498
      11      -0.02339644      -0.000000000       0.000000234           512

    CHF Iterations converged


    Iter     Energy [mEh]          dE [mEh]         Residual      Time [s]
       1      -9.65435473       9.654354733      52.019750057           223
       2      -6.49990472      -3.154450013       6.756733959           459
       3      -6.49029519      -0.009609531       2.303107045           480
       4      -6.63996308       0.149667892       0.541707502           500
       5      -6.64858399       0.008620912       0.158677514           518
       6      -6.64513785      -0.003446140       0.077577322           536
       7      -6.64416549      -0.000972361       0.032410995           554
       8      -6.64468807       0.000522580       0.016683718           572
       9      -6.64486613       0.000178056       0.009662219           589
      10      -6.64477534      -0.000090789       0.008031637           607
      11      -6.64472491      -0.000050432       0.003969000           624
      12      -6.64474008       0.000015170       0.001504140           643
      13      -6.64475346       0.000013377       0.000533585           662
      14      -6.64475282      -0.000000631       0.000173517           677
      15      -6.64475071      -0.000002110       0.000061766           695
      16      -6.64475100       0.000000289       0.000036442           710
      17      -6.64475129       0.000000283       0.000016714           727
      18      -6.64475127      -0.000000012       0.000005897           744
      19      -6.64475122      -0.000000054       0.000002843           760
      20      -6.64475121      -0.000000010       0.000001346           777
      21      -6.64475122       0.000000013       0.000000767           792

    CHF Iterations converged

    Ind20,r (A<-B)      =    -0.000023396444 [Eh]
    Ind20,r (B<-A)      =    -0.006644751223 [Eh]
    Ind20,r             =    -0.006668147667 [Eh]
    Exch-Ind20,r (A<-B) =     0.000011063591 [Eh]
    Exch-Ind20,r (B<-A) =     0.000015133827 [Eh]
    Exch-Ind20,r        =     0.000026197418 [Eh]
    Disp20              =    -0.002287923152 [Eh]
    Disp20 (SS)         =    -0.001143961576 [Eh]
    Disp20 (OS)         =    -0.001143961576 [Eh]
    Exch-Disp20         =     0.000035381433 [Eh]
    Exch-Disp20 (SS)    =     0.000024320050 [Eh]
    Exch-Disp20 (OS)    =     0.000011061383 [Eh]

    SAPT Results 
  --------------------------------------------------------------------------------------------------------
    Electrostatics                 11.12902009 [mEh]       6.98356554 [kcal/mol]      29.21923823 [kJ/mol]
      Elst10,r                     11.12902009 [mEh]       6.98356554 [kcal/mol]      29.21923823 [kJ/mol]

    Exchange                        0.12613260 [mEh]       0.07914940 [kcal/mol]       0.33116110 [kJ/mol]
      Exch10                        0.12613260 [mEh]       0.07914940 [kcal/mol]       0.33116110 [kJ/mol]
      Exch10(S^2)                   0.12613581 [mEh]       0.07915142 [kcal/mol]       0.33116954 [kJ/mol]

    Induction                      -6.57846561 [mEh]      -4.12804950 [kcal/mol]     -17.27175909 [kJ/mol]
      Ind20,r                      -6.66814767 [mEh]      -4.18432583 [kcal/mol]     -17.50721929 [kJ/mol]
      Exch-Ind20,r                  0.02619742 [mEh]       0.01643913 [kcal/mol]       0.06878131 [kJ/mol]
      delta HF,r (2)                0.06348463 [mEh]       0.03983721 [kcal/mol]       0.16667889 [kJ/mol]

    Dispersion                     -2.25254172 [mEh]      -1.41349127 [kcal/mol]      -5.91404747 [kJ/mol]
      Disp20                       -2.28792315 [mEh]      -1.43569345 [kcal/mol]      -6.00694141 [kJ/mol]
      Exch-Disp20                   0.03538143 [mEh]       0.02220218 [kcal/mol]       0.09289394 [kJ/mol]
      Disp20 (SS)                  -1.14396158 [mEh]      -0.71784673 [kcal/mol]      -3.00347070 [kJ/mol]
      Disp20 (OS)                  -1.14396158 [mEh]      -0.71784673 [kcal/mol]      -3.00347070 [kJ/mol]
      Exch-Disp20 (SS)              0.02432005 [mEh]       0.01526106 [kcal/mol]       0.06385228 [kJ/mol]
      Exch-Disp20 (OS)              0.01106138 [mEh]       0.00694112 [kcal/mol]       0.02904166 [kJ/mol]

  Total HF                          4.67668708 [mEh]       2.93466545 [kcal/mol]      12.27864024 [kJ/mol]
  Total SAPT0                       2.42414536 [mEh]       1.52117418 [kcal/mol]       6.36459277 [kJ/mol]

  Special recipe for scaled SAPT0 (see Manual):
    Electrostatics sSAPT0          11.12902009 [mEh]       6.98356554 [kcal/mol]      29.21923823 [kJ/mol]
    Exchange sSAPT0                 0.12613260 [mEh]       0.07914940 [kcal/mol]       0.33116110 [kJ/mol]
    Induction sSAPT0               -6.57846762 [mEh]      -4.12805075 [kcal/mol]     -17.27176435 [kJ/mol]
    Dispersion sSAPT0              -2.25254442 [mEh]      -1.41349296 [kcal/mol]      -5.91405456 [kJ/mol]
  Total sSAPT0                      2.42414066 [mEh]       1.52117123 [kcal/mol]       6.36458042 [kJ/mol]
  --------------------------------------------------------------------------------------------------------

*** tstop() called on d-16-12-3 at Mon Jan 22 13:16:20 2024
Module time:
	user time   =    7175.12 seconds =     119.59 minutes
	system time =     723.04 seconds =      12.05 minutes
	total time  =       3940 seconds =      65.67 minutes
Total time:
	user time   =   14299.73 seconds =     238.33 minutes
	system time =     859.48 seconds =      14.32 minutes
	total time  =       4709 seconds =      78.48 minutes

    Psi4 stopped on: Monday, 22 January 2024 01:16PM
    Psi4 wall time for execution: 1:18:30.30

*** Psi4 exiting successfully. Buy a developer a beer!
