
    -----------------------------------------------------------------------
          Psi4: An Open-Source Ab Initio Electronic Structure Package
                               Psi4 1.9 release

                         Git: Rev {} zzzzzzz 


    D. G. A. Smith, L. A. Burns, A. C. Simmonett, R. M. Parrish,
    M. C. Schieber, R. Galvelis, P. Kraus, H. Kruse, R. Di Remigio,
    A. Alenaizan, A. M. James, S. Lehtola, J. P. Misiewicz, M. Scheurer,
    R. A. Shaw, J. B. Schriber, Y. Xie, Z. L. Glick, D. A. Sirianni,
    J. S. O'Brien, J. M. Waldrop, A. Kumar, E. G. Hohenstein,
    B. P. Pritchard, B. R. Brooks, H. F. Schaefer III, A. Yu. Sokolov,
    K. Patkowski, A. E. DePrince III, U. Bozkaya, R. A. King,
    F. A. Evangelista, J. M. Turney, T. D. Crawford, C. D. Sherrill,
    J. Chem. Phys. 152(18) 184108 (2020). https://doi.org/10.1063/5.0006002

                            Additional Code Authors
    E. T. Seidl, C. L. Janssen, E. F. Valeev, M. L. Leininger,
    J. F. Gonthier, R. M. Richard, H. R. McAlexander, M. Saitow, X. Wang,
    P. Verma, M. H. Lechner, A. Jiang, S. Behnle, A. G. Heide,
    M. F. Herbst, and D. L. Poole

             Previous Authors, Complete List of Code Contributors,
                       and Citations for Specific Modules
    https://github.com/psi4/psi4/blob/master/codemeta.json
    https://github.com/psi4/psi4/graphs/contributors
    http://psicode.org/psi4manual/master/introduction.html#citing-psifour

    -----------------------------------------------------------------------


    Psi4 started on: Monday, 22 January 2024 10:56AM

    Process ID: 352920
    Host:       d-16-5-1
    PSIDATADIR: /home/gridsan/tfroembgen/.conda/envs/psi4test/share/psi4
    Memory:     500.0 MiB
    Threads:    12
    
  ==> Input File <==

--------------------------------------------------------------------------
memory 32 GB # how much memory is available ! Depends on the nodes/cores !

molecule dimer {
# monomer A
-1 1    # Charge and multiplicity
B -0.000046  0.000337 2.399994
F -1.153597  0.000048 3.215641
F  1.153661 -0.000581 3.215641
F -0.000019 -1.153637 1.584360
F -0.000019  1.153978 1.584360
--
# monomer B
0 1     # Charge and multiplicity
C   1.22531237526482      0.70753866091955      0.00613762728373
C   1.22532433589282     -0.70753852257020     -0.00619318228664
C   -0.00000567409046      1.41496628609039     -0.00672680580738
C   2.45644923379077      1.41832825917820      0.00902448468363
C   0.00001130712078     -1.41497612663474      0.00347275151708
C   -1.22530046906674      0.70754574598412      0.00838914760619
C   2.45643823516184     -1.41832293188077     -0.00843833914343
C   -0.00000085313587      2.83680140328112     -0.00913035594137
C   3.68182717731192      0.70931832800114     -0.00808954934571
C   2.45512052870677      2.83422403348893     -0.00819210630633
C   3.68182158506039     -0.70933346742900      0.00798293467272
C   -1.22531311884624     -0.70752714354401     -0.00512042085974
C   1.22670006104402      3.54346985599427      0.00816696660346
C   0.00000526469929     -2.83678176723568      0.00832091913869
C   -2.45643555300670      1.41831729028492      0.00842454345199
C   2.45512389762097     -2.83422965658853      0.00783102630520
C   -1.22671388474763      3.54346943575023      0.00827029982280
C   4.91451777504333      1.42717324448953     -0.00160886631602
C   3.69315067131765      3.54279566454522     -0.00155906667985
C   -2.45643712022637     -1.41831290883911     -0.00846337726810
C   1.22670532178455     -3.54347386990643     -0.00780316414624
C   -2.45512491866593      2.83421703463423     -0.00818572995999
C   4.91452486062398     -1.42718653794377      0.00136387641845
C   1.22142509354026      4.97013443726031      0.00150231067809
C   4.89300870916237      2.82518837202648     -0.00039219795739
C   -1.22669652864725     -3.54347062507680     -0.00753595973677
C   -3.68181849668397      0.70932533873199     -0.00807686886569
C   3.69314758099218     -3.54280096939050      0.00148176697923
C   -1.22143177215231      4.97012866986289      0.00168580605083
C   6.13477145276790      0.68054831910577     -0.00083909176631
C   3.65678936045204      4.97295361556775     -0.00065042889723
C   -2.45512642789169     -2.83421472106065      0.00758666850712
C   -3.68181869921921     -0.70932533146830      0.00810055625144
C   4.89301309775526     -2.82519973363176      0.00021895393805
C   -0.00000059327114      5.65044773803267      0.00045449734393
C   6.13477559217374     -0.68055448207492      0.00042622874941
C   2.47813196269732      5.65357712333155      0.00063835075260
C   1.22142288457925     -4.97012668293268     -0.00129718634452
C   -3.69316190412301      3.54279732619245     -0.00139355922051
C   -1.22142804110313     -4.97011793159564     -0.00140994817719
C   -4.91452132810043      1.42717581899491     -0.00153192130862
C   3.65678749952045     -4.97295485423912      0.00080007163680
C   -2.47813805026426      5.65357479452875      0.00092287576113
C   -3.69314125872231     -3.54278984697859      0.00136564082345
C   -4.91451200321153     -1.42718062802730      0.00139857359209
C   -0.00000552908399     -5.65043791501335      0.00005899322272
C   -4.89302000425900      2.82518897091939     -0.00040227981744
C   2.47812647313991     -5.65357317188818     -0.00029052915548
C   -3.65679823041642      4.97295655404175     -0.00047374852278
C   -4.89299899901461     -2.82519139505969      0.00006491824035
C   -2.47812801824129     -5.65356579800621     -0.00056571680280
C   -6.13477002348955      0.68054913825639     -0.00086464346868
C   -3.65678835334731     -4.97294365097028      0.00058578382008
C   -6.13476456307132     -0.68055354348201      0.00040575295444
H   5.83528897565761      3.36927626695423      0.00396712770529
H   7.07385965258860      1.22821762089947     -0.00037744837300
H   4.60066374401555      5.51238117445323     -0.00014522814529
H   5.83528386714679     -3.36930568472863     -0.00423551337640
H   -0.00001167146422      6.73853104613662     -0.00389474766392
H   7.07386165167227     -1.22822657074368     -0.00008250934481
H   2.47331421164041      6.74068466339473      0.00017162982210
H   4.60066897122302     -5.51237575717576      0.00039007446835
H   -2.47331820069565      6.74068209160650      0.00047297644710
H   -0.00000978838621     -6.73852780445195      0.00458867820736
H   -5.83530143450167      3.36927132229595      0.00410314985360
H   2.47330840367253     -6.74068500242887      0.00027980126949
H   -4.60067436136587      5.51237839860371      0.00002010017831
H   -5.83527902699321     -3.36928859177951     -0.00451481925734
H   -2.47329986759855     -6.74067870613986     -0.00016951527498
H   -7.07385728692578      1.22822084484047     -0.00046143985387
H   -4.60067330624313     -5.51236229778631      0.00021776644566
H   -7.07385645456741     -1.22822025997701     -0.00017736581114

    units angstrom      # Angstroms are the default
    no_reorient         # Geometry fixed, default
    symmetry c1         # C1 symmetry, default
}

set {
    scf_type DF         # Density fitting, faster than exact integrals
    freeze_core True    # Freeze core electrons
    basis jun-cc-pVDZ   # Jun-cc-pVDZ basis set, recommended for sSAPT0 in https://doi.org/10.1063/1.4867135
}

energy('ssapt0')        # Compute sSAPT0 energy, includes also SAPT0
--------------------------------------------------------------------------

  Memory set to  29.802 GiB by Python driver.

Scratch directory: /state/partition1/slurm_tmp/24792911.4294967291.0/
   => Loading Basis Set <=

    Name: JUN-CC-PVDZ
    Role: ORBITAL
    Keyword: BASIS
    atoms 1     entry B          line   130 file /home/gridsan/tfroembgen/.conda/envs/psi4test/share/psi4/basis/jun-cc-pvdz.gbs 
    atoms 2-5   entry F          line   266 file /home/gridsan/tfroembgen/.conda/envs/psi4test/share/psi4/basis/jun-cc-pvdz.gbs 
    atoms 6-59  entry C          line   164 file /home/gridsan/tfroembgen/.conda/envs/psi4test/share/psi4/basis/jun-cc-pvdz.gbs 
    atoms 60-77 entry H          line    36 file /home/gridsan/tfroembgen/.conda/envs/psi4test/share/psi4/basis/jun-cc-pvdz.gbs 

   => Loading Basis Set <=

    Name: JUN-CC-PVDZ
    Role: ORBITAL
    Keyword: BASIS
    atoms 1     entry B          line   130 file /home/gridsan/tfroembgen/.conda/envs/psi4test/share/psi4/basis/jun-cc-pvdz.gbs 
    atoms 2-5   entry F          line   266 file /home/gridsan/tfroembgen/.conda/envs/psi4test/share/psi4/basis/jun-cc-pvdz.gbs 
    atoms 6-59  entry C          line   164 file /home/gridsan/tfroembgen/.conda/envs/psi4test/share/psi4/basis/jun-cc-pvdz.gbs 
    atoms 60-77 entry H          line    36 file /home/gridsan/tfroembgen/.conda/envs/psi4test/share/psi4/basis/jun-cc-pvdz.gbs 


  //>>>>>>>>>>>>>>>>>>>>>>>>>>>>>>>>>>>//
  //              Dimer HF             //
  //<<<<<<<<<<<<<<<<<<<<<<<<<<<<<<<<<<<//

   => Libint2 <=

    Primary   basis highest AM E, G, H:  7, 7, 4
    Auxiliary basis highest AM E, G, H:  7, 7, 5
    Onebody   basis highest AM E, G, H:  7, 7, 5
    Solid Harmonics ordering:            gaussian

*** tstart() called on d-16-5-1
*** at Mon Jan 22 10:56:09 2024

   => Loading Basis Set <=

    Name: JUN-CC-PVDZ
    Role: ORBITAL
    Keyword: BASIS
    atoms 1     entry B          line   130 file /home/gridsan/tfroembgen/.conda/envs/psi4test/share/psi4/basis/jun-cc-pvdz.gbs 
    atoms 2-5   entry F          line   266 file /home/gridsan/tfroembgen/.conda/envs/psi4test/share/psi4/basis/jun-cc-pvdz.gbs 
    atoms 6-59  entry C          line   164 file /home/gridsan/tfroembgen/.conda/envs/psi4test/share/psi4/basis/jun-cc-pvdz.gbs 
    atoms 60-77 entry H          line    36 file /home/gridsan/tfroembgen/.conda/envs/psi4test/share/psi4/basis/jun-cc-pvdz.gbs 


         ---------------------------------------------------------
                                   SCF
               by Justin Turney, Rob Parrish, Andy Simmonett
                          and Daniel G. A. Smith
                              RHF Reference
                       12 Threads,  30517 MiB Core
         ---------------------------------------------------------

  ==> Geometry <==

    Molecular point group: c1
    Full point group: C1

    Geometry (in Angstrom), charge = -1, multiplicity = 1:

       Center              X                  Y                   Z               Mass       
    ------------   -----------------  -----------------  -----------------  -----------------
         B           -0.000046449334     0.000336519434     2.122749063270    11.009305360000
         F           -1.153597449334     0.000047519434     2.938396063270    18.998403162730
         F            1.153660550666    -0.000581480566     2.938396063270    18.998403162730
         F           -0.000019449334    -1.153637480566     1.307115063270    18.998403162730
         F           -0.000019449334     1.153977519434     1.307115063270    18.998403162730
         C            1.225311925931     0.707538180353    -0.271107309447    12.000000000000
         C            1.225323886559    -0.707539003137    -0.283438119017    12.000000000000
         C           -0.000006123424     1.414965805524    -0.283971742538    12.000000000000
         C            2.456448784457     1.418327778612    -0.268220452047    12.000000000000
         C            0.000010857787    -1.414976607201    -0.273772185213    12.000000000000
         C           -1.225300918401     0.707545265418    -0.268855789124    12.000000000000
         C            2.456437785828    -1.418323412447    -0.285683275874    12.000000000000
         C           -0.000001302470     2.836800922715    -0.286375292672    12.000000000000
         C            3.681826727978     0.709317847435    -0.285334486076    12.000000000000
         C            2.455120079373     2.834223552923    -0.285437043037    12.000000000000
         C            3.681821135726    -0.709333947995    -0.269262002058    12.000000000000
         C           -1.225313568180    -0.707527624110    -0.282365357590    12.000000000000
         C            1.226699611710     3.543469375428    -0.269077970127    12.000000000000
         C            0.000004815365    -2.836782247802    -0.268924017592    12.000000000000
         C           -2.456436002341     1.418316809719    -0.268820393278    12.000000000000
         C            2.455123448287    -2.834230137155    -0.269413910425    12.000000000000
         C           -1.226714334082     3.543468955184    -0.268974636908    12.000000000000
         C            4.914517325709     1.427172763923    -0.278853803046    12.000000000000
         C            3.693150221984     3.542795183979    -0.278804003410    12.000000000000
         C           -2.456437569560    -1.418313389406    -0.285708313999    12.000000000000
         C            1.226704872451    -3.543474350473    -0.285048100877    12.000000000000
         C           -2.455125368000     2.834216554068    -0.285430666690    12.000000000000
         C            4.914524411290    -1.427187018510    -0.275881060312    12.000000000000
         C            1.221424644206     4.970133956694    -0.275742626052    12.000000000000
         C            4.893008259828     2.825187891460    -0.277637134688    12.000000000000
         C           -1.226696977981    -3.543471105643    -0.284780896467    12.000000000000
         C           -3.681818946018     0.709324858166    -0.285321805596    12.000000000000
         C            3.693147131658    -3.542801449957    -0.275763169751    12.000000000000
         C           -1.221432221486     4.970128189296    -0.275559130680    12.000000000000
         C            6.134771003434     0.680547838539    -0.278084028497    12.000000000000
         C            3.656788911118     4.972953135001    -0.277895365628    12.000000000000
         C           -2.455126877226    -2.834215201627    -0.269658268223    12.000000000000
         C           -3.681819148553    -0.709325812035    -0.269144380479    12.000000000000
         C            4.893012648421    -2.825200214198    -0.277025982792    12.000000000000
         C           -0.000001042605     5.650447257466    -0.276790439386    12.000000000000
         C            6.134775142840    -0.680554962641    -0.276818707981    12.000000000000
         C            2.478131513363     5.653576642765    -0.276606585978    12.000000000000
         C            1.221422435245    -4.970127163499    -0.278542123075    12.000000000000
         C           -3.693162353457     3.542796845626    -0.278638495951    12.000000000000
         C           -1.221428490437    -4.970118412162    -0.278654884908    12.000000000000
         C           -4.914521777434     1.427175338429    -0.278776858039    12.000000000000
         C            3.656787050187    -4.972955334806    -0.276444865094    12.000000000000
         C           -2.478138499598     5.653574313962    -0.276322060969    12.000000000000
         C           -3.693141708056    -3.542790327545    -0.275879295907    12.000000000000
         C           -4.914512452545    -1.427181108594    -0.275846363138    12.000000000000
         C           -0.000005978418    -5.650438395580    -0.277185943508    12.000000000000
         C           -4.893020453593     2.825188490353    -0.277647216548    12.000000000000
         C            2.478126023806    -5.653573652455    -0.277535465886    12.000000000000
         C           -3.656798679750     4.972956073475    -0.277718685253    12.000000000000
         C           -4.892999448349    -2.825191875626    -0.277180018490    12.000000000000
         C           -2.478128467575    -5.653566278573    -0.277810653533    12.000000000000
         C           -6.134770472823     0.680548657690    -0.278109580199    12.000000000000
         C           -3.656788802681    -4.972944131537    -0.276659152910    12.000000000000
         C           -6.134765012405    -0.680554024048    -0.276839183776    12.000000000000
         H            5.835288526324     3.369275786388    -0.273277809025     1.007825032230
         H            7.073859203255     1.228217140333    -0.277622385103     1.007825032230
         H            4.600663294682     5.512380693887    -0.277390164876     1.007825032230
         H            5.835283417813    -3.369306165295    -0.281480450107     1.007825032230
         H           -0.000012120798     6.738530565570    -0.281139684394     1.007825032230
         H            7.073861202338    -1.228227051310    -0.277327446075     1.007825032230
         H            2.473313762307     6.740684182828    -0.277073306908     1.007825032230
         H            4.600668521889    -5.512376237742    -0.276854862262     1.007825032230
         H           -2.473318650030     6.740681611040    -0.276771960283     1.007825032230
         H           -0.000010237720    -6.738528285018    -0.272656258523     1.007825032230
         H           -5.835301883836     3.369270841730    -0.273141786877     1.007825032230
         H            2.473307954339    -6.740685482995    -0.276965135461     1.007825032230
         H           -4.600674810700     5.512377918037    -0.277224836552     1.007825032230
         H           -5.835279476327    -3.369289072346    -0.281759755988     1.007825032230
         H           -2.473300316932    -6.740679186706    -0.277414452005     1.007825032230
         H           -7.073857736260     1.228220364274    -0.277706376584     1.007825032230
         H           -4.600673755577    -5.512362778353    -0.277027170285     1.007825032230
         H           -7.073856903901    -1.228220740543    -0.277422302542     1.007825032230

  Running in c1 symmetry.

  Rotational constants: A =      0.00207  B =      0.00207  C =      0.00110 [cm^-1]
  Rotational constants: A =     62.04580  B =     62.03661  C =     33.02250 [MHz]
  Nuclear repulsion = 8165.749458404958204

  Charge       = -1
  Multiplicity = 1
  Electrons    = 384
  Nalpha       = 192
  Nbeta        = 192

  ==> Algorithm <==

  SCF Algorithm Type is DF.
  DIIS enabled.
  MOM disabled.
  Fractional occupation disabled.
  Guess Type is SAD.
  Energy threshold   = 1.00e-08
  Density threshold  = 1.00e-08
  Integral threshold = 1.00e-12

  ==> Primary Basis <==

  Basis Set: JUN-CC-PVDZ
    Blend: JUN-CC-PVDZ
    Number of shells: 526
    Number of basis functions: 1152
    Number of Cartesian functions: 1211
    Spherical Harmonics?: true
    Max angular momentum: 2

   => Loading Basis Set <=

    Name: (JUN-CC-PVDZ AUX)
    Role: JKFIT
    Keyword: DF_BASIS_SCF
    atoms 1     entry B          line    90 file /home/gridsan/tfroembgen/.conda/envs/psi4test/share/psi4/basis/jun-cc-pvdz-jkfit.gbs 
    atoms 2-5   entry F          line   314 file /home/gridsan/tfroembgen/.conda/envs/psi4test/share/psi4/basis/jun-cc-pvdz-jkfit.gbs 
    atoms 6-59  entry C          line   146 file /home/gridsan/tfroembgen/.conda/envs/psi4test/share/psi4/basis/jun-cc-pvdz-jkfit.gbs 
    atoms 60-77 entry H          line    70 file /home/gridsan/tfroembgen/.conda/envs/psi4test/share/psi4/basis/jun-cc-pvdz-jkfit.gbs 

  ==> Integral Setup <==

  ==> DiskDFJK: Density-Fitted J/K Matrices <==

    J tasked:                  Yes
    K tasked:                  Yes
    wK tasked:                  No
    OpenMP threads:             12
    Integrals threads:          12
    Memory [MiB]:            22888
    Algorithm:                Core
    Integral Cache:           SAVE
    Schwarz Cutoff:          1E-12
    Fitting Condition:       1E-10

   => Auxiliary Basis Set <=

  Basis Set: (JUN-CC-PVDZ AUX)
    Blend: JUN-CC-PVDZ-JKFIT
    Number of shells: 1755
    Number of basis functions: 5075
    Number of Cartesian functions: 5819
    Spherical Harmonics?: true
    Max angular momentum: 3

  Minimum eigenvalue in the overlap matrix is 3.7819570685E-10.
  Reciprocal condition number of the overlap matrix is 1.5155475215E-11.
    Using canonical orthogonalization.
  Overall, 14 of 1152 possible MOs eliminated.


  ==> Pre-Iterations <==

  SCF Guess: Superposition of Atomic Densities via on-the-fly atomic UHF (no occupation information).

   -------------------------
    Irrep   Nso     Nmo    
   -------------------------
     A       1152    1138 
   -------------------------
    Total    1152    1138
   -------------------------

  ==> Iterations <==

                           Total Energy        Delta E     RMS |[F,P]|

   @DF-RHF iter SAD: -2485.24231094014340   -2.48524e+03   0.00000e+00 
   @DF-RHF iter   1: -2477.23158123722487    8.01073e+00   1.10029e-03 ADIIS/DIIS
   @DF-RHF iter   2: -2478.14932471222392   -9.17743e-01   4.71571e-04 ADIIS/DIIS
   @DF-RHF iter   3: -2478.29215338788754   -1.42829e-01   1.58899e-04 ADIIS/DIIS
   @DF-RHF iter   4: -2478.30956905181074   -1.74157e-02   7.57256e-05 DIIS
   @DF-RHF iter   5: -2478.31414594907528   -4.57690e-03   2.17805e-05 DIIS
   @DF-RHF iter   6: -2478.31454124791117   -3.95299e-04   5.90304e-06 DIIS
   @DF-RHF iter   7: -2478.31462393244146   -8.26845e-05   3.20645e-06 DIIS
   @DF-RHF iter   8: -2478.31465047223401   -2.65398e-05   1.31241e-06 DIIS
   @DF-RHF iter   9: -2478.31466081243434   -1.03402e-05   4.55650e-07 DIIS
   @DF-RHF iter  10: -2478.31466168223233   -8.69798e-07   1.86433e-07 DIIS
   @DF-RHF iter  11: -2478.31466180446887   -1.22237e-07   1.01673e-07 DIIS
   @DF-RHF iter  12: -2478.31466185237605   -4.79072e-08   6.07737e-08 DIIS
   @DF-RHF iter  13: -2478.31466186979742   -1.74214e-08   3.95694e-08 DIIS
   @DF-RHF iter  14: -2478.31466188190689   -1.21095e-08   2.89895e-08 DIIS
   @DF-RHF iter  15: -2478.31466188803279   -6.12590e-09   1.64959e-08 DIIS
   @DF-RHF iter  16: -2478.31466189016692   -2.13413e-09   7.50122e-09 DIIS
  Energy and wave function converged.


  ==> Post-Iterations <==

    Orbital Energies [Eh]
    ---------------------

    Doubly Occupied:                                                      

       1A    -26.190890     2A    -26.187758     3A    -26.139425  
       4A    -26.139379     5A    -11.195760     6A    -11.192056  
       7A    -11.168854     8A    -11.168788     9A    -11.168621  
      10A    -11.168562    11A    -11.168195    12A    -11.168185  
      13A    -11.167961    14A    -11.167952    15A    -11.167906  
      16A    -11.167892    17A    -11.167653    18A    -11.167641  
      19A    -11.167632    20A    -11.167622    21A    -11.167324  
      22A    -11.167315    23A    -11.166836    24A    -11.166822  
      25A    -11.166275    26A    -11.166271    27A    -11.166104  
      28A    -11.166101    29A    -11.165590    30A    -11.165576  
      31A    -11.162908    32A    -11.162902    33A    -11.162817  
      34A    -11.162770    35A    -11.162353    36A    -11.162345  
      37A    -11.161887    38A    -11.161887    39A    -11.161841  
      40A    -11.161606    41A    -11.161600    42A    -11.161165  
      43A    -11.161160    44A    -11.160570    45A    -11.159168  
      46A    -11.159152    47A    -11.158404    48A    -11.158387  
      49A    -11.155681    50A    -11.155659    51A    -11.155228  
      52A    -11.155205    53A    -11.150783    54A    -11.150469  
      55A    -11.147300    56A    -11.147213    57A    -11.145420  
      58A    -11.145365    59A     -7.643226    60A     -1.571107  
      61A     -1.534279    62A     -1.447544    63A     -1.422902  
      64A     -1.147427    65A     -1.125600    66A     -1.125203  
      67A     -1.097332    68A     -1.096312    69A     -1.090098  
      70A     -1.067012    71A     -1.056507    72A     -1.047653  
      73A     -1.042646    74A     -1.023179    75A     -1.022882  
      76A     -0.992124    77A     -0.989385    78A     -0.989127  
      79A     -0.977207    80A     -0.976310    81A     -0.947837  
      82A     -0.941062    83A     -0.930893    84A     -0.928818  
      85A     -0.927715    86A     -0.924266    87A     -0.898099  
      88A     -0.894319    89A     -0.875032    90A     -0.872228  
      91A     -0.815768    92A     -0.805723    93A     -0.803911  
      94A     -0.801502    95A     -0.798189    96A     -0.793971  
      97A     -0.789861    98A     -0.771972    99A     -0.750080  
     100A     -0.737990   101A     -0.736673   102A     -0.727045  
     103A     -0.725870   104A     -0.722575   105A     -0.706037  
     106A     -0.701597   107A     -0.670264   108A     -0.669888  
     109A     -0.663379   110A     -0.657339   111A     -0.644384  
     112A     -0.643804   113A     -0.642846   114A     -0.636866  
     115A     -0.635979   116A     -0.615753   117A     -0.609752  
     118A     -0.609226   119A     -0.608106   120A     -0.601269  
     121A     -0.585928   122A     -0.576573   123A     -0.576246  
     124A     -0.571600   125A     -0.566406   126A     -0.561662  
     127A     -0.556531   128A     -0.552187   129A     -0.549037  
     130A     -0.548086   131A     -0.536800   132A     -0.535729  
     133A     -0.526681   134A     -0.524015   135A     -0.521294  
     136A     -0.510601   137A     -0.509235   138A     -0.508886  
     139A     -0.506197   140A     -0.500820   141A     -0.499799  
     142A     -0.498074   143A     -0.495593   144A     -0.489371  
     145A     -0.486125   146A     -0.482833   147A     -0.479564  
     148A     -0.477668   149A     -0.476879   150A     -0.473593  
     151A     -0.471093   152A     -0.470905   153A     -0.466203  
     154A     -0.465867   155A     -0.461986   156A     -0.458901  
     157A     -0.449397   158A     -0.448866   159A     -0.446564  
     160A     -0.445460   161A     -0.438238   162A     -0.431848  
     163A     -0.431460   164A     -0.411632   165A     -0.407164  
     166A     -0.403246   167A     -0.396981   168A     -0.391977  
     169A     -0.390564   170A     -0.389356   171A     -0.385533  
     172A     -0.369545   173A     -0.357300   174A     -0.357179  
     175A     -0.350719   176A     -0.350390   177A     -0.350185  
     178A     -0.311209   179A     -0.309870   180A     -0.287514  
     181A     -0.286816   182A     -0.272638   183A     -0.259307  
     184A     -0.241680   185A     -0.236694   186A     -0.222063  
     187A     -0.208609   188A     -0.189912   189A     -0.188991  
     190A     -0.183368   191A     -0.134012   192A     -0.093487  

    Virtual:                                                              

     193A      0.100537   194A      0.106731   195A      0.111555  
     196A      0.112091   197A      0.112656   198A      0.114158  
     199A      0.114369   200A      0.120898   201A      0.125074  
     202A      0.136148   203A      0.136176   204A      0.145041  
     205A      0.150795   206A      0.150861   207A      0.155285  
     208A      0.155624   209A      0.157245   210A      0.158949  
     211A      0.163082   212A      0.163103   213A      0.163961  
     214A      0.164123   215A      0.164780   216A      0.165371  
     217A      0.170647   218A      0.172024   219A      0.172561  
     220A      0.174798   221A      0.181359   222A      0.181599  
     223A      0.183308   224A      0.187225   225A      0.188233  
     226A      0.190250   227A      0.195119   228A      0.195324  
     229A      0.197671   230A      0.199432   231A      0.201571  
     232A      0.202525   233A      0.205832   234A      0.207828  
     235A      0.210685   236A      0.212689   237A      0.218134  
     238A      0.218323   239A      0.219347   240A      0.221925  
     241A      0.224507   242A      0.226365   243A      0.226893  
     244A      0.227039   245A      0.228450   246A      0.231663  
     247A      0.239761   248A      0.246936   249A      0.247809  
     250A      0.248845   251A      0.255185   252A      0.255220  
     253A      0.256651   254A      0.257905   255A      0.258180  
     256A      0.263225   257A      0.265219   258A      0.266171  
     259A      0.267087   260A      0.268488   261A      0.270190  
     262A      0.272450   263A      0.272658   264A      0.277378  
     265A      0.277951   266A      0.278878   267A      0.279165  
     268A      0.280405   269A      0.280416   270A      0.281944  
     271A      0.282342   272A      0.283853   273A      0.285976  
     274A      0.289965   275A      0.290328   276A      0.295267  
     277A      0.295533   278A      0.297094   279A      0.297215  
     280A      0.298532   281A      0.299137   282A      0.300951  
     283A      0.301157   284A      0.302578   285A      0.303470  
     286A      0.310852   287A      0.311373   288A      0.314203  
     289A      0.314569   290A      0.314821   291A      0.317545  
     292A      0.323777   293A      0.324106   294A      0.327808  
     295A      0.327957   296A      0.328771   297A      0.329755  
     298A      0.333523   299A      0.336020   300A      0.338587  
     301A      0.339381   302A      0.339925   303A      0.346038  
     304A      0.348091   305A      0.352259   306A      0.352715  
     307A      0.354643   308A      0.358717   309A      0.359026  
     310A      0.363656   311A      0.366333   312A      0.367281  
     313A      0.369022   314A      0.369577   315A      0.370658  
     316A      0.371249   317A      0.371409   318A      0.372742  
     319A      0.377372   320A      0.377735   321A      0.378636  
     322A      0.381864   323A      0.382023   324A      0.384734  
     325A      0.385667   326A      0.387635   327A      0.388326  
     328A      0.388381   329A      0.389748   330A      0.390132  
     331A      0.394366   332A      0.394958   333A      0.395343  
     334A      0.396824   335A      0.396939   336A      0.400073  
     337A      0.404298   338A      0.406911   339A      0.406955  
     340A      0.409096   341A      0.412831   342A      0.414799  
     343A      0.415647   344A      0.416742   345A      0.419544  
     346A      0.419941   347A      0.421291   348A      0.421905  
     349A      0.424808   350A      0.427904   351A      0.429155  
     352A      0.430193   353A      0.434244   354A      0.439953  
     355A      0.441757   356A      0.447898   357A      0.449669  
     358A      0.451232   359A      0.452052   360A      0.452730  
     361A      0.457913   362A      0.458438   363A      0.462222  
     364A      0.463682   365A      0.464633   366A      0.465881  
     367A      0.466549   368A      0.467634   369A      0.468670  
     370A      0.469599   371A      0.470282   372A      0.471152  
     373A      0.472915   374A      0.478486   375A      0.478782  
     376A      0.479689   377A      0.481021   378A      0.482635  
     379A      0.482843   380A      0.483229   381A      0.485619  
     382A      0.486384   383A      0.492015   384A      0.494264  
     385A      0.494969   386A      0.499482   387A      0.500019  
     388A      0.501930   389A      0.502019   390A      0.502680  
     391A      0.504623   392A      0.508314   393A      0.508516  
     394A      0.510781   395A      0.511134   396A      0.512035  
     397A      0.516598   398A      0.517752   399A      0.518112  
     400A      0.518894   401A      0.520490   402A      0.521219  
     403A      0.524631   404A      0.529495   405A      0.530614  
     406A      0.530749   407A      0.530984   408A      0.534873  
     409A      0.534953   410A      0.535265   411A      0.535461  
     412A      0.542484   413A      0.542599   414A      0.544314  
     415A      0.545682   416A      0.546341   417A      0.548201  
     418A      0.548338   419A      0.548692   420A      0.552836  
     421A      0.554972   422A      0.557203   423A      0.559975  
     424A      0.560172   425A      0.561063   426A      0.562919  
     427A      0.563312   428A      0.566784   429A      0.571866  
     430A      0.574053   431A      0.574413   432A      0.576116  
     433A      0.577118   434A      0.578021   435A      0.579254  
     436A      0.579447   437A      0.582886   438A      0.583127  
     439A      0.590340   440A      0.590579   441A      0.593173  
     442A      0.594212   443A      0.596694   444A      0.598258  
     445A      0.600314   446A      0.606547   447A      0.607715  
     448A      0.609423   449A      0.611895   450A      0.613442  
     451A      0.615951   452A      0.618340   453A      0.622717  
     454A      0.624193   455A      0.626956   456A      0.628857  
     457A      0.629400   458A      0.632750   459A      0.633967  
     460A      0.635176   461A      0.635625   462A      0.637317  
     463A      0.638908   464A      0.642096   465A      0.645471  
     466A      0.647586   467A      0.655738   468A      0.655764  
     469A      0.658494   470A      0.666950   471A      0.668300  
     472A      0.671191   473A      0.673210   474A      0.674194  
     475A      0.679594   476A      0.679809   477A      0.685381  
     478A      0.687626   479A      0.689243   480A      0.691530  
     481A      0.698505   482A      0.705019   483A      0.706269  
     484A      0.712082   485A      0.713972   486A      0.714754  
     487A      0.716262   488A      0.730029   489A      0.737724  
     490A      0.739422   491A      0.740951   492A      0.741493  
     493A      0.747169   494A      0.754259   495A      0.756648  
     496A      0.758164   497A      0.767070   498A      0.767118  
     499A      0.768632   500A      0.779187   501A      0.794926  
     502A      0.804806   503A      0.805026   504A      0.818064  
     505A      0.820606   506A      0.830355   507A      0.832350  
     508A      0.833292   509A      0.837467   510A      0.839739  
     511A      0.845049   512A      0.846682   513A      0.847939  
     514A      0.856461   515A      0.864296   516A      0.880961  
     517A      0.884299   518A      0.887344   519A      0.895752  
     520A      0.898908   521A      0.901099   522A      0.905227  
     523A      0.907675   524A      0.908492   525A      0.909489  
     526A      0.911813   527A      0.913486   528A      0.915758  
     529A      0.915986   530A      0.916914   531A      0.921692  
     532A      0.930003   533A      0.935677   534A      0.941669  
     535A      0.942459   536A      0.949701   537A      0.954318  
     538A      0.955299   539A      0.959824   540A      0.963296  
     541A      0.963314   542A      0.967495   543A      0.974473  
     544A      0.975149   545A      0.979712   546A      0.981952  
     547A      0.982220   548A      0.984946   549A      0.990220  
     550A      0.993438   551A      0.993900   552A      0.995136  
     553A      0.996133   554A      0.997952   555A      0.999771  
     556A      1.004565   557A      1.005279   558A      1.007503  
     559A      1.007743   560A      1.009910   561A      1.010052  
     562A      1.017631   563A      1.023995   564A      1.024398  
     565A      1.024763   566A      1.025427   567A      1.027308  
     568A      1.031176   569A      1.033524   570A      1.033618  
     571A      1.034000   572A      1.036965   573A      1.044507  
     574A      1.047923   575A      1.054345   576A      1.056792  
     577A      1.058747   578A      1.059667   579A      1.063257  
     580A      1.064831   581A      1.066627   582A      1.078166  
     583A      1.078517   584A      1.079739   585A      1.080493  
     586A      1.085408   587A      1.086536   588A      1.093698  
     589A      1.095660   590A      1.099298   591A      1.100007  
     592A      1.104627   593A      1.105216   594A      1.107096  
     595A      1.118468   596A      1.120882   597A      1.123481  
     598A      1.124106   599A      1.128154   600A      1.129243  
     601A      1.129915   602A      1.130294   603A      1.132796  
     604A      1.132934   605A      1.133015   606A      1.138014  
     607A      1.141900   608A      1.142306   609A      1.143780  
     610A      1.144393   611A      1.145462   612A      1.149745  
     613A      1.155183   614A      1.158927   615A      1.160381  
     616A      1.161259   617A      1.162557   618A      1.165763  
     619A      1.168783   620A      1.169757   621A      1.172063  
     622A      1.177059   623A      1.179693   624A      1.181905  
     625A      1.186357   626A      1.186661   627A      1.187557  
     628A      1.189848   629A      1.192500   630A      1.196807  
     631A      1.198188   632A      1.201735   633A      1.205344  
     634A      1.205917   635A      1.206754   636A      1.209860  
     637A      1.213335   638A      1.217510   639A      1.219218  
     640A      1.221015   641A      1.223117   642A      1.232349  
     643A      1.236472   644A      1.239450   645A      1.240179  
     646A      1.242627   647A      1.244293   648A      1.247516  
     649A      1.247622   650A      1.250805   651A      1.254050  
     652A      1.255230   653A      1.255515   654A      1.266134  
     655A      1.267862   656A      1.274348   657A      1.274995  
     658A      1.276308   659A      1.284983   660A      1.286916  
     661A      1.290281   662A      1.297275   663A      1.306968  
     664A      1.307025   665A      1.308686   666A      1.308858  
     667A      1.311058   668A      1.315765   669A      1.317523  
     670A      1.318289   671A      1.325289   672A      1.325429  
     673A      1.326438   674A      1.329598   675A      1.333847  
     676A      1.340529   677A      1.342808   678A      1.346675  
     679A      1.351334   680A      1.351951   681A      1.353084  
     682A      1.355334   683A      1.358591   684A      1.364401  
     685A      1.364627   686A      1.367655   687A      1.380042  
     688A      1.385750   689A      1.385944   690A      1.387193  
     691A      1.388004   692A      1.395609   693A      1.396846  
     694A      1.399899   695A      1.400297   696A      1.407170  
     697A      1.411008   698A      1.412679   699A      1.414846  
     700A      1.414985   701A      1.415765   702A      1.417213  
     703A      1.420138   704A      1.421853   705A      1.425018  
     706A      1.429805   707A      1.430487   708A      1.434122  
     709A      1.444515   710A      1.445249   711A      1.446339  
     712A      1.447809   713A      1.448308   714A      1.450750  
     715A      1.458224   716A      1.461077   717A      1.464658  
     718A      1.466856   719A      1.477810   720A      1.484876  
     721A      1.485558   722A      1.489844   723A      1.491170  
     724A      1.492514   725A      1.496140   726A      1.501194  
     727A      1.503251   728A      1.506381   729A      1.514827  
     730A      1.518543   731A      1.521340   732A      1.522352  
     733A      1.523421   734A      1.526298   735A      1.526758  
     736A      1.528777   737A      1.528956   738A      1.534029  
     739A      1.534709   740A      1.537140   741A      1.538238  
     742A      1.540069   743A      1.555341   744A      1.555831  
     745A      1.559129   746A      1.565927   747A      1.598484  
     748A      1.605255   749A      1.608034   750A      1.610152  
     751A      1.613113   752A      1.622690   753A      1.644108  
     754A      1.656374   755A      1.667776   756A      1.674002  
     757A      1.692089   758A      1.692691   759A      1.697368  
     760A      1.701259   761A      1.704807   762A      1.705948  
     763A      1.713405   764A      1.716844   765A      1.718021  
     766A      1.722084   767A      1.727004   768A      1.729718  
     769A      1.732665   770A      1.733408   771A      1.736844  
     772A      1.738079   773A      1.738710   774A      1.742886  
     775A      1.752050   776A      1.753459   777A      1.755738  
     778A      1.758028   779A      1.767720   780A      1.769004  
     781A      1.770245   782A      1.771919   783A      1.775766  
     784A      1.779255   785A      1.780626   786A      1.781203  
     787A      1.785188   788A      1.789554   789A      1.789833  
     790A      1.793623   791A      1.797371   792A      1.802505  
     793A      1.802635   794A      1.805742   795A      1.810573  
     796A      1.828992   797A      1.833615   798A      1.835013  
     799A      1.835806   800A      1.844879   801A      1.847205  
     802A      1.849302   803A      1.850018   804A      1.853748  
     805A      1.869443   806A      1.872568   807A      1.885613  
     808A      1.894987   809A      1.904515   810A      1.907292  
     811A      1.908798   812A      1.917566   813A      1.921080  
     814A      1.922986   815A      1.926876   816A      1.928102  
     817A      1.935532   818A      1.937728   819A      1.938682  
     820A      1.949645   821A      1.950862   822A      1.955509  
     823A      1.956809   824A      1.958590   825A      1.962179  
     826A      1.969956   827A      1.971572   828A      1.975450  
     829A      1.985931   830A      1.986144   831A      1.990651  
     832A      1.993670   833A      1.993949   834A      2.000193  
     835A      2.003558   836A      2.006241   837A      2.007571  
     838A      2.008261   839A      2.012927   840A      2.016072  
     841A      2.018573   842A      2.021653   843A      2.025903  
     844A      2.026525   845A      2.030357   846A      2.030801  
     847A      2.033812   848A      2.034269   849A      2.042898  
     850A      2.049329   851A      2.050655   852A      2.054044  
     853A      2.065369   854A      2.066622   855A      2.068960  
     856A      2.075267   857A      2.075312   858A      2.079303  
     859A      2.083573   860A      2.087956   861A      2.090437  
     862A      2.090605   863A      2.093304   864A      2.097949  
     865A      2.110217   866A      2.113149   867A      2.114460  
     868A      2.120809   869A      2.123622   870A      2.126594  
     871A      2.126751   872A      2.128521   873A      2.131056  
     874A      2.133710   875A      2.135352   876A      2.140058  
     877A      2.145231   878A      2.146513   879A      2.152102  
     880A      2.152224   881A      2.153384   882A      2.155847  
     883A      2.163498   884A      2.164895   885A      2.169763  
     886A      2.173202   887A      2.174249   888A      2.183313  
     889A      2.184252   890A      2.185191   891A      2.187026  
     892A      2.188261   893A      2.189910   894A      2.192914  
     895A      2.193178   896A      2.197104   897A      2.198362  
     898A      2.198607   899A      2.202041   900A      2.203428  
     901A      2.203659   902A      2.205228   903A      2.208447  
     904A      2.208948   905A      2.209296   906A      2.213627  
     907A      2.214710   908A      2.217647   909A      2.221190  
     910A      2.224565   911A      2.225074   912A      2.226238  
     913A      2.229223   914A      2.231258   915A      2.233635  
     916A      2.234503   917A      2.247316   918A      2.248824  
     919A      2.255058   920A      2.257310   921A      2.266848  
     922A      2.269328   923A      2.269860   924A      2.270614  
     925A      2.275627   926A      2.279684   927A      2.282464  
     928A      2.286837   929A      2.292053   930A      2.297176  
     931A      2.299814   932A      2.307517   933A      2.309033  
     934A      2.311599   935A      2.312822   936A      2.318993  
     937A      2.321738   938A      2.326661   939A      2.328104  
     940A      2.328606   941A      2.333595   942A      2.334526  
     943A      2.341303   944A      2.346344   945A      2.347242  
     946A      2.356869   947A      2.357826   948A      2.360268  
     949A      2.360292   950A      2.361799   951A      2.365752  
     952A      2.366393   953A      2.373022   954A      2.386776  
     955A      2.390482   956A      2.398649   957A      2.402011  
     958A      2.404074   959A      2.410577   960A      2.425572  
     961A      2.430300   962A      2.433148   963A      2.439485  
     964A      2.447062   965A      2.449025   966A      2.451684  
     967A      2.453173   968A      2.458146   969A      2.465422  
     970A      2.466617   971A      2.490108   972A      2.502865  
     973A      2.506940   974A      2.511082   975A      2.513366  
     976A      2.517198   977A      2.524786   978A      2.532400  
     979A      2.541522   980A      2.544889   981A      2.567671  
     982A      2.567877   983A      2.571296   984A      2.576599  
     985A      2.577142   986A      2.579724   987A      2.586080  
     988A      2.610553   989A      2.614408   990A      2.624982  
     991A      2.629612   992A      2.637534   993A      2.640037  
     994A      2.642890   995A      2.643021   996A      2.645347  
     997A      2.646134   998A      2.652105   999A      2.658445  
    1000A      2.662946  1001A      2.664802  1002A      2.666900  
    1003A      2.669931  1004A      2.673907  1005A      2.678605  
    1006A      2.680685  1007A      2.686240  1008A      2.686828  
    1009A      2.698405  1010A      2.718865  1011A      2.720013  
    1012A      2.726052  1013A      2.726606  1014A      2.730509  
    1015A      2.733229  1016A      2.737947  1017A      2.743364  
    1018A      2.745476  1019A      2.760293  1020A      2.762690  
    1021A      2.775483  1022A      2.779816  1023A      2.784846  
    1024A      2.787352  1025A      2.795358  1026A      2.803557  
    1027A      2.805499  1028A      2.806566  1029A      2.813406  
    1030A      2.820885  1031A      2.828085  1032A      2.829528  
    1033A      2.843801  1034A      2.845129  1035A      2.854626  
    1036A      2.868728  1037A      2.876056  1038A      2.890071  
    1039A      2.890213  1040A      2.919524  1041A      2.924376  
    1042A      2.927951  1043A      2.948270  1044A      2.949554  
    1045A      2.951410  1046A      2.952041  1047A      2.962900  
    1048A      2.976869  1049A      2.990251  1050A      3.005762  
    1051A      3.008013  1052A      3.023084  1053A      3.024546  
    1054A      3.031635  1055A      3.042185  1056A      3.052449  
    1057A      3.053981  1058A      3.091236  1059A      3.102974  
    1060A      3.138284  1061A      3.144669  1062A      3.154621  
    1063A      3.158032  1064A      3.161098  1065A      3.173363  
    1066A      3.181239  1067A      3.209454  1068A      3.209722  
    1069A      3.224731  1070A      3.228133  1071A      3.234245  
    1072A      3.235909  1073A      3.237010  1074A      3.238182  
    1075A      3.240826  1076A      3.242077  1077A      3.245432  
    1078A      3.251351  1079A      3.253266  1080A      3.256465  
    1081A      3.277155  1082A      3.280141  1083A      3.298856  
    1084A      3.319399  1085A      3.337083  1086A      3.368917  
    1087A      3.370293  1088A      3.379044  1089A      3.387753  
    1090A      3.392541  1091A      3.454353  1092A      3.515313  
    1093A      3.515669  1094A      3.536973  1095A      3.581640  
    1096A      3.584177  1097A      3.668494  1098A      3.682662  
    1099A      3.688948  1100A      3.708182  1101A      3.722723  
    1102A      3.736152  1103A      3.746820  1104A      3.762114  
    1105A      3.786278  1106A      3.875607  1107A      3.911102  
    1108A      3.941924  1109A      3.961183  1110A      3.962963  
    1111A      4.002515  1112A      4.002621  1113A      4.058906  
    1114A      4.074045  1115A      4.084810  1116A      4.102104  
    1117A      4.140146  1118A      4.145573  1119A      4.178061  
    1120A      4.193668  1121A      4.206543  1122A      4.218480  
    1123A      4.238826  1124A      4.269401  1125A      4.326991  
    1126A      4.359142  1127A      4.387587  1128A      4.394320  
    1129A      4.429933  1130A      4.489443  1131A      4.532945  
    1132A      4.601930  1133A      4.616751  1134A      4.624820  
    1135A      4.673148  1136A      4.710968  1137A      4.724301  
    1138A      4.826595  

    Final Occupation by Irrep:
              A 
    DOCC [   192 ]
    NA   [   192 ]
    NB   [   192 ]

  @DF-RHF Final Energy: -2478.31466189016692

   => Energetics <=

    Nuclear Repulsion Energy =           8165.7494584049582045
    One-Electron Energy =              -19689.1165305556496605
    Two-Electron Energy =                9045.0524102605249936
    Total Energy =                      -2478.3146618901664624

Computation Completed


Properties will be evaluated at   0.000000,   0.000000,   0.000000 [a0]

Properties computed using the SCF density matrix


 Multipole Moments:

 ------------------------------------------------------------------------------------
     Multipole            Electronic (a.u.)      Nuclear  (a.u.)        Total (a.u.)
 ------------------------------------------------------------------------------------

 L = 1.  Multiply by 2.5417464519 to convert [e a0] to [Debye]
 Dipole X            :         -0.0010448           -0.0000160           -0.0010608
 Dipole Y            :         -0.0207128           -0.0001716           -0.0208844
 Dipole Z            :         13.1310992          -14.7126259           -1.5815267
 Magnitude           :                                                    1.5816649

 ------------------------------------------------------------------------------------

*** tstop() called on d-16-5-1 at Mon Jan 22 11:04:11 2024
Module time:
	user time   =    4463.87 seconds =      74.40 minutes
	system time =     149.20 seconds =       2.49 minutes
	total time  =        482 seconds =       8.03 minutes
Total time:
	user time   =    4463.87 seconds =      74.40 minutes
	system time =     149.20 seconds =       2.49 minutes
	total time  =        482 seconds =       8.03 minutes

  //>>>>>>>>>>>>>>>>>>>>>>>>>>>>>>>>>>>//
  //            Monomer A HF           //
  //<<<<<<<<<<<<<<<<<<<<<<<<<<<<<<<<<<<//

   => Libint2 <=

    Primary   basis highest AM E, G, H:  7, 7, 4
    Auxiliary basis highest AM E, G, H:  7, 7, 5
    Onebody   basis highest AM E, G, H:  7, 7, 5
    Solid Harmonics ordering:            gaussian

*** tstart() called on d-16-5-1
*** at Mon Jan 22 11:04:11 2024

   => Loading Basis Set <=

    Name: JUN-CC-PVDZ
    Role: ORBITAL
    Keyword: BASIS
    atoms 1     entry B          line   130 file /home/gridsan/tfroembgen/.conda/envs/psi4test/share/psi4/basis/jun-cc-pvdz.gbs 
    atoms 2-5   entry F          line   266 file /home/gridsan/tfroembgen/.conda/envs/psi4test/share/psi4/basis/jun-cc-pvdz.gbs 
    atoms 6-59  entry C          line   164 file /home/gridsan/tfroembgen/.conda/envs/psi4test/share/psi4/basis/jun-cc-pvdz.gbs 
    atoms 60-77 entry H          line    36 file /home/gridsan/tfroembgen/.conda/envs/psi4test/share/psi4/basis/jun-cc-pvdz.gbs 


         ---------------------------------------------------------
                                   SCF
               by Justin Turney, Rob Parrish, Andy Simmonett
                          and Daniel G. A. Smith
                              RHF Reference
                       12 Threads,  30517 MiB Core
         ---------------------------------------------------------

  ==> Geometry <==

    Molecular point group: c1
    Full point group: C1

    Geometry (in Angstrom), charge = -1, multiplicity = 1:

       Center              X                  Y                   Z               Mass       
    ------------   -----------------  -----------------  -----------------  -----------------
         B           -0.000046449334     0.000336519434     2.122749063270    11.009305360000
         F           -1.153597449334     0.000047519434     2.938396063270    18.998403162730
         F            1.153660550666    -0.000581480566     2.938396063270    18.998403162730
         F           -0.000019449334    -1.153637480566     1.307115063270    18.998403162730
         F           -0.000019449334     1.153977519434     1.307115063270    18.998403162730
      Gh(C)           1.225311925931     0.707538180353    -0.271107309447    12.000000000000
      Gh(C)           1.225323886559    -0.707539003137    -0.283438119017    12.000000000000
      Gh(C)          -0.000006123424     1.414965805524    -0.283971742538    12.000000000000
      Gh(C)           2.456448784457     1.418327778612    -0.268220452047    12.000000000000
      Gh(C)           0.000010857787    -1.414976607201    -0.273772185213    12.000000000000
      Gh(C)          -1.225300918401     0.707545265418    -0.268855789124    12.000000000000
      Gh(C)           2.456437785828    -1.418323412447    -0.285683275874    12.000000000000
      Gh(C)          -0.000001302470     2.836800922715    -0.286375292672    12.000000000000
      Gh(C)           3.681826727978     0.709317847435    -0.285334486076    12.000000000000
      Gh(C)           2.455120079373     2.834223552923    -0.285437043037    12.000000000000
      Gh(C)           3.681821135726    -0.709333947995    -0.269262002058    12.000000000000
      Gh(C)          -1.225313568180    -0.707527624110    -0.282365357590    12.000000000000
      Gh(C)           1.226699611710     3.543469375428    -0.269077970127    12.000000000000
      Gh(C)           0.000004815365    -2.836782247802    -0.268924017592    12.000000000000
      Gh(C)          -2.456436002341     1.418316809719    -0.268820393278    12.000000000000
      Gh(C)           2.455123448287    -2.834230137155    -0.269413910425    12.000000000000
      Gh(C)          -1.226714334082     3.543468955184    -0.268974636908    12.000000000000
      Gh(C)           4.914517325709     1.427172763923    -0.278853803046    12.000000000000
      Gh(C)           3.693150221984     3.542795183979    -0.278804003410    12.000000000000
      Gh(C)          -2.456437569560    -1.418313389406    -0.285708313999    12.000000000000
      Gh(C)           1.226704872451    -3.543474350473    -0.285048100877    12.000000000000
      Gh(C)          -2.455125368000     2.834216554068    -0.285430666690    12.000000000000
      Gh(C)           4.914524411290    -1.427187018510    -0.275881060312    12.000000000000
      Gh(C)           1.221424644206     4.970133956694    -0.275742626052    12.000000000000
      Gh(C)           4.893008259828     2.825187891460    -0.277637134688    12.000000000000
      Gh(C)          -1.226696977981    -3.543471105643    -0.284780896467    12.000000000000
      Gh(C)          -3.681818946018     0.709324858166    -0.285321805596    12.000000000000
      Gh(C)           3.693147131658    -3.542801449957    -0.275763169751    12.000000000000
      Gh(C)          -1.221432221486     4.970128189296    -0.275559130680    12.000000000000
      Gh(C)           6.134771003434     0.680547838539    -0.278084028497    12.000000000000
      Gh(C)           3.656788911118     4.972953135001    -0.277895365628    12.000000000000
      Gh(C)          -2.455126877226    -2.834215201627    -0.269658268223    12.000000000000
      Gh(C)          -3.681819148553    -0.709325812035    -0.269144380479    12.000000000000
      Gh(C)           4.893012648421    -2.825200214198    -0.277025982792    12.000000000000
      Gh(C)          -0.000001042605     5.650447257466    -0.276790439386    12.000000000000
      Gh(C)           6.134775142840    -0.680554962641    -0.276818707981    12.000000000000
      Gh(C)           2.478131513363     5.653576642765    -0.276606585978    12.000000000000
      Gh(C)           1.221422435245    -4.970127163499    -0.278542123075    12.000000000000
      Gh(C)          -3.693162353457     3.542796845626    -0.278638495951    12.000000000000
      Gh(C)          -1.221428490437    -4.970118412162    -0.278654884908    12.000000000000
      Gh(C)          -4.914521777434     1.427175338429    -0.278776858039    12.000000000000
      Gh(C)           3.656787050187    -4.972955334806    -0.276444865094    12.000000000000
      Gh(C)          -2.478138499598     5.653574313962    -0.276322060969    12.000000000000
      Gh(C)          -3.693141708056    -3.542790327545    -0.275879295907    12.000000000000
      Gh(C)          -4.914512452545    -1.427181108594    -0.275846363138    12.000000000000
      Gh(C)          -0.000005978418    -5.650438395580    -0.277185943508    12.000000000000
      Gh(C)          -4.893020453593     2.825188490353    -0.277647216548    12.000000000000
      Gh(C)           2.478126023806    -5.653573652455    -0.277535465886    12.000000000000
      Gh(C)          -3.656798679750     4.972956073475    -0.277718685253    12.000000000000
      Gh(C)          -4.892999448349    -2.825191875626    -0.277180018490    12.000000000000
      Gh(C)          -2.478128467575    -5.653566278573    -0.277810653533    12.000000000000
      Gh(C)          -6.134770472823     0.680548657690    -0.278109580199    12.000000000000
      Gh(C)          -3.656788802681    -4.972944131537    -0.276659152910    12.000000000000
      Gh(C)          -6.134765012405    -0.680554024048    -0.276839183776    12.000000000000
      Gh(H)           5.835288526324     3.369275786388    -0.273277809025     1.007825032230
      Gh(H)           7.073859203255     1.228217140333    -0.277622385103     1.007825032230
      Gh(H)           4.600663294682     5.512380693887    -0.277390164876     1.007825032230
      Gh(H)           5.835283417813    -3.369306165295    -0.281480450107     1.007825032230
      Gh(H)          -0.000012120798     6.738530565570    -0.281139684394     1.007825032230
      Gh(H)           7.073861202338    -1.228227051310    -0.277327446075     1.007825032230
      Gh(H)           2.473313762307     6.740684182828    -0.277073306908     1.007825032230
      Gh(H)           4.600668521889    -5.512376237742    -0.276854862262     1.007825032230
      Gh(H)          -2.473318650030     6.740681611040    -0.276771960283     1.007825032230
      Gh(H)          -0.000010237720    -6.738528285018    -0.272656258523     1.007825032230
      Gh(H)          -5.835301883836     3.369270841730    -0.273141786877     1.007825032230
      Gh(H)           2.473307954339    -6.740685482995    -0.276965135461     1.007825032230
      Gh(H)          -4.600674810700     5.512377918037    -0.277224836552     1.007825032230
      Gh(H)          -5.835279476327    -3.369289072346    -0.281759755988     1.007825032230
      Gh(H)          -2.473300316932    -6.740679186706    -0.277414452005     1.007825032230
      Gh(H)          -7.073857736260     1.228220364274    -0.277706376584     1.007825032230
      Gh(H)          -4.600673755577    -5.512362778353    -0.277027170285     1.007825032230
      Gh(H)          -7.073856903901    -1.228220740543    -0.277422302542     1.007825032230

  Running in c1 symmetry.

  Rotational constants: A =      0.00207  B =      0.00207  C =      0.00110 [cm^-1]
  Rotational constants: A =     62.04580  B =     62.03661  C =     33.02250 [MHz]
  Nuclear repulsion =  178.879482610381302

  Charge       = -1
  Multiplicity = 1
  Electrons    = 42
  Nalpha       = 21
  Nbeta        = 21

  ==> Algorithm <==

  SCF Algorithm Type is DF.
  DIIS enabled.
  MOM disabled.
  Fractional occupation disabled.
  Guess Type is SAD.
  Energy threshold   = 1.00e-08
  Density threshold  = 1.00e-08
  Integral threshold = 1.00e-12

  ==> Primary Basis <==

  Basis Set: JUN-CC-PVDZ
    Blend: JUN-CC-PVDZ
    Number of shells: 526
    Number of basis functions: 1152
    Number of Cartesian functions: 1211
    Spherical Harmonics?: true
    Max angular momentum: 2

   => Loading Basis Set <=

    Name: (JUN-CC-PVDZ AUX)
    Role: JKFIT
    Keyword: DF_BASIS_SCF
    atoms 1     entry B          line    90 file /home/gridsan/tfroembgen/.conda/envs/psi4test/share/psi4/basis/jun-cc-pvdz-jkfit.gbs 
    atoms 2-5   entry F          line   314 file /home/gridsan/tfroembgen/.conda/envs/psi4test/share/psi4/basis/jun-cc-pvdz-jkfit.gbs 
    atoms 6-59  entry C          line   146 file /home/gridsan/tfroembgen/.conda/envs/psi4test/share/psi4/basis/jun-cc-pvdz-jkfit.gbs 
    atoms 60-77 entry H          line    70 file /home/gridsan/tfroembgen/.conda/envs/psi4test/share/psi4/basis/jun-cc-pvdz-jkfit.gbs 

  ==> Integral Setup <==

  ==> DiskDFJK: Density-Fitted J/K Matrices <==

    J tasked:                  Yes
    K tasked:                  Yes
    wK tasked:                  No
    OpenMP threads:             12
    Integrals threads:          12
    Memory [MiB]:            22888
    Algorithm:                Core
    Integral Cache:           LOAD
    Schwarz Cutoff:          1E-12
    Fitting Condition:       1E-10

   => Auxiliary Basis Set <=

  Basis Set: (JUN-CC-PVDZ AUX)
    Blend: JUN-CC-PVDZ-JKFIT
    Number of shells: 1755
    Number of basis functions: 5075
    Number of Cartesian functions: 5819
    Spherical Harmonics?: true
    Max angular momentum: 3

  Minimum eigenvalue in the overlap matrix is 3.7819570685E-10.
  Reciprocal condition number of the overlap matrix is 1.5155475215E-11.
    Using canonical orthogonalization.
  Overall, 14 of 1152 possible MOs eliminated.


  ==> Pre-Iterations <==

  SCF Guess: Superposition of Atomic Densities via on-the-fly atomic UHF (no occupation information).

   -------------------------
    Irrep   Nso     Nmo    
   -------------------------
     A       1152    1138 
   -------------------------
    Total    1152    1138
   -------------------------

  ==> Iterations <==

                           Total Energy        Delta E     RMS |[F,P]|

   @DF-RHF iter SAD:  -421.23047846531750   -4.21230e+02   0.00000e+00 
   @DF-RHF iter   1:  -422.65639454689284   -1.42592e+00   5.31181e-04 ADIIS/DIIS
   @DF-RHF iter   2:  -422.73928337375071   -8.28888e-02   3.24342e-04 ADIIS/DIIS
   @DF-RHF iter   3:  -422.77745616445446   -3.81728e-02   1.76199e-05 DIIS
   @DF-RHF iter   4:  -422.77781923145437   -3.63067e-04   2.89402e-06 DIIS
   @DF-RHF iter   5:  -422.77782826053567   -9.02908e-06   7.87913e-07 DIIS
   @DF-RHF iter   6:  -422.77782894866618   -6.88131e-07   1.90860e-07 DIIS
   @DF-RHF iter   7:  -422.77782897749557   -2.88294e-08   7.23690e-08 DIIS
   @DF-RHF iter   8:  -422.77782897993040   -2.43483e-09   8.12965e-09 DIIS
  Energy and wave function converged.


  ==> Post-Iterations <==

    Orbital Energies [Eh]
    ---------------------

    Doubly Occupied:                                                      

       1A    -26.068025     2A    -26.067808     3A    -26.066364  
       4A    -26.066327     5A     -7.536488     6A     -1.409456  
       7A     -1.350205     8A     -1.349976     9A     -1.349710  
      10A     -0.600808    11A     -0.527180    12A     -0.527062  
      13A     -0.526943    14A     -0.445962    15A     -0.445892  
      16A     -0.407694    17A     -0.407399    18A     -0.407354  
      19A     -0.383895    20A     -0.383890    21A     -0.383736  

    Virtual:                                                              

      22A      0.094846    23A      0.095747    24A      0.095986  
      25A      0.101820    26A      0.101826    27A      0.112704  
      28A      0.113413    29A      0.128668    30A      0.128676  
      31A      0.133399    32A      0.141076    33A      0.141918  
      34A      0.146409    35A      0.146435    36A      0.148383  
      37A      0.151783    38A      0.152073    39A      0.155533  
      40A      0.155555    41A      0.164747    42A      0.164796  
      43A      0.165851    44A      0.167547    45A      0.169641  
      46A      0.174763    47A      0.175907    48A      0.181206  
      49A      0.182635    50A      0.184128    51A      0.185716  
      52A      0.185725    53A      0.192573    54A      0.192616  
      55A      0.193579    56A      0.193724    57A      0.198908  
      58A      0.199706    59A      0.203078    60A      0.205883  
      61A      0.205941    62A      0.208000    63A      0.208062  
      64A      0.211554    65A      0.211880    66A      0.216675  
      67A      0.216852    68A      0.218041    69A      0.221581  
      70A      0.222004    71A      0.223162    72A      0.226154  
      73A      0.226235    74A      0.228109    75A      0.234010  
      76A      0.237385    77A      0.238021    78A      0.238211  
      79A      0.242905    80A      0.243011    81A      0.244842  
      82A      0.245043    83A      0.245457    84A      0.248652  
      85A      0.248959    86A      0.249141    87A      0.255736  
      88A      0.259183    89A      0.261259    90A      0.264117  
      91A      0.264276    92A      0.265004    93A      0.268028  
      94A      0.272684    95A      0.272724    96A      0.274439  
      97A      0.279168    98A      0.283896    99A      0.284101  
     100A      0.285639   101A      0.285927   102A      0.286572  
     103A      0.286679   104A      0.287994   105A      0.288080  
     106A      0.291680   107A      0.291841   108A      0.295141  
     109A      0.297431   110A      0.304267   111A      0.304299  
     112A      0.304442   113A      0.308627   114A      0.309998  
     115A      0.314219   116A      0.317008   117A      0.317289  
     118A      0.317962   119A      0.320607   120A      0.321917  
     121A      0.324161   122A      0.324930   123A      0.329974  
     124A      0.330142   125A      0.332214   126A      0.333437  
     127A      0.333575   128A      0.336369   129A      0.337644  
     130A      0.344702   131A      0.345812   132A      0.347377  
     133A      0.347463   134A      0.349854   135A      0.351650  
     136A      0.352337   137A      0.353985   138A      0.356845  
     139A      0.358810   140A      0.359160   141A      0.360933  
     142A      0.362348   143A      0.362490   144A      0.365059  
     145A      0.365725   146A      0.370214   147A      0.373444  
     148A      0.380903   149A      0.388369   150A      0.390330  
     151A      0.390425   152A      0.392090   153A      0.393649  
     154A      0.395397   155A      0.397477   156A      0.399178  
     157A      0.401235   158A      0.407061   159A      0.407160  
     160A      0.407725   161A      0.413229   162A      0.414981  
     163A      0.416918   164A      0.417509   165A      0.419388  
     166A      0.420886   167A      0.422579   168A      0.429130  
     169A      0.436000   170A      0.436368   171A      0.436948  
     172A      0.438876   173A      0.441150   174A      0.443953  
     175A      0.446170   176A      0.446624   177A      0.448478  
     178A      0.449383   179A      0.451427   180A      0.452792  
     181A      0.453108   182A      0.453158   183A      0.454880  
     184A      0.461578   185A      0.461938   186A      0.463764  
     187A      0.464372   188A      0.465722   189A      0.469937  
     190A      0.470472   191A      0.472530   192A      0.474215  
     193A      0.480826   194A      0.483022   195A      0.484097  
     196A      0.487386   197A      0.489740   198A      0.490403  
     199A      0.491732   200A      0.495652   201A      0.497537  
     202A      0.499642   203A      0.502994   204A      0.503551  
     205A      0.508438   206A      0.509471   207A      0.513923  
     208A      0.516866   209A      0.517088   210A      0.518387  
     211A      0.520297   212A      0.521372   213A      0.524059  
     214A      0.524770   215A      0.524872   216A      0.525622  
     217A      0.525674   218A      0.528206   219A      0.529263  
     220A      0.531351   221A      0.532763   222A      0.534945  
     223A      0.535452   224A      0.536221   225A      0.537051  
     226A      0.539591   227A      0.546795   228A      0.547541  
     229A      0.553338   230A      0.558254   231A      0.560071  
     232A      0.564471   233A      0.564909   234A      0.568031  
     235A      0.568709   236A      0.569097   237A      0.571048  
     238A      0.571513   239A      0.572802   240A      0.574571  
     241A      0.576105   242A      0.583398   243A      0.583598  
     244A      0.584471   245A      0.587499   246A      0.590200  
     247A      0.594905   248A      0.595272   249A      0.599362  
     250A      0.602588   251A      0.603202   252A      0.604697  
     253A      0.605623   254A      0.606240   255A      0.610758  
     256A      0.610960   257A      0.613679   258A      0.614399  
     259A      0.615318   260A      0.615446   261A      0.617610  
     262A      0.622609   263A      0.623118   264A      0.626014  
     265A      0.630764   266A      0.639896   267A      0.641175  
     268A      0.643704   269A      0.646451   270A      0.651864  
     271A      0.652936   272A      0.654231   273A      0.655506  
     274A      0.656897   275A      0.658380   276A      0.663182  
     277A      0.663216   278A      0.664429   279A      0.667482  
     280A      0.667780   281A      0.668702   282A      0.677641  
     283A      0.679406   284A      0.682472   285A      0.686806  
     286A      0.688421   287A      0.689190   288A      0.691241  
     289A      0.692487   290A      0.692594   291A      0.696493  
     292A      0.698605   293A      0.699516   294A      0.701877  
     295A      0.703755   296A      0.704172   297A      0.704938  
     298A      0.711458   299A      0.719054   300A      0.725083  
     301A      0.726082   302A      0.729333   303A      0.729769  
     304A      0.731440   305A      0.735068   306A      0.738448  
     307A      0.739531   308A      0.739650   309A      0.748842  
     310A      0.748936   311A      0.751170   312A      0.752278  
     313A      0.753448   314A      0.756230   315A      0.762009  
     316A      0.763771   317A      0.770412   318A      0.770475  
     319A      0.771903   320A      0.774254   321A      0.778823  
     322A      0.781037   323A      0.781515   324A      0.788369  
     325A      0.790212   326A      0.793257   327A      0.798605  
     328A      0.799658   329A      0.801344   330A      0.803344  
     331A      0.808907   332A      0.810219   333A      0.814077  
     334A      0.818834   335A      0.822425   336A      0.822817  
     337A      0.824560   338A      0.829799   339A      0.832491  
     340A      0.836837   341A      0.841013   342A      0.841121  
     343A      0.844067   344A      0.848620   345A      0.850063  
     346A      0.851888   347A      0.855054   348A      0.856732  
     349A      0.862175   350A      0.864056   351A      0.865262  
     352A      0.867670   353A      0.868506   354A      0.877708  
     355A      0.878491   356A      0.881053   357A      0.883154  
     358A      0.885911   359A      0.886822   360A      0.888988  
     361A      0.892048   362A      0.894903   363A      0.895309  
     364A      0.896777   365A      0.897882   366A      0.900007  
     367A      0.901351   368A      0.902219   369A      0.906688  
     370A      0.912316   371A      0.916634   372A      0.918864  
     373A      0.926091   374A      0.929720   375A      0.931382  
     376A      0.934834   377A      0.938390   378A      0.946549  
     379A      0.948589   380A      0.966287   381A      0.966351  
     382A      0.973281   383A      0.977553   384A      0.978622  
     385A      0.980476   386A      0.982361   387A      0.986510  
     388A      0.994150   389A      0.996060   390A      0.997439  
     391A      0.998782   392A      0.999194   393A      1.010186  
     394A      1.027303   395A      1.035448   396A      1.039303  
     397A      1.040588   398A      1.051656   399A      1.051894  
     400A      1.059335   401A      1.059669   402A      1.068845  
     403A      1.070281   404A      1.075207   405A      1.077994  
     406A      1.080181   407A      1.082018   408A      1.083463  
     409A      1.102385   410A      1.116812   411A      1.116861  
     412A      1.141213   413A      1.150088   414A      1.151854  
     415A      1.160614   416A      1.160739   417A      1.166237  
     418A      1.171323   419A      1.176042   420A      1.177494  
     421A      1.185909   422A      1.191882   423A      1.193026  
     424A      1.203510   425A      1.206861   426A      1.217921  
     427A      1.220071   428A      1.253828   429A      1.265444  
     430A      1.266866   431A      1.270404   432A      1.271596  
     433A      1.279886   434A      1.283937   435A      1.290875  
     436A      1.300906   437A      1.304273   438A      1.323999  
     439A      1.324618   440A      1.329944   441A      1.347617  
     442A      1.366860   443A      1.392520   444A      1.401434  
     445A      1.406806   446A      1.408533   447A      1.411811  
     448A      1.414520   449A      1.418440   450A      1.422970  
     451A      1.423683   452A      1.434482   453A      1.439990  
     454A      1.459010   455A      1.464649   456A      1.481346  
     457A      1.483603   458A      1.539972   459A      1.568314  
     460A      1.569555   461A      1.578677   462A      1.583574  
     463A      1.584239   464A      1.589460   465A      1.600161  
     466A      1.601763   467A      1.630904   468A      1.659510  
     469A      1.670366   470A      1.671094   471A      1.679867  
     472A      1.685864   473A      1.690662   474A      1.695912  
     475A      1.707161   476A      1.712042   477A      1.713260  
     478A      1.746384   479A      1.749837   480A      1.755292  
     481A      1.772981   482A      1.775124   483A      1.783444  
     484A      1.790550   485A      1.792216   486A      1.801524  
     487A      1.811333   488A      1.814776   489A      1.824011  
     490A      1.831220   491A      1.843078   492A      1.845210  
     493A      1.846997   494A      1.849007   495A      1.850613  
     496A      1.854272   497A      1.856366   498A      1.857590  
     499A      1.869788   500A      1.878202   501A      1.884602  
     502A      1.887979   503A      1.889873   504A      1.891699  
     505A      1.898532   506A      1.904294   507A      1.906987  
     508A      1.922034   509A      1.922816   510A      1.927017  
     511A      1.928097   512A      1.929495   513A      1.934002  
     514A      1.935035   515A      1.937393   516A      1.940031  
     517A      1.942947   518A      1.944039   519A      1.944490  
     520A      1.948913   521A      1.956459   522A      1.959591  
     523A      1.963415   524A      1.963965   525A      1.972884  
     526A      1.982144   527A      1.984877   528A      1.988168  
     529A      1.990702   530A      1.992865   531A      1.995493  
     532A      1.997854   533A      2.002911   534A      2.005435  
     535A      2.010541   536A      2.018966   537A      2.019518  
     538A      2.020988   539A      2.024846   540A      2.025576  
     541A      2.027451   542A      2.028311   543A      2.034431  
     544A      2.038380   545A      2.044988   546A      2.046952  
     547A      2.051656   548A      2.053348   549A      2.056849  
     550A      2.059560   551A      2.064506   552A      2.070268  
     553A      2.072589   554A      2.073124   555A      2.079975  
     556A      2.080380   557A      2.086147   558A      2.089682  
     559A      2.094652   560A      2.095778   561A      2.096560  
     562A      2.096782   563A      2.102153   564A      2.104878  
     565A      2.105818   566A      2.115258   567A      2.119485  
     568A      2.131772   569A      2.132953   570A      2.140611  
     571A      2.147010   572A      2.150198   573A      2.153918  
     574A      2.171833   575A      2.175624   576A      2.177629  
     577A      2.180412   578A      2.188581   579A      2.189530  
     580A      2.192362   581A      2.193917   582A      2.196254  
     583A      2.202382   584A      2.202893   585A      2.212063  
     586A      2.213179   587A      2.216790   588A      2.220081  
     589A      2.224122   590A      2.225950   591A      2.231417  
     592A      2.232767   593A      2.235337   594A      2.238097  
     595A      2.238609   596A      2.241361   597A      2.241745  
     598A      2.242413   599A      2.244025   600A      2.245533  
     601A      2.247124   602A      2.248629   603A      2.250834  
     604A      2.252340   605A      2.253908   606A      2.255058  
     607A      2.255799   608A      2.255890   609A      2.258021  
     610A      2.260074   611A      2.260531   612A      2.261742  
     613A      2.270008   614A      2.270324   615A      2.272961  
     616A      2.276274   617A      2.277101   618A      2.277244  
     619A      2.280566   620A      2.281475   621A      2.282386  
     622A      2.289002   623A      2.293136   624A      2.294701  
     625A      2.296899   626A      2.299443   627A      2.303257  
     628A      2.303724   629A      2.304959   630A      2.326995  
     631A      2.329014   632A      2.330352   633A      2.330459  
     634A      2.333670   635A      2.342330   636A      2.344990  
     637A      2.347353   638A      2.348842   639A      2.353208  
     640A      2.358770   641A      2.363098   642A      2.363349  
     643A      2.367042   644A      2.371317   645A      2.372857  
     646A      2.374429   647A      2.380353   648A      2.380734  
     649A      2.384816   650A      2.386216   651A      2.389494  
     652A      2.394093   653A      2.394471   654A      2.400389  
     655A      2.401481   656A      2.402206   657A      2.408107  
     658A      2.415040   659A      2.416781   660A      2.417629  
     661A      2.421195   662A      2.430351   663A      2.433910  
     664A      2.434847   665A      2.437851   666A      2.439947  
     667A      2.452944   668A      2.459405   669A      2.462113  
     670A      2.465597   671A      2.467173   672A      2.470025  
     673A      2.471441   674A      2.473815   675A      2.474926  
     676A      2.476380   677A      2.478704   678A      2.480476  
     679A      2.480871   680A      2.482286   681A      2.483252  
     682A      2.487587   683A      2.497768   684A      2.504228  
     685A      2.505087   686A      2.505608   687A      2.510237  
     688A      2.513732   689A      2.513842   690A      2.524212  
     691A      2.526558   692A      2.527689   693A      2.528401  
     694A      2.545376   695A      2.545981   696A      2.547175  
     697A      2.552503   698A      2.552751   699A      2.563728  
     700A      2.568778   701A      2.572694   702A      2.573318  
     703A      2.575033   704A      2.575593   705A      2.576993  
     706A      2.585055   707A      2.593420   708A      2.593800  
     709A      2.594744   710A      2.594824   711A      2.603011  
     712A      2.605577   713A      2.609579   714A      2.613266  
     715A      2.613361   716A      2.625658   717A      2.635967  
     718A      2.642838   719A      2.643739   720A      2.646505  
     721A      2.648042   722A      2.652913   723A      2.656742  
     724A      2.659552   725A      2.660197   726A      2.665488  
     727A      2.671653   728A      2.674032   729A      2.675206  
     730A      2.676816   731A      2.679800   732A      2.686036  
     733A      2.694717   734A      2.696481   735A      2.697541  
     736A      2.700273   737A      2.710242   738A      2.721155  
     739A      2.728389   740A      2.728658   741A      2.729428  
     742A      2.731734   743A      2.733866   744A      2.736126  
     745A      2.736988   746A      2.742584   747A      2.748601  
     748A      2.749852   749A      2.757215   750A      2.757508  
     751A      2.758536   752A      2.763070   753A      2.769934  
     754A      2.775630   755A      2.779526   756A      2.780244  
     757A      2.782759   758A      2.789120   759A      2.792439  
     760A      2.797246   761A      2.800959   762A      2.803323  
     763A      2.806563   764A      2.809431   765A      2.810188  
     766A      2.814510   767A      2.818479   768A      2.831908  
     769A      2.837108   770A      2.839419   771A      2.843849  
     772A      2.846635   773A      2.850807   774A      2.857248  
     775A      2.863674   776A      2.864458   777A      2.867333  
[...]
     739A      1.558987   740A      1.566851   741A      1.576846  
     742A      1.595859   743A      1.603323   744A      1.605786  
     745A      1.608463   746A      1.613620   747A      1.616388  
     748A      1.619626   749A      1.622883   750A      1.627359  
     751A      1.631423   752A      1.633164   753A      1.639553  
     754A      1.641939   755A      1.643926   756A      1.646156  
     757A      1.647628   758A      1.647770   759A      1.653863  
     760A      1.659494   761A      1.660050   762A      1.663312  
     763A      1.665158   764A      1.669110   765A      1.673004  
     766A      1.678412   767A      1.681062   768A      1.681728  
     769A      1.688665   770A      1.692622   771A      1.692820  
     772A      1.698402   773A      1.698768   774A      1.699140  
     775A      1.699950   776A      1.702109   777A      1.706290  
     778A      1.711888   779A      1.715759   780A      1.730277  
     781A      1.740636   782A      1.750108   783A      1.757724  
     784A      1.757788   785A      1.759176   786A      1.761258  
     787A      1.763204   788A      1.763530   789A      1.766252  
     790A      1.776945   791A      1.796060   792A      1.800054  
     793A      1.804742   794A      1.805158   795A      1.810861  
     796A      1.820989   797A      1.824055   798A      1.828493  
     799A      1.831185   800A      1.840828   801A      1.841440  
     802A      1.843694   803A      1.844898   804A      1.847109  
     805A      1.852895   806A      1.858434   807A      1.859190  
     808A      1.862227   809A      1.863965   810A      1.870791  
     811A      1.872355   812A      1.877882   813A      1.879120  
     814A      1.891326   815A      1.898413   816A      1.900570  
     817A      1.901411   818A      1.904138   819A      1.908542  
     820A      1.909080   821A      1.913681   822A      1.914988  
     823A      1.917411   824A      1.918796   825A      1.921244  
     826A      1.923900   827A      1.927005   828A      1.929467  
     829A      1.930749   830A      1.936631   831A      1.940348  
     832A      1.942772   833A      1.945820   834A      1.946696  
     835A      1.951648   836A      1.955834   837A      1.962164  
     838A      1.962723   839A      1.966021   840A      1.971658  
     841A      1.989445   842A      1.991088   843A      1.995104  
     844A      1.996369   845A      1.997692   846A      1.999302  
     847A      2.000319   848A      2.000486   849A      2.005313  
     850A      2.011522   851A      2.021079   852A      2.027041  
     853A      2.030143   854A      2.032317   855A      2.033015  
     856A      2.037371   857A      2.037679   858A      2.038162  
     859A      2.045443   860A      2.045808   861A      2.052099  
     862A      2.058503   863A      2.058812   864A      2.062482  
     865A      2.067088   866A      2.068736   867A      2.074131  
     868A      2.076493   869A      2.080005   870A      2.084387  
     871A      2.087333   872A      2.092926   873A      2.093874  
     874A      2.095017   875A      2.097937   876A      2.100814  
     877A      2.100861   878A      2.102498   879A      2.105468  
     880A      2.107549   881A      2.108365   882A      2.111638  
     883A      2.112099   884A      2.112698   885A      2.118063  
     886A      2.119613   887A      2.123415   888A      2.124648  
     889A      2.126301   890A      2.128014   891A      2.131209  
     892A      2.131954   893A      2.133114   894A      2.135263  
     895A      2.137623   896A      2.137840   897A      2.141117  
     898A      2.142623   899A      2.145734   900A      2.146989  
     901A      2.150326   902A      2.167864   903A      2.168590  
     904A      2.172001   905A      2.176007   906A      2.177803  
     907A      2.179626   908A      2.185605   909A      2.186452  
     910A      2.195078   911A      2.196420   912A      2.198596  
     913A      2.206937   914A      2.210407   915A      2.217172  
     916A      2.220024   917A      2.222567   918A      2.225286  
     919A      2.237699   920A      2.240726   921A      2.244028  
     922A      2.245737   923A      2.246214   924A      2.247488  
     925A      2.248310   926A      2.250163   927A      2.256756  
     928A      2.263469   929A      2.266241   930A      2.271342  
     931A      2.271726   932A      2.273431   933A      2.273638  
     934A      2.281596   935A      2.296070   936A      2.301981  
     937A      2.302758   938A      2.310223   939A      2.318047  
     940A      2.325115   941A      2.329697   942A      2.340185  
     943A      2.345094   944A      2.346706   945A      2.348852  
     946A      2.351033   947A      2.354783   948A      2.358892  
     949A      2.361929   950A      2.364761   951A      2.377985  
     952A      2.385384   953A      2.395809   954A      2.404105  
     955A      2.412666   956A      2.414635   957A      2.418849  
     958A      2.424719   959A      2.426063   960A      2.437003  
     961A      2.440134   962A      2.454587   963A      2.466300  
     964A      2.474031   965A      2.484924   966A      2.490265  
     967A      2.491837   968A      2.497093   969A      2.516142  
     970A      2.526509   971A      2.532028   972A      2.549608  
     973A      2.549934   974A      2.555771   975A      2.556138  
     976A      2.556459   977A      2.558797   978A      2.559893  
     979A      2.561265   980A      2.563589   981A      2.573653  
     982A      2.573896   983A      2.578119   984A      2.580418  
     985A      2.590277   986A      2.592072   987A      2.594377  
     988A      2.597544   989A      2.601631   990A      2.611723  
     991A      2.631892   992A      2.633486   993A      2.636442  
     994A      2.639156   995A      2.643155   996A      2.643787  
     997A      2.648766   998A      2.655723   999A      2.659232  
    1000A      2.673536  1001A      2.685688  1002A      2.689401  
    1003A      2.690781  1004A      2.698242  1005A      2.713346  
    1006A      2.713834  1007A      2.717049  1008A      2.717483  
    1009A      2.720505  1010A      2.721077  1011A      2.727838  
    1012A      2.739251  1013A      2.756369  1014A      2.762756  
    1015A      2.775718  1016A      2.781306  1017A      2.782384  
    1018A      2.798312  1019A      2.805830  1020A      2.828400  
    1021A      2.834195  1022A      2.838118  1023A      2.855219  
    1024A      2.855835  1025A      2.858553  1026A      2.865977  
    1027A      2.867279  1028A      2.880317  1029A      2.899198  
    1030A      2.909039  1031A      2.919579  1032A      2.920947  
    1033A      2.938372  1034A      2.938688  1035A      2.942297  
    1036A      2.963561  1037A      2.969707  1038A      2.979570  
    1039A      3.014336  1040A      3.019413  1041A      3.041775  
    1042A      3.058494  1043A      3.064856  1044A      3.065461  
    1045A      3.079003  1046A      3.085216  1047A      3.120993  
    1048A      3.121155  1049A      3.134095  1050A      3.134907  
    1051A      3.136636  1052A      3.144208  1053A      3.149066  
    1054A      3.149861  1055A      3.149944  1056A      3.151088  
    1057A      3.152307  1058A      3.166518  1059A      3.168220  
    1060A      3.168993  1061A      3.169538  1062A      3.192209  
    1063A      3.212029  1064A      3.214263  1065A      3.248001  
    1066A      3.251423  1067A      3.270159  1068A      3.279686  
    1069A      3.287823  1070A      3.297238  1071A      3.301038  
    1072A      3.312680  1073A      3.421865  1074A      3.431815  
    1075A      3.488851  1076A      3.493307  1077A      3.555017  
    1078A      3.594823  1079A      3.611583  1080A      3.631706  
    1081A      3.637522  1082A      3.654148  1083A      3.671526  
    1084A      3.691757  1085A      3.790691  1086A      3.822596  
    1087A      3.864927  1088A      3.871752  1089A      3.873409  
    1090A      3.910257  1091A      3.914925  1092A      3.974752  
    1093A      3.986471  1094A      4.012804  1095A      4.073240  
    1096A      4.203653  1097A      4.407992  1098A      4.411461  
    1099A      4.650869  1100A      4.849074  1101A      4.916998  
    1102A      5.767064  1103A      5.778953  1104A      5.798538  
    1105A      5.827778  1106A      5.833059  1107A      5.839387  
    1108A      5.879901  1109A      5.932126  1110A      5.936422  
    1111A      5.997871  1112A      6.016219  1113A      6.068237  
    1114A      6.126317  1115A      6.229949  1116A      6.240156  
    1117A      6.352584  1118A      6.367872  1119A      6.419332  
    1120A      6.419595  1121A      6.433510  1122A      7.374469  
    1123A      7.385401  1124A      7.433488  1125A      7.456747  
    1126A      7.667674  1127A      7.693332  1128A      7.715539  
    1129A      7.748540  1130A      7.834099  1131A      7.952285  
    1132A      8.174600  1133A      8.216122  1134A     13.076098  
    1135A     42.954889  1136A     42.981275  1137A     43.007820  
    1138A     43.011169  

    Final Occupation by Irrep:
              A 
    DOCC [   171 ]
    NA   [   171 ]
    NB   [   171 ]

  @DF-RHF Final Energy: -2055.89509826118956

   => Energetics <=

    Nuclear Repulsion Energy =           6452.5568002797781446
    One-Electron Energy =              -15636.5075130613549845
    Two-Electron Energy =                7128.0556145203881897
    Total Energy =                      -2055.8950982611895597

Computation Completed


Properties will be evaluated at   0.000000,   0.000000,   0.000000 [a0]

Properties computed using the SCF density matrix


 Multipole Moments:

 ------------------------------------------------------------------------------------
     Multipole            Electronic (a.u.)      Nuclear  (a.u.)        Total (a.u.)
 ------------------------------------------------------------------------------------

 L = 1.  Multiply by 2.5417464519 to convert [e a0] to [Debye]
 Dipole X            :          0.0000440            0.0000112            0.0000552
 Dipole Y            :          0.0001378           -0.0000531            0.0000847
 Dipole Z            :        179.1862807         -179.1810570            0.0052237
 Magnitude           :                                                    0.0052246

 ------------------------------------------------------------------------------------

*** tstop() called on d-16-5-1 at Mon Jan 22 11:15:22 2024
Module time:
	user time   =    2487.20 seconds =      41.45 minutes
	system time =      73.61 seconds =       1.23 minutes
	total time  =        518 seconds =       8.63 minutes
Total time:
	user time   =    8067.32 seconds =     134.46 minutes
	system time =     238.93 seconds =       3.98 minutes
	total time  =       1153 seconds =      19.22 minutes
  Constructing Basis Sets for SAPT...

   => Loading Basis Set <=

    Name: (JUN-CC-PVDZ AUX)
    Role: RIFIT
    Keyword: DF_BASIS_SAPT
    atoms 1     entry B          line    56 file /home/gridsan/tfroembgen/.conda/envs/psi4test/share/psi4/basis/jun-cc-pvdz-ri.gbs 
    atoms 2-5   entry F          line   232 file /home/gridsan/tfroembgen/.conda/envs/psi4test/share/psi4/basis/jun-cc-pvdz-ri.gbs 
    atoms 6-59  entry C          line   100 file /home/gridsan/tfroembgen/.conda/envs/psi4test/share/psi4/basis/jun-cc-pvdz-ri.gbs 
    atoms 60-77 entry H          line    30 file /home/gridsan/tfroembgen/.conda/envs/psi4test/share/psi4/basis/jun-cc-pvdz-ri.gbs 

   => Loading Basis Set <=

    Name: (JUN-CC-PVDZ AUX)
    Role: JKFIT
    Keyword: DF_BASIS_ELST
    atoms 1     entry B          line    90 file /home/gridsan/tfroembgen/.conda/envs/psi4test/share/psi4/basis/jun-cc-pvdz-jkfit.gbs 
    atoms 2-5   entry F          line   314 file /home/gridsan/tfroembgen/.conda/envs/psi4test/share/psi4/basis/jun-cc-pvdz-jkfit.gbs 
    atoms 6-59  entry C          line   146 file /home/gridsan/tfroembgen/.conda/envs/psi4test/share/psi4/basis/jun-cc-pvdz-jkfit.gbs 
    atoms 60-77 entry H          line    70 file /home/gridsan/tfroembgen/.conda/envs/psi4test/share/psi4/basis/jun-cc-pvdz-jkfit.gbs 


  //>>>>>>>>>>>>>>>>>>>>>>>>>>>>>>>>>>>//
  //               SSAPT0              //
  //<<<<<<<<<<<<<<<<<<<<<<<<<<<<<<<<<<<//


*** tstart() called on d-16-5-1
*** at Mon Jan 22 11:15:23 2024

        SAPT0  
    Ed Hohenstein
     6 June 2009

      Orbital Information
  --------------------------
    NSO        =      1152
    NMO        =      1138
    NRI        =      4087
    NRI (Elst) =      5075
    NOCC A     =        21
    NOCC B     =       171
    FOCC A     =         5
    FOCC B     =        54
    NVIR A     =      1117
    NVIR B     =       967

    Elst10,r            =    -0.366654688725 [Eh]
    Exch10              =     0.844177198668 [Eh]
    Exch10 (S^2)        =     0.758899657880 [Eh]

    Iter     Energy [mEh]          dE [mEh]         Residual      Time [s]
       1    -162.22719802     162.227198017     103.559693233           172
       2    -190.35522254      28.128024524      45.890532835           191
       3    -203.92134789      13.566125351       8.414356645           205
       4    -203.57519821      -0.346149686       2.394582798           227
       5    -203.26611604      -0.309082164       0.554449764           243
       6    -203.25952794      -0.006588100       0.160548613           259
       7    -203.27660056       0.017072614       0.030797784           278
       8    -203.27553891      -0.001061651       0.007360390           295
       9    -203.27529459      -0.000244318       0.001019795           310
      10    -203.27536103       0.000066445       0.000200929           331
      11    -203.27535424      -0.000006794       0.000046202           358
      12    -203.27535369      -0.000000544       0.000017681           375
      13    -203.27535401       0.000000312       0.000003273           391
      14    -203.27535408       0.000000079       0.000000667           405

    CHF Iterations converged


    Iter     Energy [mEh]          dE [mEh]         Residual      Time [s]
       1    -344.88128016     344.881280160     145.676632087           292
       2    -356.19671600      11.315435843      55.775729732           503
       3    -398.63812343      42.441407426      13.994758163           522
       4    -399.09664657       0.458523141       5.929549364           542
       5    -397.46507276      -1.631573814       2.154067869           561
       6    -397.44851920      -0.016553560       1.017615036           580
       7    -397.64762059       0.199101393       0.474848021           597
       8    -397.66841804       0.020797451       0.242833458           617
       9    -397.63059729      -0.037820749       0.138469113           638
      10    -397.62446541      -0.006131878       0.071329706           657
      11    -397.63472176       0.010256349       0.036062414           672
      12    -397.63508428       0.000362521       0.022683010           689
      13    -397.63275919      -0.002325089       0.013540753           706
      14    -397.63280554       0.000046346       0.006872642           722
      15    -397.63333771       0.000532167       0.002970911           738
      16    -397.63334461       0.000006897       0.001297080           754
      17    -397.63326888      -0.000075728       0.000559062           769
      18    -397.63324916      -0.000019722       0.000220671           784
      19    -397.63326466       0.000015501       0.000084806           799
      20    -397.63326623       0.000001569       0.000043688           815
      21    -397.63326431      -0.000001916       0.000016943           831
      22    -397.63326377      -0.000000537       0.000007245           850
      23    -397.63326404       0.000000273       0.000003471           865
      24    -397.63326416       0.000000114       0.000001587           880
      25    -397.63326410      -0.000000055       0.000000705           896

    CHF Iterations converged

    Ind20,r (A<-B)      =    -0.203275354085 [Eh]
    Ind20,r (B<-A)      =    -0.397633264104 [Eh]
    Ind20,r             =    -0.600908618189 [Eh]
    Exch-Ind20,r (A<-B) =     0.134778123134 [Eh]
    Exch-Ind20,r (B<-A) =     0.294018658249 [Eh]
    Exch-Ind20,r        =     0.428796781383 [Eh]
    Disp20              =    -0.126061983507 [Eh]
    Disp20 (SS)         =    -0.063030991753 [Eh]
    Disp20 (OS)         =    -0.063030991753 [Eh]
    Exch-Disp20         =     0.047763815406 [Eh]
    Exch-Disp20 (SS)    =     0.022411603403 [Eh]
    Exch-Disp20 (OS)    =     0.025352212002 [Eh]

    SAPT Results 
  --------------------------------------------------------------------------------------------------------
    Electrostatics               -366.65468872 [mEh]    -230.07929078 [kcal/mol]    -962.65175262 [kJ/mol]
      Elst10,r                   -366.65468872 [mEh]    -230.07929078 [kcal/mol]    -962.65175262 [kJ/mol]

    Exchange                      844.17719867 [mEh]     529.72918971 [kcal/mol]    2216.38692975 [kJ/mol]
      Exch10                      844.17719867 [mEh]     529.72918971 [kcal/mol]    2216.38692975 [kJ/mol]
      Exch10(S^2)                 758.89965788 [mEh]     476.21672497 [kcal/mol]    1992.49077726 [kJ/mol]

    Induction                    -119.25715899 [mEh]     -74.83499708 [kcal/mol]    -313.10962779 [kJ/mol]
      Ind20,r                    -600.90861819 [mEh]    -377.07585079 [kcal/mol]   -1577.68535970 [kJ/mol]
      Exch-Ind20,r                428.79678138 [mEh]     269.07404264 [kcal/mol]    1125.80579442 [kJ/mol]
      delta HF,r (2)               52.85467782 [mEh]      33.16681106 [kcal/mol]     138.76993749 [kJ/mol]

    Dispersion                    -78.29816810 [mEh]     -49.13284226 [kcal/mol]    -205.57181203 [kJ/mol]
      Disp20                     -126.06198351 [mEh]     -79.10508893 [kcal/mol]    -330.97569210 [kJ/mol]
      Exch-Disp20                  47.76381541 [mEh]      29.97224667 [kcal/mol]     125.40388007 [kJ/mol]
      Disp20 (SS)                 -63.03099175 [mEh]     -39.55254447 [kcal/mol]    -165.48784605 [kJ/mol]
      Disp20 (OS)                 -63.03099175 [mEh]     -39.55254447 [kcal/mol]    -165.48784605 [kJ/mol]
      Exch-Disp20 (SS)             22.41160340 [mEh]      14.06349346 [kcal/mol]      58.84165663 [kJ/mol]
      Exch-Disp20 (OS)             25.35221200 [mEh]      15.90875321 [kcal/mol]      66.56222344 [kJ/mol]

  Total HF                        358.26535095 [mEh]     224.81490185 [kcal/mol]     940.62554934 [kJ/mol]
  Total SAPT0                     279.96718285 [mEh]     175.68205959 [kcal/mol]     735.05373731 [kJ/mol]

  Special recipe for scaled SAPT0 (see Manual):
    Electrostatics sSAPT0        -366.65468872 [mEh]    -230.07929078 [kcal/mol]    -962.65175262 [kJ/mol]
    Exchange sSAPT0               844.17719867 [mEh]     529.72918971 [kcal/mol]    2216.38692975 [kJ/mol]
    Induction sSAPT0               42.14618657 [mEh]      26.44713136 [kcal/mol]     110.65479759 [kJ/mol]
    Dispersion sSAPT0             -60.31939602 [mEh]     -37.85099245 [kcal/mol]    -158.36855242 [kJ/mol]
  Total sSAPT0                    459.34930049 [mEh]     288.24603783 [kcal/mol]    1206.02142229 [kJ/mol]
  --------------------------------------------------------------------------------------------------------

*** tstop() called on d-16-5-1 at Mon Jan 22 12:19:44 2024
Module time:
	user time   =    7519.11 seconds =     125.32 minutes
	system time =     725.69 seconds =      12.09 minutes
	total time  =       3861 seconds =      64.35 minutes
Total time:
	user time   =   15587.35 seconds =     259.79 minutes
	system time =     964.62 seconds =      16.08 minutes
	total time  =       5015 seconds =      83.58 minutes

    Psi4 stopped on: Monday, 22 January 2024 12:19PM
    Psi4 wall time for execution: 1:23:36.20

*** Psi4 exiting successfully. Buy a developer a beer!
