
    -----------------------------------------------------------------------
          Psi4: An Open-Source Ab Initio Electronic Structure Package
                               Psi4 1.9 release

                         Git: Rev {} zzzzzzz 


    D. G. A. Smith, L. A. Burns, A. C. Simmonett, R. M. Parrish,
    M. C. Schieber, R. Galvelis, P. Kraus, H. Kruse, R. Di Remigio,
    A. Alenaizan, A. M. James, S. Lehtola, J. P. Misiewicz, M. Scheurer,
    R. A. Shaw, J. B. Schriber, Y. Xie, Z. L. Glick, D. A. Sirianni,
    J. S. O'Brien, J. M. Waldrop, A. Kumar, E. G. Hohenstein,
    B. P. Pritchard, B. R. Brooks, H. F. Schaefer III, A. Yu. Sokolov,
    K. Patkowski, A. E. DePrince III, U. Bozkaya, R. A. King,
    F. A. Evangelista, J. M. Turney, T. D. Crawford, C. D. Sherrill,
    J. Chem. Phys. 152(18) 184108 (2020). https://doi.org/10.1063/5.0006002

                            Additional Code Authors
    E. T. Seidl, C. L. Janssen, E. F. Valeev, M. L. Leininger,
    J. F. Gonthier, R. M. Richard, H. R. McAlexander, M. Saitow, X. Wang,
    P. Verma, M. H. Lechner, A. Jiang, S. Behnle, A. G. Heide,
    M. F. Herbst, and D. L. Poole

             Previous Authors, Complete List of Code Contributors,
                       and Citations for Specific Modules
    https://github.com/psi4/psi4/blob/master/codemeta.json
    https://github.com/psi4/psi4/graphs/contributors
    http://psicode.org/psi4manual/master/introduction.html#citing-psifour

    -----------------------------------------------------------------------


    Psi4 started on: Wednesday, 24 January 2024 10:23PM

    Process ID: 1807670
    Host:       n2cn0287
    PSIDATADIR: /opt/software/pc2/EB-SW/software/PSI4/1.9-foss-2022a/share/psi4
    Memory:     500.0 MiB
    Threads:    16
    
  ==> Input File <==

--------------------------------------------------------------------------
memory 47 GB # how much memory is available ! Depends on the nodes/cores !

molecule dimer {
# monomer A
-1 1    # Charge and multiplicity
B -1.977592e-04  2.742729e-04 4.000034
F  1.123153e-16  1.430594e-17 5.412819
F  1.147860e+00  6.757812e-01 3.528893
F  1.191806e-02 -1.332011e+00 3.529095
F -1.159666e+00  6.560735e-01 3.529174
--
# monomer B
0 1     # Charge and multiplicity
C   -3.66844126402057      7.80375217008252      0.00190004133558
C   -4.84759871934653      7.13124183134024     -0.00046653359696
C   -4.89495929917518      5.69633040353158     -0.00103944469517
C   -3.65374067877320      4.98073034095895      0.00662099703436
C   -2.40942512149445      7.11398103667468      0.00209438359570
C   -2.42547734410473      5.68112195090346     -0.00491050527438
C   -1.19474401643570      7.78614419430947      0.00356656413763
C   0.03795902893699      7.09942164575698      0.00139585983271
C   0.03033258741920      5.66948955970466     -0.00408752508301
C   -1.20098450790502      4.96927034791531      0.00488220885047
C   1.27795782581485      7.77285944319479      0.00277170839332
C   2.48535808472416      7.08769688523756      0.00049722048857
C   2.48612868491717      5.65477081024076     -0.00644052849921
C   1.25408291964399      4.95607811366431      0.00518741308898
C   3.75171459140595      7.76391215098033      0.00062407186893
C   4.92356605618520      7.07878077698995     -0.00143240883900
C   4.95560727132542      5.64344746336949     -0.00159282164606
C   3.70680153420475      4.94121020833308      0.00349873852374
H   -3.65852113775815      8.89082741913536      0.00358502958574
H   -1.18921332975660      8.87412108735996      0.00753844057883
H   1.28429423888630      8.86083343548850      0.00693053253426
H   3.75354208679975      8.85103527897216      0.00214659618464
H   5.86995870320703      7.61379483465560     -0.00235777588134
H   -5.78823170750226      7.67630221293400     -0.00202638095293
C   -6.09197395869619      4.99326001364347     -0.00291168518608
C   -6.12866148031747      3.58258016879823     -0.00171050815740
C   -3.66457974004527      3.56418217974434     -0.00463560277484
C   -4.89429820469869      2.86108077590057      0.00453338221034
C   -2.43733499489796      2.84761165708481      0.00719617576166
C   -1.20922785759670      3.54788693497833     -0.00648285103018
C   1.24714157216223      3.53468075142962     -0.00729145743546
C   0.01517603956900      2.83311183930540      0.00439272578912
C   2.46764517244071      2.82128997725533      0.00449278391269
C   3.70254947457969      3.52466015442405     -0.00899517692985
C   6.14498038638375      4.92757236613191     -0.00282626685777
C   6.16658835886151      3.51658447594213     -0.00065971342101
C   4.92460995845939      2.80840792535402      0.00587903281610
H   7.08990550964105      5.46688776622306     -0.00658814770723
H   -7.03104175110130      5.54268795285765     -0.00714490013730
C   -7.33969804112295      2.85841153457957     -0.00333767559888
C   -7.36488195805880      1.47032337158330     -0.00157213747140
C   -4.90350460894690      1.44442681216000     -0.00628840166334
C   -6.13225715261081      0.73993935705394      0.00600164231964
C   -3.67687480051673      0.72669714267312      0.00433931473643
C   -2.44565658606518      1.42964113326212     -0.00597039546461
C   -1.22360068130162      0.71532450163492      0.00545886906656
C   0.00763786931376      1.41738314923765      0.00392452278437
C   1.23121980774686      0.70211669058719     -0.01490206287210
C   2.46082110053113      1.40329203612573      0.00460244601878
C   3.68443025419614      0.68719842821222      0.00377365974158
C   4.91870890153864      1.39173456118907     -0.00862816189375
C   7.36980207796101      2.77948220318441     -0.00242013321349
C   7.38016266612146      1.39121750785509     -0.00087345036788
C   6.13979953912259      0.67411862320065      0.00545489144369
H   -8.27919079934664      3.40711804112415     -0.00763522772059
H   8.31511347147953      3.31811809662368     -0.00663070901292
C   -8.59175593758115      0.72483255304480     -0.00123170985383
C   -8.59902460370342     -0.63263980622873      0.00089141472904
C   -6.13981313911873     -0.67413663715361     -0.00609792660607
C   -7.38018411213749     -1.39126618958160      0.00131813493501
C   -4.91868448025621     -1.39175501803000      0.00624257154343
C   -3.68443829568458     -0.68723731573599     -0.00478966852105
C   -2.46081704024768     -1.40334517882457      0.00575341766833
C   -1.23116201232071     -0.70217386488055     -0.00636696112346
C   -0.00756962538737     -1.41741884941102      0.00108956317991
C   1.22364771588843     -0.71527537726392      0.01109518512883
C   2.44567064933149     -1.42964328900682     -0.00065482763106
C   3.67686670284649     -0.72670743155550     -0.00479541202602
C   6.13224884641929     -0.73997883984993     -0.00632338623858
C   4.90351914550401     -1.44445752054090      0.00751768830159
C   8.59901484869081      0.63260386666793     -0.00101133422380
C   8.59174548810050     -0.72485086719319      0.00072504603735
C   7.36486276438985     -1.47033266560598      0.00049486934466
H   -9.52830597181814      1.27684744919284     -0.00270163681798
H   9.54141097460619      1.17457248844457     -0.00206336648518
C   -7.36983790976868     -2.77954514593389      0.00312634335708
C   -4.92459910905015     -2.80843725734101     -0.00460528907921
C   -6.16662249566744     -3.51665219282533      0.00169655107992
C   -3.70251035970491     -3.52468154912026      0.00571878010666
C   -2.46764698511392     -2.82132596280400     -0.00632585824990
C   -0.01513347410770     -2.83314164539971     -0.00604426974092
C   -1.24712184122656     -3.53473217556300      0.00551968366725
C   1.20924506964357     -3.54791467864352      0.00805871345849
C   2.43733602215464     -2.84764173817541     -0.00608104485234
C   4.89430234377080     -2.86112296828604     -0.00526030478103
C   3.66461525504104     -3.56421984553201      0.00761911515957
C   6.12863901474565     -3.58258405771778      0.00096495711699
C   7.33967266469532     -2.85841330737039      0.00248018319869
H   -9.54144911125902     -1.17456346666430      0.00226083090216
H   9.52826186807155     -1.27691907390448      0.00197485379837
H   -8.31516504384864     -3.31814985321231      0.00729857188773
H   8.27915514249207     -3.40714078989363      0.00681973918158
C   -6.14499418870218     -4.92764727278338      0.00302254913999
C   -3.70678334799751     -4.94126171411716     -0.00679841894792
C   -4.95559005800169     -5.64349397349412      0.00116871569699
C   -2.48612132622665     -5.65478557440947      0.00614125209662
C   -1.25405833548005     -4.95612205000132     -0.00503435388927
C   1.20101257386816     -4.96928038819302     -0.00385322963129
C   -0.03033667441341     -5.66952030313900      0.00398997003238
C   3.65375010132847     -4.98074377541453     -0.00309522988330
C   2.42549269587528     -5.68117463552727      0.00628170066869
C   6.09196561781097     -4.99325796338655      0.00325918379042
C   4.89497644461045     -5.69634842095790      0.00202298796027
H   -7.08989238804069     -5.46699984223871      0.00742531082125
H   7.03105520920009     -5.54265853633254      0.00683896355417
C   -4.92354532219813     -7.07882109967734      0.00061394679214
C   -2.48534208823777     -7.08772807792913     -0.00189594564379
C   -3.75168589177895     -7.76394715763627     -0.00170126671874
C   -0.03794895698805     -7.09946487446944     -0.00168022049625
C   -1.27795610040136     -7.77290438466689     -0.00366491325785
C   2.40944432072629     -7.11402201200282     -0.00081701968533
C   1.19474993715296     -7.78618536556242     -0.00296931056689
C   4.84762105249800     -7.13126211057943      0.00168979497423
C   3.66847160587561     -7.80378799294376     -0.00065863938960
H   -5.86994035041618     -7.61383059804164      0.00215798365757
H   5.78824962538815     -7.67633218931421      0.00281691445618
H   -3.75352693944918     -8.85107156923607     -0.00353718114765
H   -1.28430440589466     -8.86087539249706     -0.00809229711623
H   1.18922157469537     -8.87416062058945     -0.00706194725726
H   3.65854661482387     -8.89086063405326     -0.00231318081200

    units angstrom      # Angstroms are the default
    no_reorient         # Geometry fixed, default
    symmetry c1         # C1 symmetry, default
}

set {
    scf_type DF         # Density fitting, faster than exact integrals
    freeze_core True    # Freeze core electrons
    basis jun-cc-pVDZ   # Jun-cc-pVDZ basis set, recommended for sSAPT0 in https://doi.org/10.1063/1.4867135
}

energy('ssapt0')        # Compute sSAPT0 energy, includes also SAPT0
--------------------------------------------------------------------------

  Memory set to  43.772 GiB by Python driver.

Scratch directory: /tmp/
   => Loading Basis Set <=

    Name: JUN-CC-PVDZ
    Role: ORBITAL
    Keyword: BASIS
    atoms 1                                                   entry B          line   130 file /opt/software/pc2/EB-SW/software/PSI4/1.9-foss-2022a/share/psi4/basis/jun-cc-pvdz.gbs 
    atoms 2-5                                                 entry F          line   266 file /opt/software/pc2/EB-SW/software/PSI4/1.9-foss-2022a/share/psi4/basis/jun-cc-pvdz.gbs 
    atoms 6-23, 30-42, 45-59, 62-78, 81-93, 98-108, 111-119   entry C          line   164 file /opt/software/pc2/EB-SW/software/PSI4/1.9-foss-2022a/share/psi4/basis/jun-cc-pvdz.gbs 
    atoms 24-29, 43-44, 60-61, 79-80, 94-97, 109-110, 120-125 entry H          line    36 file /opt/software/pc2/EB-SW/software/PSI4/1.9-foss-2022a/share/psi4/basis/jun-cc-pvdz.gbs 

   => Loading Basis Set <=

    Name: JUN-CC-PVDZ
    Role: ORBITAL
    Keyword: BASIS
    atoms 1                                                   entry B          line   130 file /opt/software/pc2/EB-SW/software/PSI4/1.9-foss-2022a/share/psi4/basis/jun-cc-pvdz.gbs 
    atoms 2-5                                                 entry F          line   266 file /opt/software/pc2/EB-SW/software/PSI4/1.9-foss-2022a/share/psi4/basis/jun-cc-pvdz.gbs 
    atoms 6-23, 30-42, 45-59, 62-78, 81-93, 98-108, 111-119   entry C          line   164 file /opt/software/pc2/EB-SW/software/PSI4/1.9-foss-2022a/share/psi4/basis/jun-cc-pvdz.gbs 
    atoms 24-29, 43-44, 60-61, 79-80, 94-97, 109-110, 120-125 entry H          line    36 file /opt/software/pc2/EB-SW/software/PSI4/1.9-foss-2022a/share/psi4/basis/jun-cc-pvdz.gbs 


  //>>>>>>>>>>>>>>>>>>>>>>>>>>>>>>>>>>>//
  //              Dimer HF             //
  //<<<<<<<<<<<<<<<<<<<<<<<<<<<<<<<<<<<//

   => Libint2 <=

    Primary   basis highest AM E, G, H:  5, 4, 3
    Auxiliary basis highest AM E, G, H:  6, 5, 4
    Onebody   basis highest AM E, G, H:  6, 5, 4
    Solid Harmonics ordering:            gaussian

*** tstart() called on n2cn0287
*** at Wed Jan 24 22:23:14 2024

   => Loading Basis Set <=

    Name: JUN-CC-PVDZ
    Role: ORBITAL
    Keyword: BASIS
    atoms 1                                                   entry B          line   130 file /opt/software/pc2/EB-SW/software/PSI4/1.9-foss-2022a/share/psi4/basis/jun-cc-pvdz.gbs 
    atoms 2-5                                                 entry F          line   266 file /opt/software/pc2/EB-SW/software/PSI4/1.9-foss-2022a/share/psi4/basis/jun-cc-pvdz.gbs 
    atoms 6-23, 30-42, 45-59, 62-78, 81-93, 98-108, 111-119   entry C          line   164 file /opt/software/pc2/EB-SW/software/PSI4/1.9-foss-2022a/share/psi4/basis/jun-cc-pvdz.gbs 
    atoms 24-29, 43-44, 60-61, 79-80, 94-97, 109-110, 120-125 entry H          line    36 file /opt/software/pc2/EB-SW/software/PSI4/1.9-foss-2022a/share/psi4/basis/jun-cc-pvdz.gbs 


         ---------------------------------------------------------
                                   SCF
               by Justin Turney, Rob Parrish, Andy Simmonett
                          and Daniel G. A. Smith
                              RHF Reference
                       16 Threads,  44822 MiB Core
         ---------------------------------------------------------

  ==> Geometry <==

    Molecular point group: c1
    Full point group: C1

    Geometry (in Angstrom), charge = -1, multiplicity = 1:

       Center              X                  Y                   Z               Mass       
    ------------   -----------------  -----------------  -----------------  -----------------
         B           -0.000201921932     0.000288800891     3.724528784335    11.009305360000
         F           -0.000004162732     0.000014527991     5.137313784335    18.998403162730
         F            1.147855837268     0.675795727991     3.253387784335    18.998403162730
         F            0.011913897268    -1.331996472009     3.253589784335    18.998403162730
         F           -1.159670162732     0.656088027991     3.253668784335    18.998403162730
         C           -3.668445426752     7.803766698073    -0.273605174329    12.000000000000
         C           -4.847602882078     7.131256359331    -0.275971749262    12.000000000000
         C           -4.894963461907     5.696344931522    -0.276544660360    12.000000000000
         C           -3.653744841505     4.980744868950    -0.268884218630    12.000000000000
         C           -2.409429284226     7.113995564665    -0.273410832069    12.000000000000
         C           -2.425481506836     5.681136478894    -0.280415720939    12.000000000000
         C           -1.194748179167     7.786158722300    -0.271938651527    12.000000000000
         C            0.037954866205     7.099436173748    -0.274109355832    12.000000000000
         C            0.030328424687     5.669504087695    -0.279592740748    12.000000000000
         C           -1.200988670637     4.969284875906    -0.270623006814    12.000000000000
         C            1.277953663083     7.772873971185    -0.272733507271    12.000000000000
         C            2.485353921992     7.087711413228    -0.275007995176    12.000000000000
         C            2.486124522185     5.654785338231    -0.281945744164    12.000000000000
         C            1.254078756912     4.956092641655    -0.270317802576    12.000000000000
         C            3.751710428674     7.763926678971    -0.274881143796    12.000000000000
         C            4.923561893453     7.078795304981    -0.276937624504    12.000000000000
         C            4.955603108594     5.643461991360    -0.277098037311    12.000000000000
         C            3.706797371473     4.941224736324    -0.272006477141    12.000000000000
         H           -3.658525300490     8.890841947126    -0.271920186079     1.007825032230
         H           -1.189217492488     8.874135615351    -0.267966775086     1.007825032230
         H            1.284290076155     8.860847963479    -0.268574683130     1.007825032230
         H            3.753537924068     8.851049806963    -0.273358619480     1.007825032230
         H            5.869954540475     7.613809362646    -0.277862991546     1.007825032230
         H           -5.788235870234     7.676316740925    -0.277531596618     1.007825032230
         C           -6.091978121428     4.993274541634    -0.278416900851    12.000000000000
         C           -6.128665643049     3.582594696789    -0.277215723822    12.000000000000
         C           -3.664583902777     3.564196707735    -0.280140818440    12.000000000000
         C           -4.894302367430     2.861095303891    -0.270971833454    12.000000000000
         C           -2.437339157630     2.847626185075    -0.268309039903    12.000000000000
         C           -1.209232020328     3.547901462969    -0.281988066695    12.000000000000
         C            1.247137409430     3.534695279420    -0.282796673100    12.000000000000
         C            0.015171876837     2.833126367296    -0.271112489876    12.000000000000
         C            2.467641009709     2.821304505246    -0.271012431752    12.000000000000
         C            3.702545311848     3.524674682415    -0.284500392595    12.000000000000
         C            6.144976223652     4.927586894122    -0.278331482522    12.000000000000
         C            6.166584196130     3.516599003933    -0.276164929086    12.000000000000
         C            4.924605795728     2.808422453345    -0.269626182849    12.000000000000
         H            7.089901346909     5.466902294214    -0.282093363372     1.007825032230
         H           -7.031045913833     5.542702480848    -0.282650115802     1.007825032230
         C           -7.339702203855     2.858426062570    -0.278842891264    12.000000000000
         C           -7.364886120791     1.470337899574    -0.277077353136    12.000000000000
         C           -4.903508771679     1.444441340151    -0.281793617328    12.000000000000
         C           -6.132261315343     0.739953885044    -0.269503573345    12.000000000000
         C           -3.676878963248     0.726711670664    -0.271165900928    12.000000000000
         C           -2.445660748797     1.429655661253    -0.281475611129    12.000000000000
         C           -1.223604844033     0.715339029625    -0.270046346598    12.000000000000
         C            0.007633706582     1.417397677228    -0.271580692880    12.000000000000
         C            1.231215645015     0.702131218578    -0.290407278537    12.000000000000
         C            2.460816937799     1.403306564116    -0.270902769646    12.000000000000
         C            3.684426091464     0.687212956203    -0.271731555923    12.000000000000
         C            4.918704738807     1.391749089180    -0.284133377558    12.000000000000
         C            7.369797915229     2.779496731175    -0.277925348878    12.000000000000
         C            7.380158503390     1.391232035846    -0.276378666033    12.000000000000
         C            6.139795376391     0.674133151191    -0.270050324221    12.000000000000
         H           -8.279194962078     3.407132569115    -0.283140443385     1.007825032230
         H            8.315109308748     3.318132624614    -0.282135924678     1.007825032230
         C           -8.591760100313     0.724847081035    -0.276736925518    12.000000000000
         C           -8.599028766435    -0.632625278238    -0.274613800936    12.000000000000
         C           -6.139817301850    -0.674122109163    -0.281603142271    12.000000000000
         C           -7.380188274869    -1.391251661591    -0.274187080730    12.000000000000
         C           -4.918688642988    -1.391740490039    -0.269262644121    12.000000000000
         C           -3.684442458416    -0.687222787745    -0.280294884186    12.000000000000
         C           -2.460821202979    -1.403330650834    -0.269751797996    12.000000000000
         C           -1.231166175052    -0.702159336890    -0.281872176788    12.000000000000
         C           -0.007573788119    -1.417404321420    -0.274415652485    12.000000000000
         C            1.223643553157    -0.715260849273    -0.264410030536    12.000000000000
         C            2.445666486600    -1.429628761016    -0.276160043296    12.000000000000
         C            3.676862540115    -0.726692903565    -0.280300627691    12.000000000000
         C            6.132244683688    -0.739964311859    -0.281828601903    12.000000000000
         C            4.903514982772    -1.444442992550    -0.267987527363    12.000000000000
         C            8.599010685959     0.632618394658    -0.276516549888    12.000000000000
         C            8.591741325369    -0.724836339203    -0.274780169627    12.000000000000
         C            7.364858601658    -1.470318137615    -0.275010346320    12.000000000000
         H           -9.528310134550     1.276861977183    -0.278206852483     1.007825032230
         H            9.541406811874     1.174587016435    -0.277568582150     1.007825032230
         C           -7.369842072500    -2.779530617943    -0.272378872308    12.000000000000
         C           -4.924603271782    -2.808422729350    -0.280110504744    12.000000000000
         C           -6.166626658399    -3.516637664835    -0.273808664585    12.000000000000
         C           -3.702514522437    -3.524667021130    -0.269786435558    12.000000000000
         C           -2.467651147846    -2.821311434813    -0.281831073915    12.000000000000
         C           -0.015137636839    -2.833127117409    -0.281549485406    12.000000000000
         C           -1.247126003958    -3.534717647572    -0.269985531997    12.000000000000
         C            1.209240906912    -3.547900150653    -0.267446502206    12.000000000000
         C            2.437331859423    -2.847627210185    -0.281586260517    12.000000000000
         C            4.894298181039    -2.861108440295    -0.280765520446    12.000000000000
         C            3.664611092309    -3.564205317541    -0.267886100505    12.000000000000
         C            6.128634852014    -3.582569529727    -0.274540258548    12.000000000000
         C            7.339668501964    -2.858398779380    -0.273025032466    12.000000000000
         H           -9.541453273991    -1.174548938674    -0.273244384763     1.007825032230
         H            9.528257705340    -1.276904545914    -0.273530361866     1.007825032230
         H           -8.315169206580    -3.318135325222    -0.268206643777     1.007825032230
         H            8.279150979760    -3.407126261903    -0.268685476483     1.007825032230
         C           -6.144998351434    -4.927632744793    -0.272482666525    12.000000000000
         C           -3.706787510729    -4.941247186127    -0.282303634613    12.000000000000
         C           -4.955594220733    -5.643479445504    -0.274336499968    12.000000000000
         C           -2.486125488958    -5.654771046419    -0.269363963568    12.000000000000
         C           -1.254062498212    -4.956107522011    -0.280539569554    12.000000000000
         C            1.201008411136    -4.969265860202    -0.279358445296    12.000000000000
         C           -0.030340837145    -5.669505775148    -0.271515245632    12.000000000000
         C            3.653745938597    -4.980729247424    -0.278600445548    12.000000000000
         C            2.425488533144    -5.681160107537    -0.269223514996    12.000000000000
         C            6.091961455079    -4.993243435396    -0.272246031874    12.000000000000
         C            4.894972281879    -5.696333892967    -0.273482227704    12.000000000000
         H           -7.089896550772    -5.466985314248    -0.268079904843     1.007825032230
         H            7.031051046468    -5.542644008342    -0.268666252110     1.007825032230
         C           -4.923549484930    -7.078806571687    -0.274891268873    12.000000000000
         C           -2.485346250970    -7.087713549939    -0.277401161308    12.000000000000
         C           -3.751690054511    -7.763932629646    -0.277206482383    12.000000000000
         C           -0.037953119720    -7.099450346479    -0.277185436161    12.000000000000
         C           -1.277960263133    -7.772889856676    -0.279170128923    12.000000000000
         C            2.409440157995    -7.114007484012    -0.276322235350    12.000000000000
         C            1.194745774421    -7.786170837572    -0.278474526232    12.000000000000
         C            4.847616889766    -7.131247582589    -0.273815420690    12.000000000000
         C            3.668467443144    -7.803773464953    -0.276163855054    12.000000000000
         H           -5.869944513148    -7.613816070051    -0.273347232007     1.007825032230
         H            5.788245462656    -7.676317661324    -0.272688301208     1.007825032230
         H           -3.753531102181    -8.851057041246    -0.279042396812     1.007825032230
         H           -1.284308568626    -8.860860864507    -0.283597512781     1.007825032230
         H            1.189217411964    -8.874146092599    -0.282567162922     1.007825032230
         H            3.658542452092    -8.890846106063    -0.277818396477     1.007825032230

  Running in c1 symmetry.

  Rotational constants: A =      0.00067  B =      0.00067  C =      0.00035 [cm^-1]
  Rotational constants: A =     19.98053  B =     19.97715  C =     10.55117 [MHz]
  Nuclear repulsion = 17655.606069349985773

  Charge       = -1
  Multiplicity = 1
  Electrons    = 642
  Nalpha       = 321
  Nbeta        = 321

  ==> Algorithm <==

  SCF Algorithm Type is DF.
  DIIS enabled.
  MOM disabled.
  Fractional occupation disabled.
  Guess Type is SAD.
  Energy threshold   = 1.00e-08
  Density threshold  = 1.00e-08
  Integral threshold = 1.00e-12

  ==> Primary Basis <==

  Basis Set: JUN-CC-PVDZ
    Blend: JUN-CC-PVDZ
    Number of shells: 880
    Number of basis functions: 1938
    Number of Cartesian functions: 2039
    Spherical Harmonics?: true
    Max angular momentum: 2

   => Loading Basis Set <=

    Name: (JUN-CC-PVDZ AUX)
    Role: JKFIT
    Keyword: DF_BASIS_SCF
    atoms 1                                                   entry B          line    90 file /opt/software/pc2/EB-SW/software/PSI4/1.9-foss-2022a/share/psi4/basis/jun-cc-pvdz-jkfit.gbs 
    atoms 2-5                                                 entry F          line   314 file /opt/software/pc2/EB-SW/software/PSI4/1.9-foss-2022a/share/psi4/basis/jun-cc-pvdz-jkfit.gbs 
    atoms 6-23, 30-42, 45-59, 62-78, 81-93, 98-108, 111-119   entry C          line   146 file /opt/software/pc2/EB-SW/software/PSI4/1.9-foss-2022a/share/psi4/basis/jun-cc-pvdz-jkfit.gbs 
    atoms 24-29, 43-44, 60-61, 79-80, 94-97, 109-110, 120-125 entry H          line    70 file /opt/software/pc2/EB-SW/software/PSI4/1.9-foss-2022a/share/psi4/basis/jun-cc-pvdz-jkfit.gbs 

  ==> Integral Setup <==

  ==> DiskDFJK: Density-Fitted J/K Matrices <==

    J tasked:                  Yes
    K tasked:                  Yes
    wK tasked:                  No
    OpenMP threads:             16
    Integrals threads:          16
    Memory [MiB]:            33617
    Algorithm:                Disk
    Integral Cache:           SAVE
    Schwarz Cutoff:          1E-12
    Fitting Condition:       1E-10

   => Auxiliary Basis Set <=

  Basis Set: (JUN-CC-PVDZ AUX)
    Blend: JUN-CC-PVDZ-JKFIT
    Number of shells: 2943
    Number of basis functions: 8531
    Number of Cartesian functions: 9791
    Spherical Harmonics?: true
    Max angular momentum: 3

  Minimum eigenvalue in the overlap matrix is 8.7387810454E-11.
  Reciprocal condition number of the overlap matrix is 3.7032188232E-12.
    Using canonical orthogonalization.
  Overall, 39 of 1938 possible MOs eliminated.


  ==> Pre-Iterations <==

  SCF Guess: Superposition of Atomic Densities via on-the-fly atomic UHF (no occupation information).

   -------------------------
    Irrep   Nso     Nmo    
   -------------------------
     A       1938    1899 
   -------------------------
    Total    1938    1899
   -------------------------

  ==> Iterations <==

                           Total Energy        Delta E     RMS |[F,P]|

   @DF-RHF iter SAD: -4085.07283769617879   -4.08507e+03   0.00000e+00 
   @DF-RHF iter   1: -4071.50924868697848    1.35636e+01   7.92510e-04 DIIS/ADIIS
   @DF-RHF iter   2: -4072.91656069111696   -1.40731e+00   3.12141e-04 DIIS/ADIIS
   @DF-RHF iter   3: -4073.08595294963743   -1.69392e-01   1.04663e-04 DIIS/ADIIS
   @DF-RHF iter   4: -4073.10883417146306   -2.28812e-02   4.02743e-05 DIIS
   @DF-RHF iter   5: -4073.11273515024277   -3.90098e-03   1.16760e-05 DIIS
   @DF-RHF iter   6: -4073.11322849804674   -4.93348e-04   4.56481e-06 DIIS
   @DF-RHF iter   7: -4073.11341037431521   -1.81876e-04   2.46865e-06 DIIS
   @DF-RHF iter   8: -4073.11346941818374   -5.90439e-05   1.25920e-06 DIIS
   @DF-RHF iter   9: -4073.11348987690053   -2.04587e-05   4.33875e-07 DIIS
   @DF-RHF iter  10: -4073.11349122314778   -1.34625e-06   1.80950e-07 DIIS
   @DF-RHF iter  11: -4073.11349144228643   -2.19139e-07   6.45201e-08 DIIS
   @DF-RHF iter  12: -4073.11349147995588   -3.76695e-08   3.46098e-08 DIIS
   @DF-RHF iter  13: -4073.11349149016860   -1.02127e-08   1.31525e-08 DIIS
   @DF-RHF iter  14: -4073.11349149172929   -1.56069e-09   7.39745e-09 DIIS
  Energy and wave function converged.


  ==> Post-Iterations <==

    Orbital Energies [Eh]
    ---------------------

    Doubly Occupied:                                                      

       1A    -26.084708     2A    -26.084610     3A    -26.084533  
       4A    -26.078474     5A    -11.198688     6A    -11.198685  
       7A    -11.198676     8A    -11.198671     9A    -11.198665  
      10A    -11.198660    11A    -11.198611    12A    -11.198608  
      13A    -11.198606    14A    -11.198598    15A    -11.198597  
      16A    -11.198595    17A    -11.197922    18A    -11.197899  
      19A    -11.197895    20A    -11.197820    21A    -11.197803  
      22A    -11.197799    23A    -11.195279    24A    -11.195277  
      25A    -11.195275    26A    -11.195275    27A    -11.195271  
      28A    -11.195269    29A    -11.194877    30A    -11.194868  
      31A    -11.194853    32A    -11.194762    33A    -11.194754  
      34A    -11.194680    35A    -11.194676    36A    -11.194573  
      37A    -11.194565    38A    -11.194444    39A    -11.194436  
      40A    -11.194385    41A    -11.193875    42A    -11.193823  
      43A    -11.193821    44A    -11.193820    45A    -11.193818  
      46A    -11.193815    47A    -11.193813    48A    -11.193811  
      49A    -11.193808    50A    -11.193695    51A    -11.193682  
      52A    -11.193627    53A    -11.193117    54A    -11.193058  
      55A    -11.193055    56A    -11.192938    57A    -11.192936  
      58A    -11.192853    59A    -11.192753    60A    -11.192702  
      61A    -11.192687    62A    -11.192617    63A    -11.192611  
      64A    -11.192593    65A    -11.190996    66A    -11.190963  
      67A    -11.190955    68A    -11.190884    69A    -11.190872  
      70A    -11.190827    71A    -11.190675    72A    -11.190673  
      73A    -11.190660    74A    -11.190586    75A    -11.190584  
      76A    -11.190579    77A    -11.190577    78A    -11.190565  
      79A    -11.190556    80A    -11.190492    81A    -11.190488  
      82A    -11.190464    83A    -11.190038    84A    -11.189971  
      85A    -11.189954    86A    -11.189828    87A    -11.189823  
      88A    -11.189763    89A    -11.188091    90A    -11.188040  
      91A    -11.188004    92A    -11.187886    93A    -11.187789  
      94A    -11.187769    95A    -11.186717    96A    -11.186331  
      97A    -11.186249    98A    -11.185332    99A    -11.185232  
     100A    -11.184771   101A     -7.554720   102A     -1.427090  
     103A     -1.368856   104A     -1.368695   105A     -1.364056  
     106A     -1.182284   107A     -1.170640   108A     -1.170636  
     109A     -1.153952   110A     -1.153945   111A     -1.145117  
     112A     -1.136054   113A     -1.129801   114A     -1.118990  
     115A     -1.118985   116A     -1.109141   117A     -1.109137  
     118A     -1.087527   119A     -1.087520   120A     -1.083852  
     121A     -1.080501   122A     -1.080498   123A     -1.062105  
     124A     -1.048846   125A     -1.047886   126A     -1.046985  
     127A     -1.044184   128A     -1.044165   129A     -1.022211  
     130A     -1.022195   131A     -1.012928   132A     -1.012926  
     133A     -1.000491   134A     -1.000461   135A     -0.996783  
     136A     -0.981296   137A     -0.981289   138A     -0.974676  
     139A     -0.974673   140A     -0.974672   141A     -0.957599  
     142A     -0.951365   143A     -0.951312   144A     -0.942317  
     145A     -0.940306   146A     -0.937717   147A     -0.933409  
     148A     -0.933364   149A     -0.927618   150A     -0.904319  
     151A     -0.904273   152A     -0.891031   153A     -0.890977  
     154A     -0.842503   155A     -0.842462   156A     -0.837207  
     157A     -0.837163   158A     -0.834673   159A     -0.823500  
     160A     -0.823440   161A     -0.822566   162A     -0.822060  
     163A     -0.822001   164A     -0.808110   165A     -0.807192  
     166A     -0.787471   167A     -0.780710   168A     -0.780692  
     169A     -0.777566   170A     -0.776437   171A     -0.769317  
     172A     -0.769305   173A     -0.764729   174A     -0.764726  
     175A     -0.721493   176A     -0.721476   177A     -0.716337  
     178A     -0.716317   179A     -0.715412   180A     -0.715392  
     181A     -0.714673   182A     -0.701720   183A     -0.692925  
     184A     -0.683420   185A     -0.670202   186A     -0.661706  
     187A     -0.661692   188A     -0.659201   189A     -0.659180  
     190A     -0.659165   191A     -0.650321   192A     -0.646773  
     193A     -0.646762   194A     -0.635066   195A     -0.635056  
     196A     -0.621858   197A     -0.621856   198A     -0.618644  
     199A     -0.618201   200A     -0.617346   201A     -0.617335  
     202A     -0.613398   203A     -0.589227   204A     -0.586139  
     205A     -0.586110   206A     -0.585567   207A     -0.582811  
     208A     -0.582797   209A     -0.575639   210A     -0.575093  
     211A     -0.574346   212A     -0.574319   213A     -0.569977  
     214A     -0.569945   215A     -0.563784   216A     -0.551494  
     217A     -0.551470   218A     -0.546049   219A     -0.544986  
     220A     -0.544902   221A     -0.544611   222A     -0.544608  
     223A     -0.542580   224A     -0.533280   225A     -0.532341  
     226A     -0.532251   227A     -0.532237   228A     -0.531182  
     229A     -0.531171   230A     -0.530431   231A     -0.530427  
     232A     -0.530158   233A     -0.525536   234A     -0.525534  
     235A     -0.524549   236A     -0.519268   237A     -0.515527  
     238A     -0.515516   239A     -0.509310   240A     -0.509295  
     241A     -0.509065   242A     -0.502944   243A     -0.502935  
     244A     -0.499826   245A     -0.499793   246A     -0.498505  
     247A     -0.497967   248A     -0.495508   249A     -0.492463  
     250A     -0.492443   251A     -0.488435   252A     -0.485986  
     253A     -0.485796   254A     -0.478786   255A     -0.469249  
     256A     -0.469241   257A     -0.466585   258A     -0.466554  
     259A     -0.463647   260A     -0.463626   261A     -0.461990  
     262A     -0.461976   263A     -0.460054   264A     -0.451291  
     265A     -0.451285   266A     -0.451174   267A     -0.451143  
     268A     -0.445884   269A     -0.445866   270A     -0.432794  
     271A     -0.430593   272A     -0.430559   273A     -0.426229  
     274A     -0.425406   275A     -0.425381   276A     -0.424520  
     277A     -0.424432   278A     -0.417647   279A     -0.417154  
     280A     -0.413857   281A     -0.413854   282A     -0.409274  
     283A     -0.402413   284A     -0.402336   285A     -0.400506  
     286A     -0.400495   287A     -0.400216   288A     -0.400161  
     289A     -0.392402   290A     -0.377521   291A     -0.377459  
     292A     -0.373157   293A     -0.371779   294A     -0.371331  
     295A     -0.371265   296A     -0.370261   297A     -0.341059  
     298A     -0.341037   299A     -0.322641   300A     -0.322635  
     301A     -0.318569   302A     -0.318518   303A     -0.314645  
     304A     -0.288735   305A     -0.288716   306A     -0.284576  
     307A     -0.269734   308A     -0.269730   309A     -0.266843  
     310A     -0.262671   311A     -0.262575   312A     -0.239309  
     313A     -0.235775   314A     -0.233268   315A     -0.233211  
     316A     -0.221024   317A     -0.194723   318A     -0.185033  
     319A     -0.184961   320A     -0.138557   321A     -0.138472  

    Virtual:                                                              

     322A      0.053575   323A      0.053656   324A      0.093514  
     325A      0.093532   326A      0.094176   327A      0.095882  
     328A      0.096027   329A      0.100579   330A      0.101292  
     331A      0.102720   332A      0.102797   333A      0.103774  
     334A      0.109268   335A      0.109275   336A      0.120556  
     337A      0.120563   338A      0.129533   339A      0.129619  
     340A      0.131871   341A      0.135819   342A      0.136192  
     343A      0.136750   344A      0.137473   345A      0.137662  
     346A      0.138040   347A      0.138947   348A      0.139448  
     349A      0.139862   350A      0.141726   351A      0.141730  
     352A      0.147120   353A      0.147880   354A      0.148035  
     355A      0.148350   356A      0.148408   357A      0.148433  
     358A      0.154974   359A      0.160417   360A      0.160440  
     361A      0.160514   362A      0.162439   363A      0.162577  
     364A      0.163248   365A      0.168016   366A      0.169118  
     367A      0.169683   368A      0.169777   369A      0.170057  
     370A      0.170759   371A      0.171540   372A      0.171604  
     373A      0.173019   374A      0.173139   375A      0.175625  
     376A      0.178204   377A      0.178236   378A      0.179697  
     379A      0.179708   380A      0.186002   381A      0.186006  
     382A      0.188708   383A      0.193414   384A      0.193527  
     385A      0.193701   386A      0.197190   387A      0.197201  
     388A      0.199863   389A      0.201475   390A      0.201619  
     391A      0.202253   392A      0.202421   393A      0.210709  
     394A      0.213294   395A      0.214358   396A      0.214773  
     397A      0.214791   398A      0.216129   399A      0.217744  
     400A      0.219074   401A      0.219251   402A      0.219572  
     403A      0.221873   404A      0.221908   405A      0.222925  
     406A      0.223546   407A      0.223598   408A      0.224483  
     409A      0.224555   410A      0.227436   411A      0.227773  
     412A      0.232720   413A      0.234130   414A      0.237045  
     415A      0.237056   416A      0.241355   417A      0.241482  
     418A      0.241591   419A      0.241720   420A      0.241904  
     421A      0.242077   422A      0.248130   423A      0.249403  
     424A      0.250170   425A      0.251587   426A      0.252787  
     427A      0.255568   428A      0.255770   429A      0.255969  
     430A      0.258000   431A      0.258121   432A      0.258211  
     433A      0.259272   434A      0.260744   435A      0.261938  
     436A      0.266984   437A      0.267123   438A      0.269872  
     439A      0.270053   440A      0.270857   441A      0.270903  
     442A      0.271303   443A      0.271649   444A      0.272143  
     445A      0.272491   446A      0.272711   447A      0.273487  
     448A      0.274160   449A      0.274203   450A      0.276081  
     451A      0.276744   452A      0.277536   453A      0.279273  
     454A      0.282738   455A      0.283520   456A      0.286740  
     457A      0.287787   458A      0.287987   459A      0.289543  
     460A      0.290246   461A      0.290290   462A      0.290819  
     463A      0.291605   464A      0.293000   465A      0.293132  
     466A      0.294758   467A      0.295711   468A      0.295736  
     469A      0.299370   470A      0.303883   471A      0.303890  
     472A      0.304504   473A      0.306915   474A      0.308845  
     475A      0.312703   476A      0.314257   477A      0.314301  
     478A      0.314557   479A      0.316299   480A      0.316541  
     481A      0.318615   482A      0.319037   483A      0.319093  
     484A      0.320048   485A      0.322179   486A      0.322872  
     487A      0.323872   488A      0.326053   489A      0.326200  
     490A      0.327261   491A      0.328520   492A      0.328846  
     493A      0.334557   494A      0.336309   495A      0.336352  
     496A      0.336908   497A      0.337379   498A      0.339339  
     499A      0.339636   500A      0.339687   501A      0.340379  
     502A      0.340677   503A      0.341265   504A      0.345110  
     505A      0.345431   506A      0.346178   507A      0.347560  
     508A      0.348224   509A      0.349138   510A      0.351396  
     511A      0.357112   512A      0.357146   513A      0.358758  
     514A      0.359775   515A      0.360653   516A      0.364072  
     517A      0.364168   518A      0.364689   519A      0.365338  
     520A      0.366034   521A      0.366722   522A      0.366811  
     523A      0.367235   524A      0.369577   525A      0.369595  
     526A      0.370789   527A      0.370863   528A      0.372620  
     529A      0.372963   530A      0.373573   531A      0.374053  
     532A      0.377372   533A      0.377819   534A      0.378188  
     535A      0.378967   536A      0.380114   537A      0.383315  
     538A      0.383456   539A      0.384533   540A      0.384747  
     541A      0.387772   542A      0.387918   543A      0.388329  
     544A      0.388884   545A      0.390138   546A      0.390200  
     547A      0.390345   548A      0.390950   549A      0.394577  
     550A      0.394948   551A      0.395112   552A      0.396604  
     553A      0.396909   554A      0.399962   555A      0.400917  
     556A      0.400941   557A      0.402203   558A      0.404113  
     559A      0.404172   560A      0.405645   561A      0.407095  
     562A      0.410785   563A      0.411842   564A      0.413999  
     565A      0.416402   566A      0.419415   567A      0.419613  
     568A      0.419739   569A      0.420940   570A      0.421765  
     571A      0.421872   572A      0.422548   573A      0.424393  
     574A      0.424825   575A      0.428064   576A      0.428146  
     577A      0.428590   578A      0.430957   579A      0.433745  
     580A      0.433921   581A      0.435471   582A      0.436520  
     583A      0.436636   584A      0.439893   585A      0.440503  
     586A      0.442218   587A      0.442256   588A      0.443634  
     589A      0.444548   590A      0.445164   591A      0.448639  
     592A      0.448705   593A      0.450881   594A      0.451914  
     595A      0.452274   596A      0.452696   597A      0.455036  
     598A      0.455719   599A      0.457297   600A      0.457383  
     601A      0.457621   602A      0.458639   603A      0.458813  
     604A      0.461108   605A      0.461205   606A      0.462485  
     607A      0.463182   608A      0.464120   609A      0.464263  
     610A      0.464587   611A      0.467617   612A      0.468300  
     613A      0.468845   614A      0.469842   615A      0.470066  
     616A      0.470158   617A      0.470295   618A      0.472051  
     619A      0.472146   620A      0.473563   621A      0.473868  
     622A      0.474110   623A      0.474608   624A      0.474978  
     625A      0.475230   626A      0.475371   627A      0.479773  
     628A      0.479839   629A      0.480882   630A      0.482601  
     631A      0.483915   632A      0.484529   633A      0.484623  
     634A      0.486438   635A      0.486623   636A      0.487284  
     637A      0.489186   638A      0.489264   639A      0.489622  
     640A      0.494222   641A      0.494319   642A      0.494398  
     643A      0.494452   644A      0.497150   645A      0.497239  
     646A      0.497513   647A      0.498061   648A      0.499441  
     649A      0.499532   650A      0.501329   651A      0.501503  
     652A      0.501911   653A      0.502250   654A      0.503306  
     655A      0.503713   656A      0.507058   657A      0.508379  
     658A      0.509093   659A      0.509563   660A      0.510674  
     661A      0.512245   662A      0.513067   663A      0.515051  
     664A      0.515062   665A      0.516025   666A      0.516657  
     667A      0.518268   668A      0.518649   669A      0.519387  
     670A      0.520124   671A      0.522080   672A      0.522359  
     673A      0.524900   674A      0.525115   675A      0.525208  
     676A      0.526190   677A      0.528782   678A      0.529168  
     679A      0.530465   680A      0.531804   681A      0.533190  
     682A      0.533305   683A      0.533952   684A      0.536715  
     685A      0.538001   686A      0.538308   687A      0.539468  
     688A      0.540213   689A      0.542261   690A      0.542986  
     691A      0.543352   692A      0.543974   693A      0.546063  
     694A      0.546595   695A      0.547268   696A      0.548041  
     697A      0.548344   698A      0.548531   699A      0.551696  
     700A      0.552627   701A      0.555502   702A      0.556600  
     703A      0.557620   704A      0.557973   705A      0.559512  
     706A      0.560086   707A      0.560421   708A      0.561278  
     709A      0.561486   710A      0.563039   711A      0.564401  
     712A      0.564696   713A      0.564813   714A      0.565346  
     715A      0.567092   716A      0.567782   717A      0.568849  
     718A      0.572539   719A      0.573557   720A      0.575928  
     721A      0.576597   722A      0.577129   723A      0.577831  
     724A      0.580392   725A      0.581517   726A      0.582717  
     727A      0.583043   728A      0.583626   729A      0.586606  
     730A      0.589060   731A      0.589148   732A      0.589605  
     733A      0.593863   734A      0.594247   735A      0.596952  
     736A      0.597552   737A      0.599189   738A      0.599877  
     739A      0.599901   740A      0.603171   741A      0.603395  
     742A      0.603698   743A      0.604577   744A      0.606963  
     745A      0.613448   746A      0.614742   747A      0.615330  
     748A      0.621262   749A      0.623521   750A      0.624102  
     751A      0.625870   752A      0.627723   753A      0.628525  
     754A      0.629039   755A      0.629330   756A      0.629700  
     757A      0.631836   758A      0.632507   759A      0.634137  
     760A      0.636630   761A      0.637659   762A      0.639895  
     763A      0.643461   764A      0.644164   765A      0.647733  
     766A      0.648401   767A      0.649430   768A      0.650541  
     769A      0.650788   770A      0.651229   771A      0.651663  
     772A      0.654509   773A      0.655457   774A      0.656564  
     775A      0.663058   776A      0.664110   777A      0.664887  
     778A      0.665863   779A      0.666282   780A      0.668613  
     781A      0.670618   782A      0.671823   783A      0.673500  
     784A      0.675317   785A      0.676708   786A      0.678240  
     787A      0.681849   788A      0.682431   789A      0.684259  
     790A      0.686543   791A      0.687431   792A      0.689450  
     793A      0.692608   794A      0.692938   795A      0.698981  
     796A      0.700805   797A      0.706649   798A      0.707170  
     799A      0.707842   800A      0.709932   801A      0.712336  
     802A      0.713941   803A      0.714760   804A      0.721218  
     805A      0.724649   806A      0.725427   807A      0.725683  
     808A      0.728156   809A      0.728183   810A      0.730393  
     811A      0.730624   812A      0.734886   813A      0.740861  
     814A      0.742285   815A      0.744377   816A      0.744457  
     817A      0.747406   818A      0.748558   819A      0.752672  
     820A      0.754281   821A      0.755097   822A      0.755535  
     823A      0.756266   824A      0.758076   825A      0.761418  
     826A      0.761506   827A      0.767202   828A      0.769239  
     829A      0.774330   830A      0.775643   831A      0.775939  
     832A      0.781093   833A      0.782753   834A      0.783066  
     835A      0.791971   836A      0.794680   837A      0.795584  
     838A      0.797595   839A      0.797717   840A      0.804402  
     841A      0.805704   842A      0.807955   843A      0.811064  
     844A      0.811855   845A      0.819230   846A      0.820031  
     847A      0.820810   848A      0.821046   849A      0.821663  
     850A      0.829440   851A      0.841862   852A      0.847447  
     853A      0.851610   854A      0.851758   855A      0.854936  
     856A      0.857249   857A      0.858290   858A      0.860079  
     859A      0.860185   860A      0.862340   861A      0.863848  
     862A      0.867080   863A      0.867596   864A      0.868404  
     865A      0.870708   866A      0.871030   867A      0.877450  
     868A      0.878602   869A      0.879079   870A      0.879781  
     871A      0.880759   872A      0.881581   873A      0.882313  
     874A      0.883412   875A      0.891669   876A      0.892258  
     877A      0.894116   878A      0.901347   879A      0.901431  
     880A      0.903126   881A      0.903792   882A      0.909010  
     883A      0.909162   884A      0.912602   885A      0.915956  
     886A      0.917364   887A      0.918407   888A      0.919578  
     889A      0.921498   890A      0.925521   891A      0.926301  
     892A      0.926407   893A      0.927695   894A      0.928699  
     895A      0.929899   896A      0.931726   897A      0.934998  
     898A      0.936043   899A      0.936466   900A      0.938577  
     901A      0.938868   902A      0.941553   903A      0.941735  
     904A      0.945221   905A      0.948207   906A      0.948967  
     907A      0.950333   908A      0.950845   909A      0.951200  
     910A      0.957765   911A      0.959568   912A      0.962393  
     913A      0.962878   914A      0.963603   915A      0.964533  
     916A      0.969148   917A      0.969313   918A      0.973552  
     919A      0.976068   920A      0.978469   921A      0.979023  
     922A      0.980382   923A      0.980911   924A      0.982091  
     925A      0.983396   926A      0.983563   927A      0.984524  
     928A      0.987515   929A      0.991233   930A      0.991893  
     931A      0.993584   932A      0.994168   933A      0.995634  
     934A      0.997710   935A      0.998814   936A      1.001101  
     937A      1.001758   938A      1.002317   939A      1.003344  
     940A      1.006881   941A      1.007357   942A      1.007608  
     943A      1.010031   944A      1.012616   945A      1.013137  
     946A      1.013336   947A      1.017677   948A      1.018016  
     949A      1.018312   950A      1.018647   951A      1.019408  
     952A      1.019632   953A      1.019841   954A      1.020047  
     955A      1.028151   956A      1.028273   957A      1.030749  
     958A      1.035384   959A      1.036458   960A      1.042324  
     961A      1.043089   962A      1.045374   963A      1.045679  
     964A      1.049970   965A      1.055413   966A      1.055778  
     967A      1.058210   968A      1.059549   969A      1.059686  
     970A      1.061727   971A      1.066803   972A      1.067948  
     973A      1.068335   974A      1.068547   975A      1.069487  
     976A      1.069560   977A      1.075909   978A      1.078261  
     979A      1.079324   980A      1.081383   981A      1.082505  
     982A      1.083259   983A      1.083737   984A      1.085296  
     985A      1.086300   986A      1.090083   987A      1.090708  
     988A      1.091216   989A      1.093280   990A      1.099183  
     991A      1.100576   992A      1.100980   993A      1.109612  
     994A      1.109737   995A      1.111347   996A      1.112195  
     997A      1.112473   998A      1.113547   999A      1.115199  
    1000A      1.115984  1001A      1.118340  1002A      1.118597  
    1003A      1.119473  1004A      1.119845  1005A      1.123227  
    1006A      1.123916  1007A      1.124423  1008A      1.125968  
    1009A      1.126656  1010A      1.127506  1011A      1.127630  
    1012A      1.128930  1013A      1.130667  1014A      1.132775  
    1015A      1.134330  1016A      1.134991  1017A      1.135531  
    1018A      1.135745  1019A      1.139013  1020A      1.140122  
    1021A      1.140689  1022A      1.141478  1023A      1.142115  
    1024A      1.142665  1025A      1.142876  1026A      1.143026  
    1027A      1.145115  1028A      1.145217  1029A      1.145533  
    1030A      1.146346  1031A      1.146495  1032A      1.147493  
    1033A      1.148294  1034A      1.148422  1035A      1.149647  
    1036A      1.150211  1037A      1.150307  1038A      1.150845  
    1039A      1.151058  1040A      1.151530  1041A      1.151610  
    1042A      1.153222  1043A      1.158294  1044A      1.158817  
    1045A      1.161789  1046A      1.163708  1047A      1.166992  
    1048A      1.167732  1049A      1.167993  1050A      1.168968  
    1051A      1.169473  1052A      1.170705  1053A      1.172989  
    1054A      1.174365  1055A      1.175272  1056A      1.175678  
    1057A      1.177166  1058A      1.183673  1059A      1.185505  
    1060A      1.188941  1061A      1.189001  1062A      1.190347  
    1063A      1.190847  1064A      1.194066  1065A      1.194611  
    1066A      1.197352  1067A      1.198557  1068A      1.198769  
    1069A      1.199965  1070A      1.201186  1071A      1.202798  
    1072A      1.205095  1073A      1.205243  1074A      1.211159  
    1075A      1.212862  1076A      1.216180  1077A      1.217063  
    1078A      1.217750  1079A      1.218639  1080A      1.218907  
    1081A      1.222159  1082A      1.222911  1083A      1.223260  
    1084A      1.224107  1085A      1.225834  1086A      1.226009  
    1087A      1.231433  1088A      1.236157  1089A      1.236758  
    1090A      1.237519  1091A      1.238523  1092A      1.239309  
    1093A      1.241299  1094A      1.244207  1095A      1.244800  
    1096A      1.246199  1097A      1.249894  1098A      1.251129  
    1099A      1.253311  1100A      1.254349  1101A      1.256924  
    1102A      1.258558  1103A      1.261810  1104A      1.262401  
    1105A      1.267512  1106A      1.268116  1107A      1.270046  
    1108A      1.270595  1109A      1.271581  1110A      1.272673  
    1111A      1.276453  1112A      1.278386  1113A      1.278474  
    1114A      1.278740  1115A      1.279004  1116A      1.280574  
    1117A      1.283247  1118A      1.290589  1119A      1.291857  
    1120A      1.293335  1121A      1.293389  1122A      1.297994  
    1123A      1.303380  1124A      1.303458  1125A      1.312517  
    1126A      1.316700  1127A      1.317100  1128A      1.318488  
    1129A      1.319920  1130A      1.320083  1131A      1.323464  
    1132A      1.327223  1133A      1.327374  1134A      1.330593  
    1135A      1.331488  1136A      1.332544  1137A      1.337341  
    1138A      1.337782  1139A      1.345656  1140A      1.345807  
    1141A      1.351935  1142A      1.353563  1143A      1.355522  
    1144A      1.355753  1145A      1.357059  1146A      1.357868  
    1147A      1.359476  1148A      1.359948  1149A      1.362849  
    1150A      1.368022  1151A      1.368446  1152A      1.369870  
    1153A      1.374182  1154A      1.376916  1155A      1.378749  
    1156A      1.379114  1157A      1.381536  1158A      1.381701  
    1159A      1.383052  1160A      1.385627  1161A      1.386778  
    1162A      1.389189  1163A      1.390414  1164A      1.391514  
    1165A      1.392791  1166A      1.393139  1167A      1.393931  
    1168A      1.396943  1169A      1.398627  1170A      1.400610  
    1171A      1.400697  1172A      1.402207  1173A      1.406440  
    1174A      1.406685  1175A      1.421961  1176A      1.422058  
    1177A      1.423914  1178A      1.424259  1179A      1.425891  
    1180A      1.426383  1181A      1.426456  1182A      1.426955  
    1183A      1.428448  1184A      1.428512  1185A      1.439895  
    1186A      1.440035  1187A      1.440266  1188A      1.440380  
    1189A      1.446686  1190A      1.452275  1191A      1.452443  
    1192A      1.452617  1193A      1.456347  1194A      1.456804  
    1195A      1.458131  1196A      1.462388  1197A      1.462504  
    1198A      1.470751  1199A      1.473136  1200A      1.473526  
    1201A      1.474397  1202A      1.475241  1203A      1.475325  
    1204A      1.475847  1205A      1.477291  1206A      1.483440  
    1207A      1.483541  1208A      1.487281  1209A      1.487542  
    1210A      1.494149  1211A      1.494934  1212A      1.496865  
    1213A      1.496996  1214A      1.497380  1215A      1.498675  
    1216A      1.499435  1217A      1.501159  1218A      1.506800  
    1219A      1.507266  1220A      1.508298  1221A      1.510563  
    1222A      1.511100  1223A      1.517424  1224A      1.521415  
    1225A      1.521709  1226A      1.522222  1227A      1.522849  
    1228A      1.523757  1229A      1.526086  1230A      1.527024  
    1231A      1.533513  1232A      1.537054  1233A      1.539095  
    1234A      1.540293  1235A      1.541199  1236A      1.542458  
    1237A      1.544173  1238A      1.549969  1239A      1.550600  
    1240A      1.550839  1241A      1.552793  1242A      1.559167  
    1243A      1.564690  1244A      1.564826  1245A      1.566980  
    1246A      1.574635  1247A      1.574794  1248A      1.576365  
    1249A      1.585603  1250A      1.586924  1251A      1.602762  
    1252A      1.602983  1253A      1.605943  1254A      1.613912  
    1255A      1.615855  1256A      1.621867  1257A      1.621898  
    1258A      1.649333  1259A      1.652847  1260A      1.658861  
    1261A      1.662156  1262A      1.666239  1263A      1.673227  
    1264A      1.674376  1265A      1.674694  1266A      1.675602  
    1267A      1.676103  1268A      1.676930  1269A      1.679701  
    1270A      1.680110  1271A      1.680733  1272A      1.683723  
    1273A      1.684584  1274A      1.684773  1275A      1.686305  
    1276A      1.686501  1277A      1.688470  1278A      1.690920  
    1279A      1.691315  1280A      1.693000  1281A      1.694947  
    1282A      1.696093  1283A      1.696707  1284A      1.700051  
    1285A      1.700525  1286A      1.702289  1287A      1.703218  
    1288A      1.704905  1289A      1.706292  1290A      1.707126  
    1291A      1.707369  1292A      1.707485  1293A      1.707671  
    1294A      1.709841  1295A      1.711983  1296A      1.712753  
    1297A      1.714652  1298A      1.715362  1299A      1.717978  
    1300A      1.718329  1301A      1.721424  1302A      1.721774  
    1303A      1.723270  1304A      1.724544  1305A      1.733712  
    1306A      1.734322  1307A      1.734849  1308A      1.736638  
    1309A      1.736848  1310A      1.737022  1311A      1.738732  
    1312A      1.739772  1313A      1.741147  1314A      1.741825  
    1315A      1.742292  1316A      1.747236  1317A      1.747673  
    1318A      1.753401  1319A      1.755674  1320A      1.759329  
    1321A      1.761776  1322A      1.764226  1323A      1.765078  
    1324A      1.765945  1325A      1.770467  1326A      1.773469  
    1327A      1.773560  1328A      1.778539  1329A      1.780281  
    1330A      1.780469  1331A      1.781235  1332A      1.785037  
    1333A      1.787145  1334A      1.789550  1335A      1.790045  
    1336A      1.792979  1337A      1.793063  1338A      1.794722  
    1339A      1.803250  1340A      1.813261  1341A      1.813449  
    1342A      1.815216  1343A      1.815483  1344A      1.822344  
    1345A      1.830744  1346A      1.832415  1347A      1.832885  
    1348A      1.845467  1349A      1.847321  1350A      1.849104  
    1351A      1.849609  1352A      1.872760  1353A      1.872979  
    1354A      1.876601  1355A      1.884864  1356A      1.887944  
    1357A      1.891062  1358A      1.891347  1359A      1.891782  
    1360A      1.892037  1361A      1.894822  1362A      1.898562  
    1363A      1.898955  1364A      1.900506  1365A      1.904038  
    1366A      1.909434  1367A      1.911133  1368A      1.914157  
    1369A      1.915057  1370A      1.915529  1371A      1.918453  
    1372A      1.918708  1373A      1.925297  1374A      1.926025  
    1375A      1.930279  1376A      1.930422  1377A      1.932777  
    1378A      1.932909  1379A      1.936276  1380A      1.937087  
    1381A      1.937942  1382A      1.938564  1383A      1.938657  
    1384A      1.943655  1385A      1.944138  1386A      1.947553  
    1387A      1.948460  1388A      1.949474  1389A      1.950000  
    1390A      1.951844  1391A      1.952936  1392A      1.956215  
    1393A      1.959076  1394A      1.967647  1395A      1.967775  
    1396A      1.969803  1397A      1.970397  1398A      1.974384  
    1399A      1.976765  1400A      1.984120  1401A      1.984586  
    1402A      1.988736  1403A      1.990186  1404A      1.990569  
    1405A      1.992177  1406A      1.995758  1407A      1.995846  
    1408A      1.998978  1409A      1.999132  1410A      2.002994  
    1411A      2.003709  1412A      2.004303  1413A      2.007577  
    1414A      2.008190  1415A      2.009608  1416A      2.010267  
    1417A      2.010441  1418A      2.011581  1419A      2.020589  
    1420A      2.021589  1421A      2.022021  1422A      2.022481  
    1423A      2.022601  1424A      2.027282  1425A      2.027742  
    1426A      2.030979  1427A      2.032590  1428A      2.033378  
    1429A      2.034235  1430A      2.035891  1431A      2.038381  
    1432A      2.042250  1433A      2.046233  1434A      2.048601  
    1435A      2.049760  1436A      2.053779  1437A      2.054088  
    1438A      2.054285  1439A      2.058235  1440A      2.058878  
    1441A      2.059839  1442A      2.062318  1443A      2.065899  
    1444A      2.067952  1445A      2.070819  1446A      2.071700  
    1447A      2.072925  1448A      2.073863  1449A      2.080805  
    1450A      2.082288  1451A      2.083354  1452A      2.084040  
    1453A      2.085196  1454A      2.086966  1455A      2.087918  
    1456A      2.088209  1457A      2.089301  1458A      2.093325  
    1459A      2.093952  1460A      2.094858  1461A      2.097168  
    1462A      2.099094  1463A      2.100928  1464A      2.101912  
    1465A      2.104320  1466A      2.106005  1467A      2.107703  
    1468A      2.107931  1469A      2.111698  1470A      2.112906  
    1471A      2.116496  1472A      2.118172  1473A      2.121656  
    1474A      2.123668  1475A      2.125369  1476A      2.126731  
    1477A      2.130619  1478A      2.132166  1479A      2.133221  
    1480A      2.134043  1481A      2.134592  1482A      2.136925  
    1483A      2.138408  1484A      2.140372  1485A      2.142169  
    1486A      2.143619  1487A      2.145522  1488A      2.146996  
    1489A      2.147788  1490A      2.148781  1491A      2.149243  
    1492A      2.152090  1493A      2.152773  1494A      2.153091  
    1495A      2.153308  1496A      2.153528  1497A      2.154122  
    1498A      2.155378  1499A      2.157314  1500A      2.159484  
    1501A      2.159659  1502A      2.160987  1503A      2.163179  
    1504A      2.164100  1505A      2.164812  1506A      2.167717  
    1507A      2.168635  1508A      2.173638  1509A      2.174263  
    1510A      2.174950  1511A      2.177278  1512A      2.181648  
    1513A      2.182553  1514A      2.182915  1515A      2.183250  
    1516A      2.183378  1517A      2.184597  1518A      2.185214  
    1519A      2.186782  1520A      2.188578  1521A      2.190407  
    1522A      2.192013  1523A      2.193171  1524A      2.195869  
    1525A      2.196631  1526A      2.198699  1527A      2.199735  
    1528A      2.201978  1529A      2.202828  1530A      2.205619  
    1531A      2.206950  1532A      2.207761  1533A      2.208397  
    1534A      2.211574  1535A      2.213214  1536A      2.214177  
    1537A      2.218407  1538A      2.222132  1539A      2.225390  
    1540A      2.225935  1541A      2.227120  1542A      2.227220  
    1543A      2.227737  1544A      2.228288  1545A      2.228824  
    1546A      2.233564  1547A      2.235417  1548A      2.237105  
    1549A      2.238077  1550A      2.240770  1551A      2.246871  
    1552A      2.247952  1553A      2.248270  1554A      2.251232  
    1555A      2.259127  1556A      2.261231  1557A      2.261704  
    1558A      2.262601  1559A      2.263519  1560A      2.265016  
    1561A      2.265614  1562A      2.266576  1563A      2.267088  
    1564A      2.267744  1565A      2.270825  1566A      2.271557  
    1567A      2.272180  1568A      2.274614  1569A      2.274929  
    1570A      2.281107  1571A      2.282409  1572A      2.282834  
    1573A      2.286391  1574A      2.287502  1575A      2.288437  
    1576A      2.289387  1577A      2.291284  1578A      2.292803  
    1579A      2.292963  1580A      2.294107  1581A      2.296234  
    1582A      2.297632  1583A      2.304424  1584A      2.305368  
    1585A      2.307436  1586A      2.309584  1587A      2.310704  
    1588A      2.311030  1589A      2.313220  1590A      2.314105  
    1591A      2.323828  1592A      2.325748  1593A      2.326695  
    1594A      2.330718  1595A      2.334278  1596A      2.336568  
    1597A      2.345037  1598A      2.347070  1599A      2.347593  
    1600A      2.349843  1601A      2.350708  1602A      2.356102  
    1603A      2.363000  1604A      2.364398  1605A      2.364641  
    1606A      2.368752  1607A      2.369837  1608A      2.374380  
    1609A      2.390374  1610A      2.390486  1611A      2.392555  
    1612A      2.393581  1613A      2.394759  1614A      2.394836  
    1615A      2.398333  1616A      2.400976  1617A      2.401843  
    1618A      2.402242  1619A      2.405502  1620A      2.407312  
    1621A      2.408340  1622A      2.408441  1623A      2.410467  
    1624A      2.410849  1625A      2.411164  1626A      2.414931  
    1627A      2.419211  1628A      2.419864  1629A      2.420305  
    1630A      2.441160  1631A      2.445574  1632A      2.449091  
    1633A      2.452782  1634A      2.453215  1635A      2.460724  
    1636A      2.466017  1637A      2.469704  1638A      2.471431  
    1639A      2.483978  1640A      2.486102  1641A      2.491364  
    1642A      2.493499  1643A      2.502016  1644A      2.508222  
    1645A      2.509697  1646A      2.520560  1647A      2.522486  
    1648A      2.529491  1649A      2.529914  1650A      2.533128  
    1651A      2.533471  1652A      2.536370  1653A      2.536718  
    1654A      2.554617  1655A      2.554993  1656A      2.563581  
    1657A      2.566067  1658A      2.570727  1659A      2.571543  
    1660A      2.574210  1661A      2.581562  1662A      2.605029  
    1663A      2.606787  1664A      2.606840  1665A      2.607493  
    1666A      2.608276  1667A      2.610716  1668A      2.612233  
    1669A      2.613174  1670A      2.617174  1671A      2.617795  
    1672A      2.625755  1673A      2.625959  1674A      2.629913  
    1675A      2.633746  1676A      2.636538  1677A      2.643170  
    1678A      2.645649  1679A      2.646087  1680A      2.649976  
    1681A      2.650363  1682A      2.650517  1683A      2.651289  
    1684A      2.654249  1685A      2.657902  1686A      2.666106  
    1687A      2.666578  1688A      2.678033  1689A      2.678295  
    1690A      2.678780  1691A      2.679083  1692A      2.682892  
    1693A      2.684492  1694A      2.698569  1695A      2.706662  
    1696A      2.707331  1697A      2.711018  1698A      2.711263  
    1699A      2.712438  1700A      2.715988  1701A      2.716310  
    1702A      2.717206  1703A      2.720094  1704A      2.720707  
    1705A      2.730626  1706A      2.733288  1707A      2.733628  
    1708A      2.734062  1709A      2.735755  1710A      2.740866  
    1711A      2.741055  1712A      2.743000  1713A      2.751372  
    1714A      2.753816  1715A      2.754034  1716A      2.757286  
    1717A      2.757891  1718A      2.758160  1719A      2.759603  
    1720A      2.762025  1721A      2.762951  1722A      2.772956  
    1723A      2.786145  1724A      2.793132  1725A      2.793967  
    1726A      2.794983  1727A      2.796787  1728A      2.796852  
    1729A      2.819236  1730A      2.831835  1731A      2.832469  
    1732A      2.845394  1733A      2.846094  1734A      2.848822  
    1735A      2.849293  1736A      2.867598  1737A      2.867782  
    1738A      2.869854  1739A      2.869910  1740A      2.873728  
    1741A      2.881420  1742A      2.882479  1743A      2.883163  
    1744A      2.883878  1745A      2.884536  1746A      2.888909  
    1747A      2.899360  1748A      2.899858  1749A      2.907139  
    1750A      2.908986  1751A      2.909357  1752A      2.909674  
    1753A      2.912461  1754A      2.932750  1755A      2.933177  
    1756A      2.936059  1757A      2.936739  1758A      2.936933  
    1759A      2.941527  1760A      2.967325  1761A      2.968113  
    1762A      2.980293  1763A      2.980492  1764A      2.989823  
    1765A      2.991786  1766A      2.992916  1767A      2.999081  
    1768A      2.999234  1769A      3.028393  1770A      3.029006  
    1771A      3.029091  1772A      3.040277  1773A      3.056753  
    1774A      3.057644  1775A      3.094740  1776A      3.095735  
    1777A      3.099520  1778A      3.102472  1779A      3.111501  
    1780A      3.113844  1781A      3.114303  1782A      3.116534  
    1783A      3.124338  1784A      3.124387  1785A      3.138273  
    1786A      3.138536  1787A      3.165184  1788A      3.166071  
    1789A      3.175182  1790A      3.187062  1791A      3.188016  
    1792A      3.188576  1793A      3.194470  1794A      3.194631  
    1795A      3.201273  1796A      3.202516  1797A      3.205773  
    1798A      3.206371  1799A      3.216228  1800A      3.216351  
    1801A      3.216763  1802A      3.218342  1803A      3.218722  
    1804A      3.224160  1805A      3.235515  1806A      3.236956  
    1807A      3.239984  1808A      3.240205  1809A      3.256488  
    1810A      3.257004  1811A      3.282266  1812A      3.318262  
    1813A      3.322360  1814A      3.326110  1815A      3.328001  
    1816A      3.329477  1817A      3.330852  1818A      3.334800  
    1819A      3.337002  1820A      3.339594  1821A      3.340218  
    1822A      3.355306  1823A      3.364011  1824A      3.364760  
    1825A      3.369716  1826A      3.375484  1827A      3.431088  
    1828A      3.431660  1829A      3.448078  1830A      3.486092  
    1831A      3.501891  1832A      3.505298  1833A      3.524323  
    1834A      3.525919  1835A      3.528977  1836A      3.533970  
    1837A      3.538176  1838A      3.541948  1839A      3.544315  
    1840A      3.552182  1841A      3.558567  1842A      3.560340  
    1843A      3.577585  1844A      3.583441  1845A      3.618435  
    1846A      3.644147  1847A      3.645630  1848A      3.654059  
    1849A      3.656066  1850A      3.712460  1851A      3.717892  
    1852A      3.734884  1853A      3.736558  1854A      3.774273  
    1855A      3.817818  1856A      3.820285  1857A      3.822229  
    1858A      3.835531  1859A      3.843031  1860A      3.858060  
    1861A      3.908093  1862A      3.912014  1863A      3.937865  
    1864A      3.941161  1865A      3.979476  1866A      3.985182  
    1867A      4.014650  1868A      4.014684  1869A      4.017194  
    1870A      4.018659  1871A      4.035662  1872A      4.040357  
    1873A      4.045481  1874A      4.094186  1875A      4.097292  
    1876A      4.147201  1877A      4.158891  1878A      4.161892  
    1879A      4.163684  1880A      4.190913  1881A      4.194583  
    1882A      4.195507  1883A      4.196644  1884A      4.198109  
    1885A      4.242291  1886A      4.243890  1887A      4.247423  
    1888A      4.328073  1889A      4.392103  1890A      4.434713  
    1891A      4.437732  1892A      4.446717  1893A      4.501798  
    1894A      4.646469  1895A      4.646504  1896A      4.668571  
    1897A      4.741854  1898A      4.776059  1899A      4.776377  

    Final Occupation by Irrep:
              A 
    DOCC [   321 ]
    NA   [   321 ]
    NB   [   321 ]

  @DF-RHF Final Energy: -4073.11349149172929

   => Energetics <=

    Nuclear Repulsion Energy =          17655.6060693499857734
    One-Electron Energy =              -40799.6560192512479261
    Two-Electron Energy =               19070.9364584095310420
    Total Energy =                      -4073.1134914917311107

Computation Completed


Properties will be evaluated at   0.000000,   0.000000,   0.000000 [a0]

Properties computed using the SCF density matrix


 Multipole Moments:

 ------------------------------------------------------------------------------------
     Multipole            Electronic (a.u.)      Nuclear  (a.u.)        Total (a.u.)
 ------------------------------------------------------------------------------------

 L = 1.  Multiply by 2.5417464519 to convert [e a0] to [Debye]
 Dipole X            :          0.0010077           -0.0000548            0.0009530
 Dipole Y            :          0.0013220           -0.0002464            0.0010757
 Dipole Z            :         18.2422494          -23.8049732           -5.5627238
 Magnitude           :                                                    5.5627240

 ------------------------------------------------------------------------------------

*** tstop() called on n2cn0287 at Thu Jan 25 01:55:01 2024
Module time:
	user time   =   25162.03 seconds =     419.37 minutes
	system time =    1324.70 seconds =      22.08 minutes
	total time  =      12707 seconds =     211.78 minutes
Total time:
	user time   =   25162.03 seconds =     419.37 minutes
	system time =    1324.70 seconds =      22.08 minutes
	total time  =      12707 seconds =     211.78 minutes

  //>>>>>>>>>>>>>>>>>>>>>>>>>>>>>>>>>>>//
  //            Monomer A HF           //
  //<<<<<<<<<<<<<<<<<<<<<<<<<<<<<<<<<<<//

   => Libint2 <=

    Primary   basis highest AM E, G, H:  5, 4, 3
    Auxiliary basis highest AM E, G, H:  6, 5, 4
    Onebody   basis highest AM E, G, H:  6, 5, 4
    Solid Harmonics ordering:            gaussian

*** tstart() called on n2cn0287
*** at Thu Jan 25 01:55:01 2024

   => Loading Basis Set <=

    Name: JUN-CC-PVDZ
    Role: ORBITAL
    Keyword: BASIS
    atoms 1                                                   entry B          line   130 file /opt/software/pc2/EB-SW/software/PSI4/1.9-foss-2022a/share/psi4/basis/jun-cc-pvdz.gbs 
    atoms 2-5                                                 entry F          line   266 file /opt/software/pc2/EB-SW/software/PSI4/1.9-foss-2022a/share/psi4/basis/jun-cc-pvdz.gbs 
    atoms 6-23, 30-42, 45-59, 62-78, 81-93, 98-108, 111-119   entry C          line   164 file /opt/software/pc2/EB-SW/software/PSI4/1.9-foss-2022a/share/psi4/basis/jun-cc-pvdz.gbs 
    atoms 24-29, 43-44, 60-61, 79-80, 94-97, 109-110, 120-125 entry H          line    36 file /opt/software/pc2/EB-SW/software/PSI4/1.9-foss-2022a/share/psi4/basis/jun-cc-pvdz.gbs 


         ---------------------------------------------------------
                                   SCF
               by Justin Turney, Rob Parrish, Andy Simmonett
                          and Daniel G. A. Smith
                              RHF Reference
                       16 Threads,  44822 MiB Core
         ---------------------------------------------------------

  ==> Geometry <==

    Molecular point group: c1
    Full point group: C1

    Geometry (in Angstrom), charge = -1, multiplicity = 1:

       Center              X                  Y                   Z               Mass       
    ------------   -----------------  -----------------  -----------------  -----------------
         B           -0.000201921932     0.000288800891     3.724528784335    11.009305360000
         F           -0.000004162732     0.000014527991     5.137313784335    18.998403162730
         F            1.147855837268     0.675795727991     3.253387784335    18.998403162730
         F            0.011913897268    -1.331996472009     3.253589784335    18.998403162730
         F           -1.159670162732     0.656088027991     3.253668784335    18.998403162730
      Gh(C)          -3.668445426752     7.803766698073    -0.273605174329    12.000000000000
      Gh(C)          -4.847602882078     7.131256359331    -0.275971749262    12.000000000000
      Gh(C)          -4.894963461907     5.696344931522    -0.276544660360    12.000000000000
      Gh(C)          -3.653744841505     4.980744868950    -0.268884218630    12.000000000000
      Gh(C)          -2.409429284226     7.113995564665    -0.273410832069    12.000000000000
      Gh(C)          -2.425481506836     5.681136478894    -0.280415720939    12.000000000000
      Gh(C)          -1.194748179167     7.786158722300    -0.271938651527    12.000000000000
      Gh(C)           0.037954866205     7.099436173748    -0.274109355832    12.000000000000
      Gh(C)           0.030328424687     5.669504087695    -0.279592740748    12.000000000000
      Gh(C)          -1.200988670637     4.969284875906    -0.270623006814    12.000000000000
      Gh(C)           1.277953663083     7.772873971185    -0.272733507271    12.000000000000
      Gh(C)           2.485353921992     7.087711413228    -0.275007995176    12.000000000000
      Gh(C)           2.486124522185     5.654785338231    -0.281945744164    12.000000000000
      Gh(C)           1.254078756912     4.956092641655    -0.270317802576    12.000000000000
      Gh(C)           3.751710428674     7.763926678971    -0.274881143796    12.000000000000
      Gh(C)           4.923561893453     7.078795304981    -0.276937624504    12.000000000000
      Gh(C)           4.955603108594     5.643461991360    -0.277098037311    12.000000000000
      Gh(C)           3.706797371473     4.941224736324    -0.272006477141    12.000000000000
      Gh(H)          -3.658525300490     8.890841947126    -0.271920186079     1.007825032230
      Gh(H)          -1.189217492488     8.874135615351    -0.267966775086     1.007825032230
      Gh(H)           1.284290076155     8.860847963479    -0.268574683130     1.007825032230
      Gh(H)           3.753537924068     8.851049806963    -0.273358619480     1.007825032230
      Gh(H)           5.869954540475     7.613809362646    -0.277862991546     1.007825032230
      Gh(H)          -5.788235870234     7.676316740925    -0.277531596618     1.007825032230
      Gh(C)          -6.091978121428     4.993274541634    -0.278416900851    12.000000000000
[...]
    1504A      2.121401  1505A      2.125913  1506A      2.127902  
    1507A      2.128309  1508A      2.129175  1509A      2.130156  
    1510A      2.130736  1511A      2.132939  1512A      2.133836  
    1513A      2.140121  1514A      2.140298  1515A      2.142695  
    1516A      2.143225  1517A      2.144162  1518A      2.144414  
    1519A      2.145150  1520A      2.149904  1521A      2.153067  
    1522A      2.158257  1523A      2.158750  1524A      2.159042  
    1525A      2.160970  1526A      2.161096  1527A      2.161803  
    1528A      2.162356  1529A      2.163043  1530A      2.164152  
    1531A      2.167029  1532A      2.172033  1533A      2.172599  
    1534A      2.181047  1535A      2.182039  1536A      2.183238  
    1537A      2.183649  1538A      2.191772  1539A      2.191988  
    1540A      2.192221  1541A      2.193841  1542A      2.195902  
    1543A      2.198358  1544A      2.200050  1545A      2.200870  
    1546A      2.201525  1547A      2.202707  1548A      2.202920  
    1549A      2.204194  1550A      2.209442  1551A      2.210142  
    1552A      2.210873  1553A      2.213891  1554A      2.217394  
    1555A      2.218207  1556A      2.220308  1557A      2.222917  
    1558A      2.223643  1559A      2.225633  1560A      2.225749  
    1561A      2.227980  1562A      2.229559  1563A      2.232103  
    1564A      2.232950  1565A      2.235435  1566A      2.239358  
    1567A      2.239775  1568A      2.240119  1569A      2.243512  
    1570A      2.248115  1571A      2.248534  1572A      2.254957  
    1573A      2.255853  1574A      2.263116  1575A      2.265487  
    1576A      2.266948  1577A      2.270523  1578A      2.271603  
    1579A      2.271856  1580A      2.281057  1581A      2.283367  
    1582A      2.284341  1583A      2.292437  1584A      2.293605  
    1585A      2.296988  1586A      2.297288  1587A      2.304522  
    1588A      2.304795  1589A      2.310407  1590A      2.322861  
    1591A      2.325311  1592A      2.325814  1593A      2.327764  
    1594A      2.328753  1595A      2.330516  1596A      2.330801  
    1597A      2.332451  1598A      2.333744  1599A      2.335335  
    1600A      2.336859  1601A      2.341059  1602A      2.342209  
    1603A      2.342457  1604A      2.342926  1605A      2.345222  
    1606A      2.346012  1607A      2.346253  1608A      2.349180  
    1609A      2.349677  1610A      2.369740  1611A      2.374209  
    1612A      2.376090  1613A      2.385011  1614A      2.388178  
    1615A      2.392750  1616A      2.397447  1617A      2.399927  
    1618A      2.401475  1619A      2.418849  1620A      2.420231  
    1621A      2.424698  1622A      2.428055  1623A      2.432700  
    1624A      2.442680  1625A      2.444159  1626A      2.453242  
    1627A      2.454340  1628A      2.464808  1629A      2.464963  
    1630A      2.468303  1631A      2.468528  1632A      2.472010  
    1633A      2.472297  1634A      2.491208  1635A      2.491589  
    1636A      2.496497  1637A      2.502279  1638A      2.507269  
    1639A      2.508451  1640A      2.511853  1641A      2.516605  
    1642A      2.539910  1643A      2.540339  1644A      2.540415  
    1645A      2.542886  1646A      2.543766  1647A      2.545950  
    1648A      2.547937  1649A      2.549331  1650A      2.550120  
    1651A      2.552426  1652A      2.556768  1653A      2.556923  
    1654A      2.564378  1655A      2.571557  1656A      2.571846  
    1657A      2.581027  1658A      2.584517  1659A      2.584954  
    1660A      2.585723  1661A      2.586942  1662A      2.589080  
    1663A      2.589185  1664A      2.593294  1665A      2.593749  
    1666A      2.601888  1667A      2.602222  1668A      2.613286  
    1669A      2.613921  1670A      2.614494  1671A      2.614847  
    1672A      2.617694  1673A      2.619212  1674A      2.632831  
    1675A      2.641395  1676A      2.642245  1677A      2.645731  
    1678A      2.645743  1679A      2.648820  1680A      2.649640  
    1681A      2.650275  1682A      2.653985  1683A      2.656455  
    1684A      2.656883  1685A      2.666234  1686A      2.666676  
    1687A      2.667922  1688A      2.670963  1689A      2.671253  
    1690A      2.674202  1691A      2.679038  1692A      2.679150  
    1693A      2.685534  1694A      2.687377  1695A      2.688004  
    1696A      2.691493  1697A      2.691912  1698A      2.692911  
    1699A      2.694180  1700A      2.696431  1701A      2.697581  
    1702A      2.705217  1703A      2.722739  1704A      2.730234  
    1705A      2.730940  1706A      2.731464  1707A      2.731631  
    1708A      2.732250  1709A      2.754696  1710A      2.761489  
    1711A      2.761972  1712A      2.774962  1713A      2.776395  
    1714A      2.781402  1715A      2.781464  1716A      2.799535  
    1717A      2.800062  1718A      2.802230  1719A      2.802362  
    1720A      2.802927  1721A      2.810548  1722A      2.811717  
    1723A      2.815109  1724A      2.816837  1725A      2.817410  
    1726A      2.817737  1727A      2.828951  1728A      2.829290  
    1729A      2.840354  1730A      2.842365  1731A      2.842595  
    1732A      2.844075  1733A      2.844971  1734A      2.849779  
    1735A      2.864937  1736A      2.865109  1737A      2.868469  
    1738A      2.870685  1739A      2.871477  1740A      2.875625  
    1741A      2.888195  1742A      2.889253  1743A      2.896133  
    1744A      2.897029  1745A      2.917899  1746A      2.918077  
    1747A      2.920021  1748A      2.927667  1749A      2.930525  
    1750A      2.936066  1751A      2.936137  1752A      2.964220  
    1753A      2.966253  1754A      2.966866  1755A      2.976516  
    1756A      2.992834  1757A      2.993569  1758A      3.030536  
    1759A      3.031074  1760A      3.036400  1761A      3.039318  
    1762A      3.048080  1763A      3.048720  1764A      3.048838  
    1765A      3.057927  1766A      3.057963  1767A      3.065488  
    1768A      3.073154  1769A      3.109659  1770A      3.113389  
    1771A      3.113573  1772A      3.123421  1773A      3.129024  
    1774A      3.129232  1775A      3.134909  1776A      3.136369  
    1777A      3.142634  1778A      3.143427  1779A      3.149882  
    1780A      3.150366  1781A      3.151045  1782A      3.151554  
    1783A      3.154239  1784A      3.162192  1785A      3.168152  
    1786A      3.173293  1787A      3.176073  1788A      3.176346  
    1789A      3.193645  1790A      3.194272  1791A      3.220346  
    1792A      3.254336  1793A      3.260547  1794A      3.262148  
    1795A      3.262741  1796A      3.263040  1797A      3.265165  
    1798A      3.269749  1799A      3.272610  1800A      3.275463  
    1801A      3.275987  1802A      3.297854  1803A      3.298192  
    1804A      3.301714  1805A      3.308803  1806A      3.362423  
    1807A      3.363199  1808A      3.377508  1809A      3.417618  
    1810A      3.432683  1811A      3.435552  1812A      3.442161  
    1813A      3.453287  1814A      3.457501  1815A      3.465569  
    1816A      3.467217  1817A      3.473113  1818A      3.475927  
    1819A      3.476085  1820A      3.487722  1821A      3.488500  
    1822A      3.508699  1823A      3.511521  1824A      3.546912  
    1825A      3.575828  1826A      3.577365  1827A      3.585503  
    1828A      3.590673  1829A      3.643054  1830A      3.648681  
    1831A      3.668072  1832A      3.669796  1833A      3.706409  
    1834A      3.749182  1835A      3.753467  1836A      3.755161  
    1837A      3.765077  1838A      3.778675  1839A      3.785020  
    1840A      3.843182  1841A      3.845416  1842A      3.872169  
    1843A      3.875365  1844A      3.913152  1845A      3.918515  
    1846A      3.945066  1847A      3.946453  1848A      3.948833  
    1849A      3.950050  1850A      3.965551  1851A      3.969983  
    1852A      3.975668  1853A      4.024834  1854A      4.027639  
    1855A      4.078341  1856A      4.231679  1857A      4.302065  
    1858A      4.347978  1859A      4.371662  1860A      4.421493  
    1861A      4.453901  1862A      4.457345  1863A      5.758845  
    1864A      5.758998  1865A      5.759480  1866A      5.766660  
    1867A      5.766767  1868A      5.768186  1869A      5.768244  
    1870A      5.768728  1871A      5.808219  1872A      5.809723  
    1873A      5.813328  1874A      6.026560  1875A      6.026899  
    1876A      6.028659  1877A      6.204848  1878A      6.332147  
    1879A      6.332461  1880A      6.389069  1881A      6.389382  
    1882A      6.396775  1883A      7.285822  1884A      7.286381  
    1885A      7.294934  1886A      7.303224  1887A      7.332414  
    1888A      7.345122  1889A      7.349404  1890A      7.461093  
    1891A      7.547445  1892A      7.620634  1893A      7.621940  
    1894A      7.782900  1895A     12.685828  1896A     42.935783  
    1897A     42.956481  1898A     42.956614  1899A     42.964417  

    Final Occupation by Irrep:
              A 
    DOCC [   300 ]
    NA   [   300 ]
    NB   [   300 ]

  @DF-RHF Final Energy: -3650.33998525526113

   => Energetics <=

    Nuclear Repulsion Energy =          15611.4211649754324753
    One-Electron Energy =              -36072.1456444232317153
    Two-Electron Energy =               16810.3844941925381136
    Total Energy =                      -3650.3399852552611264

Computation Completed


Properties will be evaluated at   0.000000,   0.000000,   0.000000 [a0]

Properties computed using the SCF density matrix


 Multipole Moments:

 ------------------------------------------------------------------------------------
     Multipole            Electronic (a.u.)      Nuclear  (a.u.)        Total (a.u.)
 ------------------------------------------------------------------------------------

 L = 1.  Multiply by 2.5417464519 to convert [e a0] to [Debye]
 Dipole X            :         -0.0003421            0.0002304           -0.0001117
 Dipole Y            :          0.0012345           -0.0013052           -0.0000707
 Dipole Z            :        312.3720385         -312.3742503           -0.0022119
 Magnitude           :                                                    0.0022158

 ------------------------------------------------------------------------------------

*** tstop() called on n2cn0287 at Thu Jan 25 05:05:04 2024
Module time:
	user time   =   18117.86 seconds =     301.96 minutes
	system time =     946.84 seconds =      15.78 minutes
	total time  =       7303 seconds =     121.72 minutes
Total time:
	user time   =   47723.77 seconds =     795.40 minutes
	system time =    2487.78 seconds =      41.46 minutes
	total time  =      24110 seconds =     401.83 minutes
  Constructing Basis Sets for SAPT...

   => Loading Basis Set <=

    Name: (JUN-CC-PVDZ AUX)
    Role: RIFIT
    Keyword: DF_BASIS_SAPT
    atoms 1                                                   entry B          line    56 file /opt/software/pc2/EB-SW/software/PSI4/1.9-foss-2022a/share/psi4/basis/jun-cc-pvdz-ri.gbs 
    atoms 2-5                                                 entry F          line   232 file /opt/software/pc2/EB-SW/software/PSI4/1.9-foss-2022a/share/psi4/basis/jun-cc-pvdz-ri.gbs 
    atoms 6-23, 30-42, 45-59, 62-78, 81-93, 98-108, 111-119   entry C          line   100 file /opt/software/pc2/EB-SW/software/PSI4/1.9-foss-2022a/share/psi4/basis/jun-cc-pvdz-ri.gbs 
    atoms 24-29, 43-44, 60-61, 79-80, 94-97, 109-110, 120-125 entry H          line    30 file /opt/software/pc2/EB-SW/software/PSI4/1.9-foss-2022a/share/psi4/basis/jun-cc-pvdz-ri.gbs 

   => Loading Basis Set <=

    Name: (JUN-CC-PVDZ AUX)
    Role: JKFIT
    Keyword: DF_BASIS_ELST
    atoms 1                                                   entry B          line    90 file /opt/software/pc2/EB-SW/software/PSI4/1.9-foss-2022a/share/psi4/basis/jun-cc-pvdz-jkfit.gbs 
    atoms 2-5                                                 entry F          line   314 file /opt/software/pc2/EB-SW/software/PSI4/1.9-foss-2022a/share/psi4/basis/jun-cc-pvdz-jkfit.gbs 
    atoms 6-23, 30-42, 45-59, 62-78, 81-93, 98-108, 111-119   entry C          line   146 file /opt/software/pc2/EB-SW/software/PSI4/1.9-foss-2022a/share/psi4/basis/jun-cc-pvdz-jkfit.gbs 
    atoms 24-29, 43-44, 60-61, 79-80, 94-97, 109-110, 120-125 entry H          line    70 file /opt/software/pc2/EB-SW/software/PSI4/1.9-foss-2022a/share/psi4/basis/jun-cc-pvdz-jkfit.gbs 


  //>>>>>>>>>>>>>>>>>>>>>>>>>>>>>>>>>>>//
  //               SSAPT0              //
  //<<<<<<<<<<<<<<<<<<<<<<<<<<<<<<<<<<<//


*** tstart() called on n2cn0287
*** at Thu Jan 25 05:05:07 2024

        SAPT0  
    Ed Hohenstein
     6 June 2009

      Orbital Information
  --------------------------
    NSO        =      1938
    NMO        =      1899
    NRI        =      6901
    NRI (Elst) =      8531
    NOCC A     =        21
    NOCC B     =       300
    FOCC A     =         5
    FOCC B     =        96
    NVIR A     =      1878
    NVIR B     =      1599

    Elst10,r            =     0.011658535709 [Eh]
    Exch10              =     0.002224061489 [Eh]
    Exch10 (S^2)        =     0.002224000243 [Eh]

    Iter     Energy [mEh]          dE [mEh]         Residual      Time [s]
       1      -0.16654829       0.166548287       1.672372000           257
       2      -0.20226153       0.035713247       0.510468122           524
       3      -0.20363490       0.001373369       0.091932306           788
       4      -0.20321211      -0.000422794       0.023410991          1045
       5      -0.20322837       0.000016262       0.008508218          1301
       6      -0.20324236       0.000013986       0.001914590          1578
       7      -0.20324292       0.000000566       0.000324506          1850
       8      -0.20324228      -0.000000645       0.000069780          2127
       9      -0.20324229       0.000000014       0.000019185          2396
      10      -0.20324232       0.000000027       0.000002647          2645
      11      -0.20324231      -0.000000004       0.000000530          2900

    CHF Iterations converged


    Iter     Energy [mEh]          dE [mEh]         Residual      Time [s]
       1     -22.60307281      22.603072815      82.279881790           309
       2     -14.43825254      -8.164820279       9.950483156           611
       3     -14.34670292      -0.091549620       3.214824508           890
       4     -14.58776153       0.241058613       1.124806319          1214
       5     -14.62777763       0.040016105       0.390346192          1518
       6     -14.62055064      -0.007226993       0.259329457          1884
       7     -14.61317094      -0.007379700       0.104713371          2167
       8     -14.61401329       0.000842347       0.049478917          2440
       9     -14.61561199       0.001598705       0.029143324          2715
      10     -14.61533519      -0.000276799       0.027382596          3000
      11     -14.61491238      -0.000422811       0.011638076          3271
      12     -14.61495106       0.000038682       0.005447593          3541
      13     -14.61502038       0.000069312       0.001970012          3794
      14     -14.61503493       0.000014554       0.000750882          4034
      15     -14.61502929      -0.000005641       0.000458801          4329
      16     -14.61502036      -0.000008931       0.000271508          4582
      17     -14.61502431       0.000003953       0.000139761          4853
      18     -14.61502590       0.000001590       0.000045655          5090
      19     -14.61502558      -0.000000319       0.000022006          5317
      20     -14.61502519      -0.000000395       0.000008754          5608
      21     -14.61502524       0.000000055       0.000004712          5881
      22     -14.61502530       0.000000059       0.000002339          6193
      23     -14.61502529      -0.000000011       0.000001061          6479
      24     -14.61502528      -0.000000012       0.000000568          6756

    CHF Iterations converged

    Ind20,r (A<-B)      =    -0.000203242315 [Eh]
    Ind20,r (B<-A)      =    -0.014615025279 [Eh]
    Ind20,r             =    -0.014818267594 [Eh]
    Exch-Ind20,r (A<-B) =     0.000180925624 [Eh]
    Exch-Ind20,r (B<-A) =     0.000350316022 [Eh]
    Exch-Ind20,r        =     0.000531241646 [Eh]
    Disp20              =    -0.006975079095 [Eh]
    Disp20 (SS)         =    -0.003487539548 [Eh]
    Disp20 (OS)         =    -0.003487539548 [Eh]
    Exch-Disp20         =     0.000409378826 [Eh]
    Exch-Disp20 (SS)    =     0.000256149018 [Eh]
    Exch-Disp20 (OS)    =     0.000153229808 [Eh]

    SAPT Results 
  --------------------------------------------------------------------------------------------------------
    Electrostatics                 11.65853571 [mEh]       7.31584161 [kcal/mol]      30.60948129 [kJ/mol]
      Elst10,r                     11.65853571 [mEh]       7.31584161 [kcal/mol]      30.60948129 [kJ/mol]

    Exchange                        2.22406149 [mEh]       1.39561965 [kcal/mol]       5.83927263 [kJ/mol]
      Exch10                        2.22406149 [mEh]       1.39561965 [kcal/mol]       5.83927263 [kJ/mol]
      Exch10(S^2)                   2.22400024 [mEh]       1.39558122 [kcal/mol]       5.83911183 [kJ/mol]

    Induction                     -14.41059799 [mEh]      -9.04278676 [kcal/mol]     -37.83501982 [kJ/mol]
      Ind20,r                     -14.81826759 [mEh]      -9.29860330 [kcal/mol]     -38.90535621 [kJ/mol]
      Exch-Ind20,r                  0.53124165 [mEh]       0.33335917 [kcal/mol]       1.39477475 [kJ/mol]
      delta HF,r (2)               -0.12357205 [mEh]      -0.07754263 [kcal/mol]      -0.32443836 [kJ/mol]

    Dispersion                     -6.56570027 [mEh]      -4.12003912 [kcal/mol]     -17.23824368 [kJ/mol]
      Disp20                       -6.97507910 [mEh]      -4.37692821 [kcal/mol]     -18.31306764 [kJ/mol]
      Exch-Disp20                   0.40937883 [mEh]       0.25688909 [kcal/mol]       1.07482396 [kJ/mol]
      Disp20 (SS)                  -3.48753955 [mEh]      -2.18846411 [kcal/mol]      -9.15653382 [kJ/mol]
      Disp20 (OS)                  -3.48753955 [mEh]      -2.18846411 [kcal/mol]      -9.15653382 [kJ/mol]
      Exch-Disp20 (SS)              0.25614902 [mEh]       0.16073594 [kcal/mol]       0.67251915 [kJ/mol]
      Exch-Disp20 (OS)              0.15322981 [mEh]       0.09615316 [kcal/mol]       0.40230481 [kJ/mol]

  Total HF                         -0.52800079 [mEh]      -0.33132550 [kcal/mol]      -1.38626590 [kJ/mol]
  Total SAPT0                      -7.09370106 [mEh]      -4.45136462 [kcal/mol]     -18.62450958 [kJ/mol]

  Special recipe for scaled SAPT0 (see Manual):
    Electrostatics sSAPT0          11.65853571 [mEh]       7.31584161 [kcal/mol]      30.60948129 [kJ/mol]
    Exchange sSAPT0                 2.22406149 [mEh]       1.39561965 [kcal/mol]       5.83927263 [kJ/mol]
    Induction sSAPT0              -14.41055410 [mEh]      -9.04275922 [kcal/mol]     -37.83490458 [kJ/mol]
    Dispersion sSAPT0              -6.56566645 [mEh]      -4.12001790 [kcal/mol]     -17.23815488 [kJ/mol]
  Total sSAPT0                     -7.09362335 [mEh]      -4.45131586 [kcal/mol]     -18.62430555 [kJ/mol]
  --------------------------------------------------------------------------------------------------------

*** tstop() called on n2cn0287 at Thu Jan 25 14:56:31 2024
Module time:
	user time   =   62655.80 seconds =    1044.26 minutes
	system time =    3615.89 seconds =      60.26 minutes
	total time  =      35484 seconds =     591.40 minutes
Total time:
	user time   =  110381.01 seconds =    1839.68 minutes
	system time =    6103.68 seconds =     101.73 minutes
	total time  =      59597 seconds =     993.28 minutes

    Psi4 stopped on: Thursday, 25 January 2024 02:56PM
    Psi4 wall time for execution: 16:33:17.84

*** Psi4 exiting successfully. Buy a developer a beer!
