
    -----------------------------------------------------------------------
          Psi4: An Open-Source Ab Initio Electronic Structure Package
                               Psi4 1.9 release

                         Git: Rev {} zzzzzzz 


    D. G. A. Smith, L. A. Burns, A. C. Simmonett, R. M. Parrish,
    M. C. Schieber, R. Galvelis, P. Kraus, H. Kruse, R. Di Remigio,
    A. Alenaizan, A. M. James, S. Lehtola, J. P. Misiewicz, M. Scheurer,
    R. A. Shaw, J. B. Schriber, Y. Xie, Z. L. Glick, D. A. Sirianni,
    J. S. O'Brien, J. M. Waldrop, A. Kumar, E. G. Hohenstein,
    B. P. Pritchard, B. R. Brooks, H. F. Schaefer III, A. Yu. Sokolov,
    K. Patkowski, A. E. DePrince III, U. Bozkaya, R. A. King,
    F. A. Evangelista, J. M. Turney, T. D. Crawford, C. D. Sherrill,
    J. Chem. Phys. 152(18) 184108 (2020). https://doi.org/10.1063/5.0006002

                            Additional Code Authors
    E. T. Seidl, C. L. Janssen, E. F. Valeev, M. L. Leininger,
    J. F. Gonthier, R. M. Richard, H. R. McAlexander, M. Saitow, X. Wang,
    P. Verma, M. H. Lechner, A. Jiang, S. Behnle, A. G. Heide,
    M. F. Herbst, and D. L. Poole

             Previous Authors, Complete List of Code Contributors,
                       and Citations for Specific Modules
    https://github.com/psi4/psi4/blob/master/codemeta.json
    https://github.com/psi4/psi4/graphs/contributors
    http://psicode.org/psi4manual/master/introduction.html#citing-psifour

    -----------------------------------------------------------------------


    Psi4 started on: Saturday, 27 January 2024 10:40AM

    Process ID: 268835
    Host:       n2cn0368
    PSIDATADIR: /opt/software/pc2/EB-SW/software/PSI4/1.9-foss-2022a/share/psi4
    Memory:     500.0 MiB
    Threads:    16
    
  ==> Input File <==

--------------------------------------------------------------------------
memory 64 GB # how much memory is available ! Depends on the nodes/cores !

molecule dimer {
# monomer A
-1 1    # Charge and multiplicity
B -1.977592e-04  2.742729e-04 3.800034
F  1.123153e-16  1.430594e-17 5.212819
F  1.147860e+00  6.757812e-01 3.328893
F  1.191806e-02 -1.332011e+00 3.329095
F -1.159666e+00  6.560735e-01 3.329174
--
# monomer B
0 1     # Charge and multiplicity
C   -3.66844126402057      7.80375217008252      0.00190004133558
C   -4.84759871934653      7.13124183134024     -0.00046653359696
C   -4.89495929917518      5.69633040353158     -0.00103944469517
C   -3.65374067877320      4.98073034095895      0.00662099703436
C   -2.40942512149445      7.11398103667468      0.00209438359570
C   -2.42547734410473      5.68112195090346     -0.00491050527438
C   -1.19474401643570      7.78614419430947      0.00356656413763
C   0.03795902893699      7.09942164575698      0.00139585983271
C   0.03033258741920      5.66948955970466     -0.00408752508301
C   -1.20098450790502      4.96927034791531      0.00488220885047
C   1.27795782581485      7.77285944319479      0.00277170839332
C   2.48535808472416      7.08769688523756      0.00049722048857
C   2.48612868491717      5.65477081024076     -0.00644052849921
C   1.25408291964399      4.95607811366431      0.00518741308898
C   3.75171459140595      7.76391215098033      0.00062407186893
C   4.92356605618520      7.07878077698995     -0.00143240883900
C   4.95560727132542      5.64344746336949     -0.00159282164606
C   3.70680153420475      4.94121020833308      0.00349873852374
H   -3.65852113775815      8.89082741913536      0.00358502958574
H   -1.18921332975660      8.87412108735996      0.00753844057883
H   1.28429423888630      8.86083343548850      0.00693053253426
H   3.75354208679975      8.85103527897216      0.00214659618464
H   5.86995870320703      7.61379483465560     -0.00235777588134
H   -5.78823170750226      7.67630221293400     -0.00202638095293
C   -6.09197395869619      4.99326001364347     -0.00291168518608
C   -6.12866148031747      3.58258016879823     -0.00171050815740
C   -3.66457974004527      3.56418217974434     -0.00463560277484
C   -4.89429820469869      2.86108077590057      0.00453338221034
C   -2.43733499489796      2.84761165708481      0.00719617576166
C   -1.20922785759670      3.54788693497833     -0.00648285103018
C   1.24714157216223      3.53468075142962     -0.00729145743546
C   0.01517603956900      2.83311183930540      0.00439272578912
C   2.46764517244071      2.82128997725533      0.00449278391269
C   3.70254947457969      3.52466015442405     -0.00899517692985
C   6.14498038638375      4.92757236613191     -0.00282626685777
C   6.16658835886151      3.51658447594213     -0.00065971342101
C   4.92460995845939      2.80840792535402      0.00587903281610
H   7.08990550964105      5.46688776622306     -0.00658814770723
H   -7.03104175110130      5.54268795285765     -0.00714490013730
C   -7.33969804112295      2.85841153457957     -0.00333767559888
C   -7.36488195805880      1.47032337158330     -0.00157213747140
C   -4.90350460894690      1.44442681216000     -0.00628840166334
C   -6.13225715261081      0.73993935705394      0.00600164231964
C   -3.67687480051673      0.72669714267312      0.00433931473643
C   -2.44565658606518      1.42964113326212     -0.00597039546461
C   -1.22360068130162      0.71532450163492      0.00545886906656
C   0.00763786931376      1.41738314923765      0.00392452278437
C   1.23121980774686      0.70211669058719     -0.01490206287210
C   2.46082110053113      1.40329203612573      0.00460244601878
C   3.68443025419614      0.68719842821222      0.00377365974158
C   4.91870890153864      1.39173456118907     -0.00862816189375
C   7.36980207796101      2.77948220318441     -0.00242013321349
C   7.38016266612146      1.39121750785509     -0.00087345036788
C   6.13979953912259      0.67411862320065      0.00545489144369
H   -8.27919079934664      3.40711804112415     -0.00763522772059
H   8.31511347147953      3.31811809662368     -0.00663070901292
C   -8.59175593758115      0.72483255304480     -0.00123170985383
C   -8.59902460370342     -0.63263980622873      0.00089141472904
C   -6.13981313911873     -0.67413663715361     -0.00609792660607
C   -7.38018411213749     -1.39126618958160      0.00131813493501
C   -4.91868448025621     -1.39175501803000      0.00624257154343
C   -3.68443829568458     -0.68723731573599     -0.00478966852105
C   -2.46081704024768     -1.40334517882457      0.00575341766833
C   -1.23116201232071     -0.70217386488055     -0.00636696112346
C   -0.00756962538737     -1.41741884941102      0.00108956317991
C   1.22364771588843     -0.71527537726392      0.01109518512883
C   2.44567064933149     -1.42964328900682     -0.00065482763106
C   3.67686670284649     -0.72670743155550     -0.00479541202602
C   6.13224884641929     -0.73997883984993     -0.00632338623858
C   4.90351914550401     -1.44445752054090      0.00751768830159
C   8.59901484869081      0.63260386666793     -0.00101133422380
C   8.59174548810050     -0.72485086719319      0.00072504603735
C   7.36486276438985     -1.47033266560598      0.00049486934466
H   -9.52830597181814      1.27684744919284     -0.00270163681798
H   9.54141097460619      1.17457248844457     -0.00206336648518
C   -7.36983790976868     -2.77954514593389      0.00312634335708
C   -4.92459910905015     -2.80843725734101     -0.00460528907921
C   -6.16662249566744     -3.51665219282533      0.00169655107992
C   -3.70251035970491     -3.52468154912026      0.00571878010666
C   -2.46764698511392     -2.82132596280400     -0.00632585824990
C   -0.01513347410770     -2.83314164539971     -0.00604426974092
C   -1.24712184122656     -3.53473217556300      0.00551968366725
C   1.20924506964357     -3.54791467864352      0.00805871345849
C   2.43733602215464     -2.84764173817541     -0.00608104485234
C   4.89430234377080     -2.86112296828604     -0.00526030478103
C   3.66461525504104     -3.56421984553201      0.00761911515957
C   6.12863901474565     -3.58258405771778      0.00096495711699
C   7.33967266469532     -2.85841330737039      0.00248018319869
H   -9.54144911125902     -1.17456346666430      0.00226083090216
H   9.52826186807155     -1.27691907390448      0.00197485379837
H   -8.31516504384864     -3.31814985321231      0.00729857188773
H   8.27915514249207     -3.40714078989363      0.00681973918158
C   -6.14499418870218     -4.92764727278338      0.00302254913999
C   -3.70678334799751     -4.94126171411716     -0.00679841894792
C   -4.95559005800169     -5.64349397349412      0.00116871569699
C   -2.48612132622665     -5.65478557440947      0.00614125209662
C   -1.25405833548005     -4.95612205000132     -0.00503435388927
C   1.20101257386816     -4.96928038819302     -0.00385322963129
C   -0.03033667441341     -5.66952030313900      0.00398997003238
C   3.65375010132847     -4.98074377541453     -0.00309522988330
C   2.42549269587528     -5.68117463552727      0.00628170066869
C   6.09196561781097     -4.99325796338655      0.00325918379042
C   4.89497644461045     -5.69634842095790      0.00202298796027
H   -7.08989238804069     -5.46699984223871      0.00742531082125
H   7.03105520920009     -5.54265853633254      0.00683896355417
C   -4.92354532219813     -7.07882109967734      0.00061394679214
C   -2.48534208823777     -7.08772807792913     -0.00189594564379
C   -3.75168589177895     -7.76394715763627     -0.00170126671874
C   -0.03794895698805     -7.09946487446944     -0.00168022049625
C   -1.27795610040136     -7.77290438466689     -0.00366491325785
C   2.40944432072629     -7.11402201200282     -0.00081701968533
C   1.19474993715296     -7.78618536556242     -0.00296931056689
C   4.84762105249800     -7.13126211057943      0.00168979497423
C   3.66847160587561     -7.80378799294376     -0.00065863938960
H   -5.86994035041618     -7.61383059804164      0.00215798365757
H   5.78824962538815     -7.67633218931421      0.00281691445618
H   -3.75352693944918     -8.85107156923607     -0.00353718114765
H   -1.28430440589466     -8.86087539249706     -0.00809229711623
H   1.18922157469537     -8.87416062058945     -0.00706194725726
H   3.65854661482387     -8.89086063405326     -0.00231318081200

    units angstrom      # Angstroms are the default
    no_reorient         # Geometry fixed, default
    symmetry c1         # C1 symmetry, default
}

set {
    scf_type DF         # Density fitting, faster than exact integrals
    freeze_core True    # Freeze core electrons
    basis jun-cc-pVDZ   # Jun-cc-pVDZ basis set, recommended for sSAPT0 in https://doi.org/10.1063/1.4867135
}

energy('ssapt0')        # Compute sSAPT0 energy, includes also SAPT0
--------------------------------------------------------------------------

  Memory set to  59.605 GiB by Python driver.

Scratch directory: /tmp/
   => Loading Basis Set <=

    Name: JUN-CC-PVDZ
    Role: ORBITAL
    Keyword: BASIS
    atoms 1                                                   entry B          line   130 file /opt/software/pc2/EB-SW/software/PSI4/1.9-foss-2022a/share/psi4/basis/jun-cc-pvdz.gbs 
    atoms 2-5                                                 entry F          line   266 file /opt/software/pc2/EB-SW/software/PSI4/1.9-foss-2022a/share/psi4/basis/jun-cc-pvdz.gbs 
    atoms 6-23, 30-42, 45-59, 62-78, 81-93, 98-108, 111-119   entry C          line   164 file /opt/software/pc2/EB-SW/software/PSI4/1.9-foss-2022a/share/psi4/basis/jun-cc-pvdz.gbs 
    atoms 24-29, 43-44, 60-61, 79-80, 94-97, 109-110, 120-125 entry H          line    36 file /opt/software/pc2/EB-SW/software/PSI4/1.9-foss-2022a/share/psi4/basis/jun-cc-pvdz.gbs 

   => Loading Basis Set <=

    Name: JUN-CC-PVDZ
    Role: ORBITAL
    Keyword: BASIS
    atoms 1                                                   entry B          line   130 file /opt/software/pc2/EB-SW/software/PSI4/1.9-foss-2022a/share/psi4/basis/jun-cc-pvdz.gbs 
    atoms 2-5                                                 entry F          line   266 file /opt/software/pc2/EB-SW/software/PSI4/1.9-foss-2022a/share/psi4/basis/jun-cc-pvdz.gbs 
    atoms 6-23, 30-42, 45-59, 62-78, 81-93, 98-108, 111-119   entry C          line   164 file /opt/software/pc2/EB-SW/software/PSI4/1.9-foss-2022a/share/psi4/basis/jun-cc-pvdz.gbs 
    atoms 24-29, 43-44, 60-61, 79-80, 94-97, 109-110, 120-125 entry H          line    36 file /opt/software/pc2/EB-SW/software/PSI4/1.9-foss-2022a/share/psi4/basis/jun-cc-pvdz.gbs 


  //>>>>>>>>>>>>>>>>>>>>>>>>>>>>>>>>>>>//
  //              Dimer HF             //
  //<<<<<<<<<<<<<<<<<<<<<<<<<<<<<<<<<<<//

   => Libint2 <=

    Primary   basis highest AM E, G, H:  5, 4, 3
    Auxiliary basis highest AM E, G, H:  6, 5, 4
    Onebody   basis highest AM E, G, H:  6, 5, 4
    Solid Harmonics ordering:            gaussian

*** tstart() called on n2cn0368
*** at Sat Jan 27 10:40:43 2024

   => Loading Basis Set <=

    Name: JUN-CC-PVDZ
    Role: ORBITAL
    Keyword: BASIS
    atoms 1                                                   entry B          line   130 file /opt/software/pc2/EB-SW/software/PSI4/1.9-foss-2022a/share/psi4/basis/jun-cc-pvdz.gbs 
    atoms 2-5                                                 entry F          line   266 file /opt/software/pc2/EB-SW/software/PSI4/1.9-foss-2022a/share/psi4/basis/jun-cc-pvdz.gbs 
    atoms 6-23, 30-42, 45-59, 62-78, 81-93, 98-108, 111-119   entry C          line   164 file /opt/software/pc2/EB-SW/software/PSI4/1.9-foss-2022a/share/psi4/basis/jun-cc-pvdz.gbs 
    atoms 24-29, 43-44, 60-61, 79-80, 94-97, 109-110, 120-125 entry H          line    36 file /opt/software/pc2/EB-SW/software/PSI4/1.9-foss-2022a/share/psi4/basis/jun-cc-pvdz.gbs 


         ---------------------------------------------------------
                                   SCF
               by Justin Turney, Rob Parrish, Andy Simmonett
                          and Daniel G. A. Smith
                              RHF Reference
                       16 Threads,  61035 MiB Core
         ---------------------------------------------------------

  ==> Geometry <==

    Molecular point group: c1
    Full point group: C1

    Geometry (in Angstrom), charge = -1, multiplicity = 1:

       Center              X                  Y                   Z               Mass       
    ------------   -----------------  -----------------  -----------------  -----------------
         B           -0.000201921932     0.000288800891     3.538303888398    11.009305360000
         F           -0.000004162732     0.000014527991     4.951088888398    18.998403162730
         F            1.147855837268     0.675795727991     3.067162888398    18.998403162730
         F            0.011913897268    -1.331996472009     3.067364888398    18.998403162730
         F           -1.159670162732     0.656088027991     3.067443888398    18.998403162730
         C           -3.668445426752     7.803766698073    -0.259830070266    12.000000000000
         C           -4.847602882078     7.131256359331    -0.262196645199    12.000000000000
         C           -4.894963461907     5.696344931522    -0.262769556297    12.000000000000
         C           -3.653744841505     4.980744868950    -0.255109114568    12.000000000000
         C           -2.409429284226     7.113995564665    -0.259635728006    12.000000000000
         C           -2.425481506836     5.681136478894    -0.266640616876    12.000000000000
         C           -1.194748179167     7.786158722300    -0.258163547464    12.000000000000
         C            0.037954866205     7.099436173748    -0.260334251769    12.000000000000
         C            0.030328424687     5.669504087695    -0.265817636685    12.000000000000
         C           -1.200988670637     4.969284875906    -0.256847902752    12.000000000000
         C            1.277953663083     7.772873971185    -0.258958403209    12.000000000000
         C            2.485353921992     7.087711413228    -0.261232891113    12.000000000000
         C            2.486124522185     5.654785338231    -0.268170640101    12.000000000000
         C            1.254078756912     4.956092641655    -0.256542698513    12.000000000000
         C            3.751710428674     7.763926678971    -0.261106039733    12.000000000000
         C            4.923561893453     7.078795304981    -0.263162520441    12.000000000000
         C            4.955603108594     5.643461991360    -0.263322933248    12.000000000000
         C            3.706797371473     4.941224736324    -0.258231373078    12.000000000000
         H           -3.658525300490     8.890841947126    -0.258145082016     1.007825032230
         H           -1.189217492488     8.874135615351    -0.254191671023     1.007825032230
         H            1.284290076155     8.860847963479    -0.254799579068     1.007825032230
         H            3.753537924068     8.851049806963    -0.259583515417     1.007825032230
         H            5.869954540475     7.613809362646    -0.264087887483     1.007825032230
         H           -5.788235870234     7.676316740925    -0.263756492555     1.007825032230
         C           -6.091978121428     4.993274541634    -0.264641796788    12.000000000000
         C           -6.128665643049     3.582594696789    -0.263440619759    12.000000000000
         C           -3.664583902777     3.564196707735    -0.266365714377    12.000000000000
         C           -4.894302367430     2.861095303891    -0.257196729392    12.000000000000
         C           -2.437339157630     2.847626185075    -0.254533935840    12.000000000000
         C           -1.209232020328     3.547901462969    -0.268212962632    12.000000000000
         C            1.247137409430     3.534695279420    -0.269021569038    12.000000000000
         C            0.015171876837     2.833126367296    -0.257337385813    12.000000000000
         C            2.467641009709     2.821304505246    -0.257237327689    12.000000000000
         C            3.702545311848     3.524674682415    -0.270725288532    12.000000000000
         C            6.144976223652     4.927586894122    -0.264556378460    12.000000000000
         C            6.166584196130     3.516599003933    -0.262389825023    12.000000000000
         C            4.924605795728     2.808422453345    -0.255851078786    12.000000000000
         H            7.089901346909     5.466902294214    -0.268318259309     1.007825032230
         H           -7.031045913833     5.542702480848    -0.268875011739     1.007825032230
         C           -7.339702203855     2.858426062570    -0.265067787201    12.000000000000
         C           -7.364886120791     1.470337899574    -0.263302249073    12.000000000000
         C           -4.903508771679     1.444441340151    -0.268018513265    12.000000000000
         C           -6.132261315343     0.739953885044    -0.255728469282    12.000000000000
         C           -3.676878963248     0.726711670664    -0.257390796866    12.000000000000
         C           -2.445660748797     1.429655661253    -0.267700507067    12.000000000000
         C           -1.223604844033     0.715339029625    -0.256271242535    12.000000000000
         C            0.007633706582     1.417397677228    -0.257805588818    12.000000000000
         C            1.231215645015     0.702131218578    -0.276632174474    12.000000000000
         C            2.460816937799     1.403306564116    -0.257127665583    12.000000000000
         C            3.684426091464     0.687212956203    -0.257956451860    12.000000000000
         C            4.918704738807     1.391749089180    -0.270358273496    12.000000000000
         C            7.369797915229     2.779496731175    -0.264150244816    12.000000000000
         C            7.380158503390     1.391232035846    -0.262603561970    12.000000000000
         C            6.139795376391     0.674133151191    -0.256275220158    12.000000000000
         H           -8.279194962078     3.407132569115    -0.269365339323     1.007825032230
         H            8.315109308748     3.318132624614    -0.268360820615     1.007825032230
         C           -8.591760100313     0.724847081035    -0.262961821456    12.000000000000
         C           -8.599028766435    -0.632625278238    -0.260838696873    12.000000000000
         C           -6.139817301850    -0.674122109163    -0.267828038208    12.000000000000
         C           -7.380188274869    -1.391251661591    -0.260411976667    12.000000000000
         C           -4.918688642988    -1.391740490039    -0.255487540059    12.000000000000
         C           -3.684442458416    -0.687222787745    -0.266519780123    12.000000000000
         C           -2.460821202979    -1.403330650834    -0.255976693934    12.000000000000
         C           -1.231166175052    -0.702159336890    -0.268097072726    12.000000000000
         C           -0.007573788119    -1.417404321420    -0.260640548422    12.000000000000
         C            1.223643553157    -0.715260849273    -0.250634926473    12.000000000000
         C            2.445666486600    -1.429628761016    -0.262384939233    12.000000000000
         C            3.676862540115    -0.726692903565    -0.266525523628    12.000000000000
         C            6.132244683688    -0.739964311859    -0.268053497841    12.000000000000
         C            4.903514982772    -1.444442992550    -0.254212423300    12.000000000000
         C            8.599010685959     0.632618394658    -0.262741445826    12.000000000000
         C            8.591741325369    -0.724836339203    -0.261005065565    12.000000000000
         C            7.364858601658    -1.470318137615    -0.261235242257    12.000000000000
         H           -9.528310134550     1.276861977183    -0.264431748420     1.007825032230
         H            9.541406811874     1.174587016435    -0.263793478087     1.007825032230
         C           -7.369842072500    -2.779530617943    -0.258603768245    12.000000000000
         C           -4.924603271782    -2.808422729350    -0.266335400681    12.000000000000
         C           -6.166626658399    -3.516637664835    -0.260033560522    12.000000000000
         C           -3.702514522437    -3.524667021130    -0.256011331495    12.000000000000
         C           -2.467651147846    -2.821311434813    -0.268055969852    12.000000000000
         C           -0.015137636839    -2.833127117409    -0.267774381343    12.000000000000
         C           -1.247126003958    -3.534717647572    -0.256210427935    12.000000000000
         C            1.209240906912    -3.547900150653    -0.253671398144    12.000000000000
         C            2.437331859423    -2.847627210185    -0.267811156454    12.000000000000
         C            4.894298181039    -2.861108440295    -0.266990416383    12.000000000000
         C            3.664611092309    -3.564205317541    -0.254110996442    12.000000000000
         C            6.128634852014    -3.582569529727    -0.260765154485    12.000000000000
         C            7.339668501964    -2.858398779380    -0.259249928403    12.000000000000
         H           -9.541453273991    -1.174548938674    -0.259469280700     1.007825032230
         H            9.528257705340    -1.276904545914    -0.259755257804     1.007825032230
         H           -8.315169206580    -3.318135325222    -0.254431539714     1.007825032230
         H            8.279150979760    -3.407126261903    -0.254910372420     1.007825032230
         C           -6.144998351434    -4.927632744793    -0.258707562462    12.000000000000
         C           -3.706787510729    -4.941247186127    -0.268528530550    12.000000000000
         C           -4.955594220733    -5.643479445504    -0.260561395905    12.000000000000
         C           -2.486125488958    -5.654771046419    -0.255588859505    12.000000000000
         C           -1.254062498212    -4.956107522011    -0.266764465491    12.000000000000
         C            1.201008411136    -4.969265860202    -0.265583341233    12.000000000000
         C           -0.030340837145    -5.669505775148    -0.257740141570    12.000000000000
         C            3.653745938597    -4.980729247424    -0.264825341485    12.000000000000
         C            2.425488533144    -5.681160107537    -0.255448410933    12.000000000000
         C            6.091961455079    -4.993243435396    -0.258470927812    12.000000000000
         C            4.894972281879    -5.696333892967    -0.259707123642    12.000000000000
         H           -7.089896550772    -5.466985314248    -0.254304800781     1.007825032230
         H            7.031051046468    -5.542644008342    -0.254891148048     1.007825032230
         C           -4.923549484930    -7.078806571687    -0.261116164810    12.000000000000
         C           -2.485346250970    -7.087713549939    -0.263626057246    12.000000000000
         C           -3.751690054511    -7.763932629646    -0.263431378321    12.000000000000
         C           -0.037953119720    -7.099450346479    -0.263410332098    12.000000000000
         C           -1.277960263133    -7.772889856676    -0.265395024860    12.000000000000
         C            2.409440157995    -7.114007484012    -0.262547131287    12.000000000000
         C            1.194745774421    -7.786170837572    -0.264699422169    12.000000000000
         C            4.847616889766    -7.131247582589    -0.260040316628    12.000000000000
         C            3.668467443144    -7.803773464953    -0.262388750992    12.000000000000
         H           -5.869944513148    -7.613816070051    -0.259572127944     1.007825032230
         H            5.788245462656    -7.676317661324    -0.258913197146     1.007825032230
         H           -3.753531102181    -8.851057041246    -0.265267292750     1.007825032230
         H           -1.284308568626    -8.860860864507    -0.269822408718     1.007825032230
         H            1.189217411964    -8.874146092599    -0.268792058859     1.007825032230
         H            3.658542452092    -8.890846106063    -0.264043292414     1.007825032230

  Running in c1 symmetry.

  Rotational constants: A =      0.00067  B =      0.00067  C =      0.00035 [cm^-1]
  Rotational constants: A =     20.08086  B =     20.07745  C =     10.55117 [MHz]
  Nuclear repulsion = 17693.649826595577906

  Charge       = -1
  Multiplicity = 1
  Electrons    = 642
  Nalpha       = 321
  Nbeta        = 321

  ==> Algorithm <==

  SCF Algorithm Type is DF.
  DIIS enabled.
  MOM disabled.
  Fractional occupation disabled.
  Guess Type is SAD.
  Energy threshold   = 1.00e-08
  Density threshold  = 1.00e-08
  Integral threshold = 1.00e-12

  ==> Primary Basis <==

  Basis Set: JUN-CC-PVDZ
    Blend: JUN-CC-PVDZ
    Number of shells: 880
    Number of basis functions: 1938
    Number of Cartesian functions: 2039
    Spherical Harmonics?: true
    Max angular momentum: 2

   => Loading Basis Set <=

    Name: (JUN-CC-PVDZ AUX)
    Role: JKFIT
    Keyword: DF_BASIS_SCF
    atoms 1                                                   entry B          line    90 file /opt/software/pc2/EB-SW/software/PSI4/1.9-foss-2022a/share/psi4/basis/jun-cc-pvdz-jkfit.gbs 
    atoms 2-5                                                 entry F          line   314 file /opt/software/pc2/EB-SW/software/PSI4/1.9-foss-2022a/share/psi4/basis/jun-cc-pvdz-jkfit.gbs 
    atoms 6-23, 30-42, 45-59, 62-78, 81-93, 98-108, 111-119   entry C          line   146 file /opt/software/pc2/EB-SW/software/PSI4/1.9-foss-2022a/share/psi4/basis/jun-cc-pvdz-jkfit.gbs 
    atoms 24-29, 43-44, 60-61, 79-80, 94-97, 109-110, 120-125 entry H          line    70 file /opt/software/pc2/EB-SW/software/PSI4/1.9-foss-2022a/share/psi4/basis/jun-cc-pvdz-jkfit.gbs 

  ==> Integral Setup <==

  ==> DiskDFJK: Density-Fitted J/K Matrices <==

    J tasked:                  Yes
    K tasked:                  Yes
    wK tasked:                  No
    OpenMP threads:             16
    Integrals threads:          16
    Memory [MiB]:            45776
    Algorithm:                Disk
    Integral Cache:           SAVE
    Schwarz Cutoff:          1E-12
    Fitting Condition:       1E-10

   => Auxiliary Basis Set <=

  Basis Set: (JUN-CC-PVDZ AUX)
    Blend: JUN-CC-PVDZ-JKFIT
    Number of shells: 2943
    Number of basis functions: 8531
    Number of Cartesian functions: 9791
    Spherical Harmonics?: true
    Max angular momentum: 3

  Minimum eigenvalue in the overlap matrix is 8.6336453508E-11.
  Reciprocal condition number of the overlap matrix is 3.6351072821E-12.
    Using canonical orthogonalization.
  Overall, 39 of 1938 possible MOs eliminated.


  ==> Pre-Iterations <==

  SCF Guess: Superposition of Atomic Densities via on-the-fly atomic UHF (no occupation information).

   -------------------------
    Irrep   Nso     Nmo    
   -------------------------
     A       1938    1899 
   -------------------------
    Total    1938    1899
   -------------------------

  ==> Iterations <==

                           Total Energy        Delta E     RMS |[F,P]|

   @DF-RHF iter SAD: -4085.10248162095286   -4.08510e+03   0.00000e+00 
   @DF-RHF iter   1: -4071.50765412592773    1.35948e+01   7.92640e-04 ADIIS/DIIS
   @DF-RHF iter   2: -4072.91601830762920   -1.40836e+00   3.12518e-04 ADIIS/DIIS
   @DF-RHF iter   3: -4073.08622717394428   -1.70209e-01   1.05479e-04 ADIIS/DIIS
   @DF-RHF iter   4: -4073.10939357898769   -2.31664e-02   4.13284e-05 DIIS
   @DF-RHF iter   5: -4073.11350408083263   -4.11050e-03   1.20664e-05 DIIS
   @DF-RHF iter   6: -4073.11402072242026   -5.16642e-04   4.66243e-06 DIIS
   @DF-RHF iter   7: -4073.11420459482315   -1.83872e-04   2.53627e-06 DIIS
   @DF-RHF iter   8: -4073.11426611434126   -6.15195e-05   1.26021e-06 DIIS
   @DF-RHF iter   9: -4073.11428728394003   -2.11696e-05   4.42801e-07 DIIS
   @DF-RHF iter  10: -4073.11428868933808   -1.40540e-06   1.80938e-07 DIIS
   @DF-RHF iter  11: -4073.11428891467312   -2.25335e-07   6.54870e-08 DIIS
   @DF-RHF iter  12: -4073.11428895395011   -3.92770e-08   3.56290e-08 DIIS
   @DF-RHF iter  13: -4073.11428896473717   -1.07871e-08   1.44021e-08 DIIS
   @DF-RHF iter  14: -4073.11428896705957   -2.32239e-09   8.71248e-09 DIIS
  Energy and wave function converged.


  ==> Post-Iterations <==

    Orbital Energies [Eh]
    ---------------------

    Doubly Occupied:                                                      

       1A    -26.088313     2A    -26.088207     3A    -26.088137  
       4A    -26.080890     5A    -11.197841     6A    -11.197838  
       7A    -11.197830     8A    -11.197823     9A    -11.197817  
      10A    -11.197812    11A    -11.197761    12A    -11.197760  
      13A    -11.197756    14A    -11.197750    15A    -11.197748  
      16A    -11.197745    17A    -11.197023    18A    -11.196999  
      19A    -11.196994    20A    -11.196918    21A    -11.196903  
      22A    -11.196897    23A    -11.194550    24A    -11.194549  
      25A    -11.194547    26A    -11.194546    27A    -11.194542  
      28A    -11.194539    29A    -11.193828    30A    -11.193818  
      31A    -11.193803    32A    -11.193714    33A    -11.193705  
      34A    -11.193636    35A    -11.193617    36A    -11.193517  
      37A    -11.193509    38A    -11.193388    39A    -11.193379  
      40A    -11.193323    41A    -11.193094    42A    -11.193093  
      43A    -11.193091    44A    -11.193090    45A    -11.193086  
      46A    -11.193083    47A    -11.192848    48A    -11.192785  
      49A    -11.192782    50A    -11.192652    51A    -11.192637  
      52A    -11.192579    53A    -11.192095    54A    -11.192033  
      55A    -11.192030    56A    -11.191911    57A    -11.191909  
      58A    -11.191830    59A    -11.191705    60A    -11.191661  
      61A    -11.191644    62A    -11.191578    63A    -11.191570  
      64A    -11.191553    65A    -11.189794    66A    -11.189793  
      67A    -11.189780    68A    -11.189698    69A    -11.189696  
      70A    -11.189685    71A    -11.189677    72A    -11.189675  
      73A    -11.189644    74A    -11.189601    75A    -11.189582  
      76A    -11.189578    77A    -11.189570    78A    -11.189561  
      79A    -11.189551    80A    -11.189497    81A    -11.189483  
      82A    -11.189443    83A    -11.188621    84A    -11.188562  
      85A    -11.188545    86A    -11.188432    87A    -11.188428  
      88A    -11.188374    89A    -11.186461    90A    -11.186427  
      91A    -11.186388    92A    -11.186212    93A    -11.186085  
      94A    -11.186057    95A    -11.184801    96A    -11.184405  
      97A    -11.184308    98A    -11.183379    99A    -11.183265  
     100A    -11.182809   101A     -7.557986   102A     -1.430572  
     103A     -1.372630   104A     -1.372468   105A     -1.366757  
     106A     -1.180909   107A     -1.169496   108A     -1.169491  
     109A     -1.152918   110A     -1.152911   111A     -1.143681  
     112A     -1.135099   113A     -1.128807   114A     -1.117695  
     115A     -1.117690   116A     -1.108199   117A     -1.108195  
     118A     -1.086343   119A     -1.086335   120A     -1.082553  
     121A     -1.079569   122A     -1.079566   123A     -1.061032  
     124A     -1.047885   125A     -1.046988   126A     -1.045840  
     127A     -1.042931   128A     -1.042912   129A     -1.021142  
     130A     -1.021126   131A     -1.011985   132A     -1.011983  
     133A     -0.999363   134A     -0.999333   135A     -0.995551  
     136A     -0.980280   137A     -0.980273   138A     -0.973729  
     139A     -0.973727   140A     -0.973613   141A     -0.956462  
     142A     -0.950009   143A     -0.949956   144A     -0.941319  
     145A     -0.939263   146A     -0.936607   147A     -0.932266  
     148A     -0.932221   149A     -0.926705   150A     -0.903193  
     151A     -0.903148   152A     -0.890024   153A     -0.889970  
     154A     -0.841623   155A     -0.841581   156A     -0.836026  
     157A     -0.835981   158A     -0.833375   159A     -0.822268  
     160A     -0.822208   161A     -0.821463   162A     -0.820798  
     163A     -0.820740   164A     -0.807150   165A     -0.806366  
     166A     -0.786549   167A     -0.779582   168A     -0.779564  
     169A     -0.776351   170A     -0.775358   171A     -0.768298  
     172A     -0.768285   173A     -0.763801   174A     -0.763798  
     175A     -0.720615   176A     -0.720599   177A     -0.715258  
     178A     -0.715238   179A     -0.714135   180A     -0.714115  
     181A     -0.713504   182A     -0.700744   183A     -0.691756  
     184A     -0.682236   185A     -0.669304   186A     -0.660699  
     187A     -0.660685   188A     -0.658188   189A     -0.658165  
     190A     -0.658127   191A     -0.649051   192A     -0.645627  
     193A     -0.645615   194A     -0.634068   195A     -0.634058  
     196A     -0.621736   197A     -0.620924   198A     -0.620922  
     199A     -0.617369   200A     -0.616369   201A     -0.616358  
     202A     -0.612340   203A     -0.588196   204A     -0.585132  
     205A     -0.585103   206A     -0.584627   207A     -0.581658  
     208A     -0.581644   209A     -0.574684   210A     -0.574170  
     211A     -0.573213   212A     -0.573186   213A     -0.568876  
     214A     -0.568844   215A     -0.562756   216A     -0.550537  
     217A     -0.550513   218A     -0.548592   219A     -0.548508  
     220A     -0.548243   221A     -0.543680   222A     -0.543677  
     223A     -0.542453   224A     -0.532199   225A     -0.531315  
     226A     -0.531182   227A     -0.531167   228A     -0.530246  
     229A     -0.530235   230A     -0.529332   231A     -0.529328  
     232A     -0.529168   233A     -0.524384   234A     -0.524382  
     235A     -0.523132   236A     -0.518027   237A     -0.514673  
     238A     -0.514662   239A     -0.508326   240A     -0.508309  
     241A     -0.508109   242A     -0.501935   243A     -0.501925  
     244A     -0.498597   245A     -0.498564   246A     -0.497626  
     247A     -0.496567   248A     -0.494616   249A     -0.491349  
     250A     -0.491329   251A     -0.487349   252A     -0.485083  
     253A     -0.484959   254A     -0.477847   255A     -0.468965  
     256A     -0.468905   257A     -0.468275   258A     -0.468267  
     259A     -0.462683   260A     -0.462649   261A     -0.461955  
     262A     -0.461922   263A     -0.458839   264A     -0.450392  
     265A     -0.450386   266A     -0.450052   267A     -0.450022  
     268A     -0.444939   269A     -0.444921   270A     -0.431780  
     271A     -0.429690   272A     -0.429478   273A     -0.429395  
     274A     -0.427909   275A     -0.427821   276A     -0.424262  
     277A     -0.424235   278A     -0.416697   279A     -0.415396  
     280A     -0.412996   281A     -0.412993   282A     -0.408270  
     283A     -0.406126   284A     -0.403482   285A     -0.403425  
     286A     -0.401214   287A     -0.399420   288A     -0.399409  
     289A     -0.391367   290A     -0.376199   291A     -0.376136  
     292A     -0.372048   293A     -0.370942   294A     -0.369821  
     295A     -0.369748   296A     -0.369323   297A     -0.340003  
     298A     -0.339980   299A     -0.321756   300A     -0.321749  
     301A     -0.317423   302A     -0.317371   303A     -0.313301  
     304A     -0.287735   305A     -0.287716   306A     -0.283538  
     307A     -0.268880   308A     -0.268876   309A     -0.265479  
     310A     -0.261037   311A     -0.260933   312A     -0.238247  
     313A     -0.234781   314A     -0.232034   315A     -0.231977  
     316A     -0.220016   317A     -0.193919   318A     -0.183758  
     319A     -0.183680   320A     -0.137502   321A     -0.137418  

    Virtual:                                                              

     322A      0.054554   323A      0.054635   324A      0.093891  
     325A      0.093911   326A      0.094527   327A      0.096252  
     328A      0.096418   329A      0.101330   330A      0.101686  
     331A      0.103850   332A      0.103928   333A      0.104140  
     334A      0.109636   335A      0.109643   336A      0.120921  
     337A      0.120929   338A      0.129934   339A      0.130221  
     340A      0.132808   341A      0.136419   342A      0.136620  
     343A      0.137429   344A      0.138366   345A      0.138507  
     346A      0.138859   347A      0.139626   348A      0.140080  
     349A      0.140796   350A      0.142147   351A      0.142157  
     352A      0.147828   353A      0.148466   354A      0.148488  
     355A      0.148818   356A      0.148852   357A      0.148889  
     358A      0.155621   359A      0.161006   360A      0.161023  
     361A      0.161046   362A      0.162815   363A      0.162932  
     364A      0.163685   365A      0.166271   366A      0.169893  
     367A      0.170079   368A      0.170300   369A      0.170588  
     370A      0.171792   371A      0.172125   372A      0.172284  
     373A      0.173743   374A      0.173864   375A      0.175981  
     376A      0.178608   377A      0.178636   378A      0.179779  
     379A      0.179799   380A      0.186597   381A      0.186603  
     382A      0.189117   383A      0.194062   384A      0.194273  
     385A      0.194376   386A      0.197611   387A      0.197622  
     388A      0.200672   389A      0.202238   390A      0.202376  
     391A      0.202735   392A      0.202912   393A      0.211494  
     394A      0.213768   395A      0.214805   396A      0.215211  
     397A      0.215219   398A      0.216682   399A      0.218354  
     400A      0.219832   401A      0.219989   402A      0.220568  
     403A      0.222358   404A      0.222389   405A      0.223308  
     406A      0.224291   407A      0.224317   408A      0.225172  
     409A      0.225218   410A      0.228232   411A      0.228548  
     412A      0.233095   413A      0.234521   414A      0.237725  
     415A      0.237737   416A      0.241738   417A      0.242037  
     418A      0.242154   419A      0.242209   420A      0.242292  
     421A      0.242486   422A      0.248881   423A      0.249874  
     424A      0.250707   425A      0.251988   426A      0.253151  
     427A      0.256102   428A      0.256320   429A      0.256497  
     430A      0.258560   431A      0.258697   432A      0.258789  
     433A      0.259979   434A      0.261342   435A      0.262449  
     436A      0.267920   437A      0.268044   438A      0.270787  
     439A      0.270944   440A      0.271317   441A      0.271359  
     442A      0.272091   443A      0.272152   444A      0.272866  
     445A      0.272993   446A      0.273271   447A      0.274546  
     448A      0.274646   449A      0.274681   450A      0.276773  
     451A      0.277163   452A      0.278665   453A      0.280240  
     454A      0.283211   455A      0.283968   456A      0.287631  
     457A      0.288960   458A      0.289124   459A      0.290274  
     460A      0.290700   461A      0.290749   462A      0.291436  
     463A      0.292104   464A      0.293507   465A      0.293647  
     466A      0.295181   467A      0.296351   468A      0.296372  
     469A      0.301306   470A      0.304313   471A      0.304319  
     472A      0.304981   473A      0.307333   474A      0.309216  
     475A      0.313118   476A      0.314721   477A      0.314776  
     478A      0.315157   479A      0.317071   480A      0.317211  
     481A      0.319423   482A      0.319575   483A      0.319647  
     484A      0.320707   485A      0.322975   486A      0.323344  
     487A      0.324628   488A      0.326745   489A      0.326887  
     490A      0.327880   491A      0.329017   492A      0.329313  
     493A      0.336903   494A      0.336962   495A      0.337177  
     496A      0.337523   497A      0.338051   498A      0.340246  
     499A      0.340524   500A      0.340625   501A      0.341751  
     502A      0.341869   503A      0.342006   504A      0.345817  
     505A      0.346208   506A      0.346943   507A      0.348239  
     508A      0.348816   509A      0.349878   510A      0.351854  
     511A      0.357665   512A      0.357695   513A      0.359193  
     514A      0.360636   515A      0.361535   516A      0.364654  
     517A      0.364752   518A      0.365493   519A      0.365964  
     520A      0.366605   521A      0.367489   522A      0.367583  
     523A      0.368207   524A      0.370264   525A      0.370451  
     526A      0.371627   527A      0.371694   528A      0.373355  
     529A      0.373493   530A      0.374052   531A      0.374705  
     532A      0.377808   533A      0.378957   534A      0.379243  
     535A      0.379491   536A      0.380690   537A      0.383839  
     538A      0.383973   539A      0.385070   540A      0.385263  
     541A      0.388261   542A      0.388470   543A      0.388889  
     544A      0.389727   545A      0.390577   546A      0.390745  
     547A      0.391103   548A      0.391887   549A      0.395080  
     550A      0.395729   551A      0.395896   552A      0.397171  
     553A      0.397424   554A      0.400579   555A      0.401550  
     556A      0.401574   557A      0.402740   558A      0.404799  
     559A      0.404862   560A      0.406180   561A      0.408321  
     562A      0.411454   563A      0.412093   564A      0.414485  
     565A      0.417343   566A      0.420354   567A      0.420655  
     568A      0.420780   569A      0.421704   570A      0.422322  
     571A      0.422451   572A      0.423091   573A      0.424899  
     574A      0.425321   575A      0.428696   576A      0.428954  
     577A      0.429177   578A      0.431931   579A      0.434676  
     580A      0.434791   581A      0.437036   582A      0.437220  
     583A      0.437749   584A      0.440828   585A      0.441388  
     586A      0.443074   587A      0.443127   588A      0.444515  
     589A      0.445508   590A      0.446048   591A      0.449279  
     592A      0.449374   593A      0.452201   594A      0.452863  
     595A      0.452920   596A      0.454084   597A      0.456279  
     598A      0.456860   599A      0.458078   600A      0.458161  
     601A      0.458437   602A      0.459494   603A      0.459686  
     604A      0.461922   605A      0.462020   606A      0.463392  
     607A      0.464114   608A      0.464723   609A      0.464960  
     610A      0.465362   611A      0.468691   612A      0.469296  
     613A      0.470651   614A      0.470730   615A      0.470874  
     616A      0.470881   617A      0.471329   618A      0.472867  
     619A      0.472970   620A      0.474392   621A      0.474788  
     622A      0.475062   623A      0.475331   624A      0.475872  
     625A      0.475897   626A      0.476041   627A      0.480446  
     628A      0.480508   629A      0.481794   630A      0.483273  
     631A      0.484557   632A      0.485011   633A      0.485112  
     634A      0.487842   635A      0.487871   636A      0.488057  
     637A      0.490051   638A      0.490162   639A      0.490644  
     640A      0.495260   641A      0.495316   642A      0.496251  
     643A      0.496345   644A      0.498222   645A      0.498298  
     646A      0.499209   647A      0.499473   648A      0.500719  
     649A      0.501378   650A      0.502313   651A      0.502523  
     652A      0.502842   653A      0.502964   654A      0.503970  
     655A      0.504580   656A      0.508141   657A      0.509566  
     658A      0.510136   659A      0.511753   660A      0.513402  
     661A      0.514272   662A      0.515315   663A      0.515776  
     664A      0.515871   665A      0.516772   666A      0.517414  
     667A      0.519607   668A      0.519663   669A      0.520806  
     670A      0.522738   671A      0.523251   672A      0.524931  
     673A      0.525572   674A      0.526919   675A      0.528683  
     676A      0.529917   677A      0.530408   678A      0.530980  
     679A      0.532927   680A      0.533930   681A      0.533965  
     682A      0.534709   683A      0.535588   684A      0.537457  
     685A      0.540035   686A      0.540123   687A      0.540353  
     688A      0.541194   689A      0.543024   690A      0.543931  
     691A      0.544670   692A      0.545177   693A      0.547012  
     694A      0.547895   695A      0.548298   696A      0.548729  
     697A      0.549463   698A      0.549773   699A      0.553458  
     700A      0.554048   701A      0.556193   702A      0.557763  
     703A      0.558952   704A      0.559427   705A      0.560700  
     706A      0.560790   707A      0.561958   708A      0.563182  
     709A      0.563235   710A      0.564077   711A      0.565369  
     712A      0.565468   713A      0.565991   714A      0.566471  
     715A      0.568523   716A      0.569523   717A      0.570070  
     718A      0.573940   719A      0.575111   720A      0.576840  
     721A      0.577383   722A      0.578842   723A      0.580290  
     724A      0.581212   725A      0.582245   726A      0.583505  
     727A      0.583824   728A      0.585045   729A      0.588075  
     730A      0.589768   731A      0.589891   732A      0.590323  
     733A      0.595459   734A      0.596027   735A      0.597495  
     736A      0.598116   737A      0.599108   738A      0.600572  
     739A      0.600657   740A      0.605088   741A      0.605204  
     742A      0.605302   743A      0.605967   744A      0.608482  
     745A      0.614034   746A      0.615549   747A      0.616058  
     748A      0.622313   749A      0.624392   750A      0.625021  
     751A      0.627352   752A      0.628582   753A      0.629129  
     754A      0.629823   755A      0.629953   756A      0.631302  
     757A      0.632276   758A      0.632923   759A      0.635571  
     760A      0.637454   761A      0.639058   762A      0.640877  
     763A      0.645095   764A      0.646054   765A      0.649006  
     766A      0.649174   767A      0.650050   768A      0.651328  
     769A      0.652197   770A      0.652359   771A      0.652840  
     772A      0.655791   773A      0.657064   774A      0.658615  
     775A      0.664712   776A      0.664830   777A      0.667069  
     778A      0.667315   779A      0.668442   780A      0.669776  
     781A      0.671829   782A      0.673166   783A      0.674282  
     784A      0.675574   785A      0.677896   786A      0.679109  
     787A      0.683269   788A      0.683598   789A      0.685298  
     790A      0.686611   791A      0.687176   792A      0.691503  
     793A      0.694387   794A      0.695442   795A      0.699794  
     796A      0.705535   797A      0.708243   798A      0.709607  
     799A      0.710276   800A      0.712621   801A      0.713024  
     802A      0.715661   803A      0.718128   804A      0.725528  
     805A      0.726276   806A      0.727117   807A      0.727555  
     808A      0.729284   809A      0.729311   810A      0.733041  
     811A      0.733511   812A      0.736260   813A      0.742423  
     814A      0.744198   815A      0.745404   816A      0.746776  
     817A      0.748823   818A      0.750275   819A      0.753402  
     820A      0.755165   821A      0.755737   822A      0.756841  
     823A      0.757598   824A      0.759140   825A      0.762419  
     826A      0.762673   827A      0.767628   828A      0.769198  
     829A      0.774904   830A      0.778070   831A      0.778413  
     832A      0.782393   833A      0.784085   834A      0.784301  
     835A      0.794435   836A      0.796898   837A      0.798243  
     838A      0.798833   839A      0.800868   840A      0.805637  
     841A      0.806692   842A      0.810313   843A      0.813604  
     844A      0.815563   845A      0.820469   846A      0.820970  
     847A      0.821846   848A      0.822882   849A      0.824072  
     850A      0.835089   851A      0.843721   852A      0.848657  
     853A      0.853523   854A      0.853780   855A      0.857123  
     856A      0.858903   857A      0.861309   858A      0.863027  
     859A      0.863851   860A      0.864412   861A      0.867135  
     862A      0.868606   863A      0.869612   864A      0.873639  
     865A      0.873882   866A      0.874912   867A      0.878707  
     868A      0.879833   869A      0.880646   870A      0.881196  
     871A      0.883229   872A      0.883323   873A      0.883999  
     874A      0.886182   875A      0.892654   876A      0.893357  
     877A      0.895392   878A      0.902394   879A      0.902477  
     880A      0.905147   881A      0.905971   882A      0.909864  
     883A      0.910059   884A      0.915013   885A      0.918789  
     886A      0.919575   887A      0.919696   888A      0.920609  
     889A      0.922180   890A      0.927334   891A      0.927384  
     892A      0.928892   893A      0.929902   894A      0.930642  
     895A      0.931166   896A      0.932502   897A      0.936678  
     898A      0.937503   899A      0.938004   900A      0.940447  
     901A      0.940811   902A      0.942654   903A      0.942925  
     904A      0.946583   905A      0.949327   906A      0.951002  
     907A      0.951625   908A      0.951986   909A      0.952165  
     910A      0.958996   911A      0.960543   912A      0.963475  
     913A      0.964101   914A      0.965952   915A      0.966885  
     916A      0.970215   917A      0.970468   918A      0.973699  
     919A      0.976900   920A      0.979979   921A      0.980416  
     922A      0.981421   923A      0.981742   924A      0.983324  
     925A      0.984565   926A      0.984825   927A      0.985596  
     928A      0.987956   929A      0.992089   930A      0.992759  
     931A      0.995631   932A      0.996220   933A      0.997165  
     934A      0.999585   935A      1.000800   936A      1.003348  
     937A      1.004021   938A      1.005063   939A      1.006340  
     940A      1.008326   941A      1.009966   942A      1.010414  
     943A      1.011499   944A      1.013950   945A      1.014218  
     946A      1.014368   947A      1.018504   948A      1.019081  
     949A      1.019255   950A      1.019683   951A      1.020342  
     952A      1.020876   953A      1.021608   954A      1.021663  
     955A      1.029100   956A      1.029207   957A      1.034942  
     958A      1.037052   959A      1.038433   960A      1.046378  
     961A      1.046582   962A      1.047216   963A      1.048422  
     964A      1.054112   965A      1.056452   966A      1.057207  
     967A      1.059126   968A      1.061259   969A      1.061657  
     970A      1.062470   971A      1.066732   972A      1.068953  
     973A      1.069257   974A      1.069378   975A      1.070282  
     976A      1.070369   977A      1.076956   978A      1.079585  
     979A      1.080533   980A      1.083094   981A      1.084493  
     982A      1.084606   983A      1.085475   984A      1.086346  
     985A      1.087842   986A      1.091193   987A      1.093300  
     988A      1.093479   989A      1.094394   990A      1.099530  
     991A      1.101537   992A      1.102236   993A      1.110768  
     994A      1.110833   995A      1.112201   996A      1.113189  
     997A      1.113471   998A      1.114403   999A      1.116666  
    1000A      1.117027  1001A      1.120073  1002A      1.120215  
    1003A      1.121058  1004A      1.121619  1005A      1.124741  
    1006A      1.125548  1007A      1.126170  1008A      1.128416  
    1009A      1.128734  1010A      1.129658  1011A      1.131011  
    1012A      1.131629  1013A      1.132131  1014A      1.134897  
    1015A      1.135859  1016A      1.136466  1017A      1.136547  
    1018A      1.136871  1019A      1.140260  1020A      1.141290  
    1021A      1.142020  1022A      1.142682  1023A      1.143514  
    1024A      1.143640  1025A      1.143809  1026A      1.144683  
    1027A      1.146167  1028A      1.146343  1029A      1.146451  
    1030A      1.147158  1031A      1.147447  1032A      1.148749  
    1033A      1.150095  1034A      1.150886  1035A      1.151057  
    1036A      1.151541  1037A      1.151824  1038A      1.152105  
    1039A      1.152258  1040A      1.154296  1041A      1.157383  
    1042A      1.159196  1043A      1.159462  1044A      1.160161  
    1045A      1.163446  1046A      1.165952  1047A      1.168780  
    1048A      1.169829  1049A      1.170234  1050A      1.170745  
    1051A      1.171304  1052A      1.172611  1053A      1.175445  
    1054A      1.175773  1055A      1.176776  1056A      1.177135  
    1057A      1.178471  1058A      1.185505  1059A      1.186987  
    1060A      1.191257  1061A      1.191448  1062A      1.191773  
    1063A      1.192326  1064A      1.196032  1065A      1.196217  
    1066A      1.198549  1067A      1.199580  1068A      1.201442  
    1069A      1.203791  1070A      1.203980  1071A      1.205131  
    1072A      1.206221  1073A      1.209475  1074A      1.213565  
    1075A      1.215138  1076A      1.218338  1077A      1.218542  
    1078A      1.219307  1079A      1.220297  1080A      1.220329  
    1081A      1.224489  1082A      1.224999  1083A      1.225670  
    1084A      1.226525  1085A      1.229793  1086A      1.230187  
    1087A      1.233096  1088A      1.237781  1089A      1.240333  
    1090A      1.241103  1091A      1.242300  1092A      1.243580  
    1093A      1.245746  1094A      1.248346  1095A      1.248989  
    1096A      1.250795  1097A      1.251463  1098A      1.254478  
    1099A      1.254560  1100A      1.255433  1101A      1.256914  
    1102A      1.260290  1103A      1.263724  1104A      1.264135  
    1105A      1.268896  1106A      1.270716  1107A      1.271670  
    1108A      1.272709  1109A      1.274469  1110A      1.274776  
    1111A      1.277490  1112A      1.279560  1113A      1.279687  
    1114A      1.280043  1115A      1.280047  1116A      1.280474  
    1117A      1.284224  1118A      1.291459  1119A      1.293190  
    1120A      1.293910  1121A      1.294392  1122A      1.297025  
    1123A      1.303915  1124A      1.305314  1125A      1.313079  
    1126A      1.317541  1127A      1.318277  1128A      1.319670  
    1129A      1.321449  1130A      1.321624  1131A      1.324214  
    1132A      1.328430  1133A      1.328562  1134A      1.331548  
    1135A      1.331678  1136A      1.332865  1137A      1.337758  
    1138A      1.338206  1139A      1.346240  1140A      1.346355  
    1141A      1.352682  1142A      1.353403  1143A      1.356126  
    1144A      1.356538  1145A      1.358031  1146A      1.358948  
    1147A      1.359834  1148A      1.359984  1149A      1.363336  
    1150A      1.368498  1151A      1.369380  1152A      1.370461  
    1153A      1.375012  1154A      1.377909  1155A      1.379698  
    1156A      1.380432  1157A      1.382468  1158A      1.382661  
    1159A      1.383911  1160A      1.386633  1161A      1.389278  
    1162A      1.391759  1163A      1.392662  1164A      1.393424  
    1165A      1.394060  1166A      1.394085  1167A      1.397437  
    1168A      1.398524  1169A      1.401389  1170A      1.401874  
    1171A      1.404637  1172A      1.406355  1173A      1.407514  
    1174A      1.407755  1175A      1.423423  1176A      1.423496  
    1177A      1.425875  1178A      1.426410  1179A      1.427261  
    1180A      1.427539  1181A      1.427904  1182A      1.428035  
    1183A      1.429372  1184A      1.429400  1185A      1.441268  
    1186A      1.441623  1187A      1.441770  1188A      1.441996  
    1189A      1.448496  1190A      1.453162  1191A      1.453543  
    1192A      1.453807  1193A      1.457412  1194A      1.457812  
    1195A      1.464110  1196A      1.464179  1197A      1.467476  
    1198A      1.471637  1199A      1.474211  1200A      1.474592  
    1201A      1.475186  1202A      1.476137  1203A      1.476316  
    1204A      1.476671  1205A      1.479247  1206A      1.484915  
    1207A      1.484994  1208A      1.488089  1209A      1.488346  
    1210A      1.495860  1211A      1.496562  1212A      1.498241  
    1213A      1.499398  1214A      1.499561  1215A      1.499944  
    1216A      1.500533  1217A      1.502061  1218A      1.508230  
    1219A      1.508584  1220A      1.509077  1221A      1.512243  
    1222A      1.512758  1223A      1.518389  1224A      1.523005  
    1225A      1.523148  1226A      1.524838  1227A      1.526274  
    1228A      1.527094  1229A      1.527193  1230A      1.534436  
    1231A      1.538111  1232A      1.540001  1233A      1.540368  
    1234A      1.542814  1235A      1.543032  1236A      1.544562  
    1237A      1.546226  1238A      1.551598  1239A      1.552799  
    1240A      1.553149  1241A      1.557660  1242A      1.560239  
    1243A      1.566214  1244A      1.566348  1245A      1.568240  
    1246A      1.577460  1247A      1.577834  1248A      1.579380  
    1249A      1.586987  1250A      1.588396  1251A      1.603419  
    1252A      1.603637  1253A      1.608000  1254A      1.615318  
    1255A      1.623136  1256A      1.623197  1257A      1.636640  
    1258A      1.650298  1259A      1.654005  1260A      1.656532  
    1261A      1.660410  1262A      1.668306  1263A      1.675058  
    1264A      1.675577  1265A      1.676075  1266A      1.676836  
    1267A      1.678373  1268A      1.679756  1269A      1.681229  
    1270A      1.682228  1271A      1.683951  1272A      1.684842  
    1273A      1.685886  1274A      1.686056  1275A      1.688137  
    1276A      1.688348  1277A      1.689877  1278A      1.692282  
    1279A      1.692963  1280A      1.695852  1281A      1.696989  
    1282A      1.698105  1283A      1.699098  1284A      1.701584  
    1285A      1.702753  1286A      1.703887  1287A      1.704340  
    1288A      1.706253  1289A      1.707855  1290A      1.708386  
    1291A      1.708559  1292A      1.708740  1293A      1.709031  
    1294A      1.711681  1295A      1.713469  1296A      1.714787  
    1297A      1.715866  1298A      1.716872  1299A      1.718855  
    1300A      1.719424  1301A      1.722692  1302A      1.722812  
    1303A      1.725811  1304A      1.729133  1305A      1.735138  
    1306A      1.735695  1307A      1.737730  1308A      1.737929  
    1309A      1.738033  1310A      1.738153  1311A      1.739856  
    1312A      1.740933  1313A      1.742089  1314A      1.743040  
    1315A      1.744133  1316A      1.748913  1317A      1.749079  
    1318A      1.754371  1319A      1.757072  1320A      1.760247  
    1321A      1.763176  1322A      1.765450  1323A      1.767082  
    1324A      1.767892  1325A      1.771993  1326A      1.774386  
    1327A      1.774595  1328A      1.781013  1329A      1.781407  
    1330A      1.781591  1331A      1.782225  1332A      1.786007  
    1333A      1.787967  1334A      1.790643  1335A      1.791145  
    1336A      1.794233  1337A      1.794331  1338A      1.795483  
    1339A      1.804459  1340A      1.814293  1341A      1.814521  
    1342A      1.816497  1343A      1.816773  1344A      1.825988  
    1345A      1.831883  1346A      1.833448  1347A      1.834455  
    1348A      1.846376  1349A      1.848763  1350A      1.850034  
    1351A      1.850505  1352A      1.874032  1353A      1.874250  
    1354A      1.878686  1355A      1.885883  1356A      1.889025  
    1357A      1.891990  1358A      1.892397  1359A      1.892778  
    1360A      1.892907  1361A      1.895910  1362A      1.899535  
    1363A      1.899871  1364A      1.901336  1365A      1.904993  
    1366A      1.912865  1367A      1.913838  1368A      1.915470  
    1369A      1.916056  1370A      1.916799  1371A      1.919354  
    1372A      1.919666  1373A      1.926263  1374A      1.926965  
    1375A      1.931395  1376A      1.931523  1377A      1.933605  
    1378A      1.933850  1379A      1.937082  1380A      1.937845  
    1381A      1.938763  1382A      1.939751  1383A      1.939875  
    1384A      1.944593  1385A      1.945017  1386A      1.949128  
    1387A      1.949479  1388A      1.950671  1389A      1.951139  
    1390A      1.953021  1391A      1.953693  1392A      1.957269  
    1393A      1.960150  1394A      1.968660  1395A      1.968788  
    1396A      1.970502  1397A      1.970953  1398A      1.975158  
    1399A      1.977953  1400A      1.985558  1401A      1.985877  
    1402A      1.989655  1403A      1.991195  1404A      1.991476  
    1405A      1.993328  1406A      1.997538  1407A      1.997567  
    1408A      1.999862  1409A      1.999952  1410A      2.004286  
    1411A      2.004692  1412A      2.005726  1413A      2.009365  
    1414A      2.009709  1415A      2.011425  1416A      2.012003  
    1417A      2.012243  1418A      2.012887  1419A      2.020502  
    1420A      2.022426  1421A      2.022896  1422A      2.023829  
    1423A      2.024397  1424A      2.028808  1425A      2.029327  
    1426A      2.031817  1427A      2.033353  1428A      2.035140  
    1429A      2.035671  1430A      2.037157  1431A      2.039071  
    1432A      2.044232  1433A      2.047361  1434A      2.050175  
    1435A      2.051171  1436A      2.055503  1437A      2.055934  
    1438A      2.056698  1439A      2.058917  1440A      2.059378  
    1441A      2.060663  1442A      2.065810  1443A      2.069494  
    1444A      2.069994  1445A      2.074129  1446A      2.074722  
    1447A      2.078219  1448A      2.078400  1449A      2.084041  
    1450A      2.084298  1451A      2.085760  1452A      2.086842  
    1453A      2.088196  1454A      2.089721  1455A      2.090960  
    1456A      2.091798  1457A      2.093501  1458A      2.095432  
    1459A      2.096619  1460A      2.097413  1461A      2.098543  
    1462A      2.100455  1463A      2.102510  1464A      2.103545  
    1465A      2.108035  1466A      2.109286  1467A      2.109907  
    1468A      2.112407  1469A      2.115178  1470A      2.120006  
    1471A      2.122037  1472A      2.123942  1473A      2.126124  
    1474A      2.127252  1475A      2.130181  1476A      2.131309  
    1477A      2.133072  1478A      2.134327  1479A      2.135554  
    1480A      2.136783  1481A      2.137213  1482A      2.139197  
    1483A      2.141012  1484A      2.143718  1485A      2.145161  
    1486A      2.145670  1487A      2.147210  1488A      2.148337  
    1489A      2.148998  1490A      2.150022  1491A      2.150693  
    1492A      2.153146  1493A      2.153673  1494A      2.153993  
    1495A      2.154709  1496A      2.154952  1497A      2.155390  
    1498A      2.157435  1499A      2.158667  1500A      2.161249  
    1501A      2.161502  1502A      2.163243  1503A      2.165397  
    1504A      2.165946  1505A      2.166634  1506A      2.168847  
    1507A      2.169660  1508A      2.174397  1509A      2.176051  
    1510A      2.176689  1511A      2.178444  1512A      2.182759  
    1513A      2.183745  1514A      2.184315  1515A      2.185305  
    1516A      2.188233  1517A      2.189045  1518A      2.189457  
    1519A      2.190838  1520A      2.191324  1521A      2.192770  
    1522A      2.194015  1523A      2.196027  1524A      2.197186  
    1525A      2.197720  1526A      2.200802  1527A      2.201552  
    1528A      2.203248  1529A      2.205375  1530A      2.207965  
    1531A      2.208091  1532A      2.209495  1533A      2.210222  
    1534A      2.213063  1535A      2.215386  1536A      2.216506  
    1537A      2.221471  1538A      2.226363  1539A      2.226602  
    1540A      2.227813  1541A      2.228836  1542A      2.229537  
    1543A      2.231243  1544A      2.231411  1545A      2.232245  
    1546A      2.237808  1547A      2.238209  1548A      2.239241  
    1549A      2.241330  1550A      2.243960  1551A      2.247585  
    1552A      2.249262  1553A      2.249731  1554A      2.258127  
    1555A      2.261146  1556A      2.262489  1557A      2.263746  
    1558A      2.264731  1559A      2.266115  1560A      2.266583  
    1561A      2.268114  1562A      2.268968  1563A      2.269220  
    1564A      2.269713  1565A      2.273415  1566A      2.273971  
    1567A      2.274277  1568A      2.276700  1569A      2.277152  
    1570A      2.283590  1571A      2.284498  1572A      2.285056  
    1573A      2.287369  1574A      2.288649  1575A      2.290908  
    1576A      2.291253  1577A      2.293680  1578A      2.294411  
    1579A      2.295237  1580A      2.296320  1581A      2.297523  
    1582A      2.299434  1583A      2.306673  1584A      2.308167  
    1585A      2.309143  1586A      2.311960  1587A      2.312158  
    1588A      2.314043  1589A      2.316619  1590A      2.318456  
    1591A      2.325767  1592A      2.327681  1593A      2.328510  
    1594A      2.331755  1595A      2.337935  1596A      2.339755  
    1597A      2.347947  1598A      2.348609  1599A      2.350818  
    1600A      2.351837  1601A      2.353630  1602A      2.357452  
    1603A      2.365699  1604A      2.368037  1605A      2.369209  
    1606A      2.370923  1607A      2.374921  1608A      2.375943  
    1609A      2.391339  1610A      2.391458  1611A      2.394559  
    1612A      2.394974  1613A      2.395788  1614A      2.395912  
    1615A      2.401389  1616A      2.402530  1617A      2.403502  
    1618A      2.404365  1619A      2.406977  1620A      2.409418  
    1621A      2.409559  1622A      2.410747  1623A      2.411809  
    1624A      2.412136  1625A      2.412638  1626A      2.418513  
    1627A      2.421452  1628A      2.422118  1629A      2.437196  
    1630A      2.443395  1631A      2.447645  1632A      2.451954  
    1633A      2.454304  1634A      2.457148  1635A      2.463591  
    1636A      2.467441  1637A      2.476403  1638A      2.478685  
    1639A      2.485157  1640A      2.487461  1641A      2.492540  
    1642A      2.494713  1643A      2.503750  1644A      2.509671  
    1645A      2.511074  1646A      2.521773  1647A      2.524306  
    1648A      2.530738  1649A      2.531006  1650A      2.534386  
    1651A      2.534639  1652A      2.537346  1653A      2.537720  
    1654A      2.555668  1655A      2.556069  1656A      2.565289  
    1657A      2.567144  1658A      2.572018  1659A      2.572754  
    1660A      2.575164  1661A      2.582819  1662A      2.606138  
    1663A      2.607973  1664A      2.608238  1665A      2.608691  
    1666A      2.609704  1667A      2.611723  1668A      2.613170  
    1669A      2.614476  1670A      2.618499  1671A      2.619696  
    1672A      2.627065  1673A      2.627279  1674A      2.630912  
    1675A      2.634601  1676A      2.637587  1677A      2.644569  
    1678A      2.646776  1679A      2.647209  1680A      2.650956  
    1681A      2.651418  1682A      2.651552  1683A      2.652325  
    1684A      2.655080  1685A      2.658862  1686A      2.667151  
    1687A      2.667642  1688A      2.679143  1689A      2.679422  
    1690A      2.679923  1691A      2.680202  1692A      2.684297  
    1693A      2.685978  1694A      2.699702  1695A      2.707939  
    1696A      2.708611  1697A      2.712221  1698A      2.713015  
    1699A      2.713737  1700A      2.717226  1701A      2.717588  
    1702A      2.718816  1703A      2.721236  1704A      2.721901  
    1705A      2.731672  1706A      2.734494  1707A      2.734788  
    1708A      2.735150  1709A      2.737135  1710A      2.742373  
    1711A      2.742544  1712A      2.744357  1713A      2.753025  
    1714A      2.755157  1715A      2.755808  1716A      2.758364  
    1717A      2.759059  1718A      2.759432  1719A      2.761100  
    1720A      2.763072  1721A      2.764092  1722A      2.775808  
    1723A      2.787772  1724A      2.794078  1725A      2.794913  
    1726A      2.795893  1727A      2.798120  1728A      2.798133  
    1729A      2.820955  1730A      2.834654  1731A      2.835342  
    1732A      2.847434  1733A      2.847765  1734A      2.850460  
    1735A      2.851001  1736A      2.868776  1737A      2.868912  
    1738A      2.871010  1739A      2.871063  1740A      2.876244  
    1741A      2.883337  1742A      2.884299  1743A      2.885440  
    1744A      2.885702  1745A      2.885780  1746A      2.890875  
    1747A      2.900968  1748A      2.901511  1749A      2.908370  
    1750A      2.910905  1751A      2.911495  1752A      2.911552  
    1753A      2.913480  1754A      2.933977  1755A      2.934423  
    1756A      2.937201  1757A      2.937921  1758A      2.940981  
    1759A      2.942587  1760A      2.968758  1761A      2.969531  
    1762A      2.981295  1763A      2.981488  1764A      2.990773  
    1765A      2.993793  1766A      2.993892  1767A      3.000260  
    1768A      3.000386  1769A      3.029939  1770A      3.030124  
    1771A      3.030567  1772A      3.041216  1773A      3.058465  
    1774A      3.059281  1775A      3.095884  1776A      3.096811  
    1777A      3.100867  1778A      3.103630  1779A      3.112713  
    1780A      3.115302  1781A      3.115728  1782A      3.121349  
    1783A      3.125510  1784A      3.125571  1785A      3.139578  
    1786A      3.152985  1787A      3.171585  1788A      3.172041  
    1789A      3.179191  1790A      3.189775  1791A      3.195417  
    1792A      3.195646  1793A      3.199747  1794A      3.200722  
    1795A      3.205370  1796A      3.206030  1797A      3.206721  
    1798A      3.207374  1799A      3.217505  1800A      3.218458  
    1801A      3.218755  1802A      3.225008  1803A      3.227511  
    1804A      3.227680  1805A      3.236360  1806A      3.238790  
    1807A      3.245743  1808A      3.246264  1809A      3.257572  
    1810A      3.258119  1811A      3.283338  1812A      3.319466  
    1813A      3.323512  1814A      3.327054  1815A      3.328911  
    1816A      3.330620  1817A      3.331866  1818A      3.336354  
    1819A      3.338290  1820A      3.340983  1821A      3.341617  
    1822A      3.363875  1823A      3.365967  1824A      3.366329  
    1825A      3.372390  1826A      3.378565  1827A      3.432800  
    1828A      3.433330  1829A      3.453888  1830A      3.487427  
    1831A      3.504653  1832A      3.507849  1833A      3.526840  
    1834A      3.531506  1835A      3.534482  1836A      3.536494  
    1837A      3.543066  1838A      3.544387  1839A      3.546350  
    1840A      3.558047  1841A      3.561211  1842A      3.570427  
    1843A      3.578972  1844A      3.592306  1845A      3.624172  
    1846A      3.646300  1847A      3.647611  1848A      3.656117  
    1849A      3.657774  1850A      3.714951  1851A      3.720338  
    1852A      3.737151  1853A      3.738876  1854A      3.775906  
    1855A      3.820076  1856A      3.822847  1857A      3.824878  
    1858A      3.838343  1859A      3.843977  1860A      3.862461  
    1861A      3.909410  1862A      3.913731  1863A      3.939338  
    1864A      3.942679  1865A      3.982888  1866A      3.987628  
    1867A      4.015744  1868A      4.016139  1869A      4.020304  
    1870A      4.023350  1871A      4.039892  1872A      4.042899  
    1873A      4.047863  1874A      4.095495  1875A      4.098627  
    1876A      4.147936  1877A      4.156870  1878A      4.159835  
    1879A      4.163972  1880A      4.188083  1881A      4.192170  
    1882A      4.193398  1883A      4.197450  1884A      4.198672  
    1885A      4.247371  1886A      4.249415  1887A      4.255575  
    1888A      4.336918  1889A      4.397233  1890A      4.432283  
    1891A      4.435727  1892A      4.453295  1893A      4.515373  
    1894A      4.644868  1895A      4.644884  1896A      4.668824  
    1897A      4.739741  1898A      4.774463  1899A      4.774828  

    Final Occupation by Irrep:
              A 
    DOCC [   321 ]
    NA   [   321 ]
    NB   [   321 ]

  @DF-RHF Final Energy: -4073.11428896705957

   => Energetics <=

    Nuclear Repulsion Energy =          17693.6498265955779061
    One-Electron Energy =              -40876.2518474852477084
    Two-Electron Energy =               19109.4877319226106920
    Total Energy =                      -4073.1142889670591103

Computation Completed


Properties will be evaluated at   0.000000,   0.000000,   0.000000 [a0]

Properties computed using the SCF density matrix


 Multipole Moments:

 ------------------------------------------------------------------------------------
     Multipole            Electronic (a.u.)      Nuclear  (a.u.)        Total (a.u.)
 ------------------------------------------------------------------------------------

 L = 1.  Multiply by 2.5417464519 to convert [e a0] to [Debye]
 Dipole X            :          0.0012894           -0.0000548            0.0012346
 Dipole Y            :          0.0014115           -0.0002464            0.0011651
 Dipole Z            :         17.4507128          -22.6147449           -5.1640321
 Magnitude           :                                                    5.1640324

 ------------------------------------------------------------------------------------

*** tstop() called on n2cn0368 at Sat Jan 27 14:23:42 2024
Module time:
	user time   =   24440.98 seconds =     407.35 minutes
	system time =    1150.75 seconds =      19.18 minutes
	total time  =      13379 seconds =     222.98 minutes
Total time:
	user time   =   24440.98 seconds =     407.35 minutes
	system time =    1150.75 seconds =      19.18 minutes
	total time  =      13379 seconds =     222.98 minutes

  //>>>>>>>>>>>>>>>>>>>>>>>>>>>>>>>>>>>//
  //            Monomer A HF           //
  //<<<<<<<<<<<<<<<<<<<<<<<<<<<<<<<<<<<//

   => Libint2 <=

    Primary   basis highest AM E, G, H:  5, 4, 3
    Auxiliary basis highest AM E, G, H:  6, 5, 4
    Onebody   basis highest AM E, G, H:  6, 5, 4
    Solid Harmonics ordering:            gaussian

*** tstart() called on n2cn0368
*** at Sat Jan 27 14:23:42 2024

   => Loading Basis Set <=

    Name: JUN-CC-PVDZ
    Role: ORBITAL
    Keyword: BASIS
    atoms 1                                                   entry B          line   130 file /opt/software/pc2/EB-SW/software/PSI4/1.9-foss-2022a/share/psi4/basis/jun-cc-pvdz.gbs 
    atoms 2-5                                                 entry F          line   266 file /opt/software/pc2/EB-SW/software/PSI4/1.9-foss-2022a/share/psi4/basis/jun-cc-pvdz.gbs 
    atoms 6-23, 30-42, 45-59, 62-78, 81-93, 98-108, 111-119   entry C          line   164 file /opt/software/pc2/EB-SW/software/PSI4/1.9-foss-2022a/share/psi4/basis/jun-cc-pvdz.gbs 
    atoms 24-29, 43-44, 60-61, 79-80, 94-97, 109-110, 120-125 entry H          line    36 file /opt/software/pc2/EB-SW/software/PSI4/1.9-foss-2022a/share/psi4/basis/jun-cc-pvdz.gbs 


         ---------------------------------------------------------
                                   SCF
               by Justin Turney, Rob Parrish, Andy Simmonett
                          and Daniel G. A. Smith
                              RHF Reference
                       16 Threads,  61035 MiB Core
         ---------------------------------------------------------

  ==> Geometry <==

    Molecular point group: c1
    Full point group: C1

    Geometry (in Angstrom), charge = -1, multiplicity = 1:

       Center              X                  Y                   Z               Mass       
    ------------   -----------------  -----------------  -----------------  -----------------
         B           -0.000201921932     0.000288800891     3.538303888398    11.009305360000
         F           -0.000004162732     0.000014527991     4.951088888398    18.998403162730
         F            1.147855837268     0.675795727991     3.067162888398    18.998403162730
         F            0.011913897268    -1.331996472009     3.067364888398    18.998403162730
         F           -1.159670162732     0.656088027991     3.067443888398    18.998403162730
      Gh(C)          -3.668445426752     7.803766698073    -0.259830070266    12.000000000000
      Gh(C)          -4.847602882078     7.131256359331    -0.262196645199    12.000000000000
      Gh(C)          -4.894963461907     5.696344931522    -0.262769556297    12.000000000000
      Gh(C)          -3.653744841505     4.980744868950    -0.255109114568    12.000000000000
      Gh(C)          -2.409429284226     7.113995564665    -0.259635728006    12.000000000000
      Gh(C)          -2.425481506836     5.681136478894    -0.266640616876    12.000000000000
      Gh(C)          -1.194748179167     7.786158722300    -0.258163547464    12.000000000000
      Gh(C)           0.037954866205     7.099436173748    -0.260334251769    12.000000000000
      Gh(C)           0.030328424687     5.669504087695    -0.265817636685    12.000000000000
      Gh(C)          -1.200988670637     4.969284875906    -0.256847902752    12.000000000000
      Gh(C)           1.277953663083     7.772873971185    -0.258958403209    12.000000000000
      Gh(C)           2.485353921992     7.087711413228    -0.261232891113    12.000000000000
      Gh(C)           2.486124522185     5.654785338231    -0.268170640101    12.000000000000
      Gh(C)           1.254078756912     4.956092641655    -0.256542698513    12.000000000000
      Gh(C)           3.751710428674     7.763926678971    -0.261106039733    12.000000000000
      Gh(C)           4.923561893453     7.078795304981    -0.263162520441    12.000000000000
      Gh(C)           4.955603108594     5.643461991360    -0.263322933248    12.000000000000
      Gh(C)           3.706797371473     4.941224736324    -0.258231373078    12.000000000000
      Gh(H)          -3.658525300490     8.890841947126    -0.258145082016     1.007825032230
      Gh(H)          -1.189217492488     8.874135615351    -0.254191671023     1.007825032230
      Gh(H)           1.284290076155     8.860847963479    -0.254799579068     1.007825032230
      Gh(H)           3.753537924068     8.851049806963    -0.259583515417     1.007825032230
      Gh(H)           5.869954540475     7.613809362646    -0.264087887483     1.007825032230
      Gh(H)          -5.788235870234     7.676316740925    -0.263756492555     1.007825032230
      Gh(C)          -6.091978121428     4.993274541634    -0.264641796788    12.000000000000
[...]
    1504A      2.122272  1505A      2.126102  1506A      2.127807  
    1507A      2.128384  1508A      2.129945  1509A      2.130602  
    1510A      2.131128  1511A      2.133442  1512A      2.134405  
    1513A      2.140760  1514A      2.141117  1515A      2.143281  
    1516A      2.143735  1517A      2.144487  1518A      2.144529  
    1519A      2.146585  1520A      2.151326  1521A      2.154732  
    1522A      2.158562  1523A      2.159733  1524A      2.160058  
    1525A      2.161244  1526A      2.161386  1527A      2.162285  
    1528A      2.163302  1529A      2.163886  1530A      2.164507  
    1531A      2.170429  1532A      2.172320  1533A      2.172940  
    1534A      2.181046  1535A      2.182945  1536A      2.183508  
    1537A      2.183855  1538A      2.192046  1539A      2.192054  
    1540A      2.193080  1541A      2.194527  1542A      2.195974  
    1543A      2.199400  1544A      2.200808  1545A      2.201192  
    1546A      2.201898  1547A      2.203069  1548A      2.204340  
    1549A      2.205295  1550A      2.211034  1551A      2.211267  
    1552A      2.211769  1553A      2.215235  1554A      2.219805  
    1555A      2.220208  1556A      2.220692  1557A      2.222949  
    1558A      2.224842  1559A      2.226302  1560A      2.226672  
    1561A      2.228990  1562A      2.230439  1563A      2.232126  
    1564A      2.233118  1565A      2.235993  1566A      2.239568  
    1567A      2.240220  1568A      2.240672  1569A      2.244216  
    1570A      2.248354  1571A      2.248715  1572A      2.255159  
    1573A      2.256580  1574A      2.263644  1575A      2.267216  
    1576A      2.267953  1577A      2.271601  1578A      2.272871  
    1579A      2.273125  1580A      2.281469  1581A      2.283522  
    1582A      2.284370  1583A      2.293069  1584A      2.294426  
    1585A      2.297017  1586A      2.297645  1587A      2.304701  
    1588A      2.305093  1589A      2.310769  1590A      2.324583  
    1591A      2.325344  1592A      2.326126  1593A      2.328183  
    1594A      2.330168  1595A      2.330675  1596A      2.331158  
    1597A      2.333261  1598A      2.333990  1599A      2.335375  
    1600A      2.338047  1601A      2.341322  1602A      2.342307  
    1603A      2.342528  1604A      2.343577  1605A      2.345483  
    1606A      2.346077  1607A      2.346307  1608A      2.349257  
    1609A      2.349766  1610A      2.370279  1611A      2.374832  
    1612A      2.377128  1613A      2.385196  1614A      2.388285  
    1615A      2.393123  1616A      2.397507  1617A      2.402836  
    1618A      2.404418  1619A      2.418928  1620A      2.420322  
    1621A      2.424890  1622A      2.428099  1623A      2.433009  
    1624A      2.442959  1625A      2.444409  1626A      2.453251  
    1627A      2.454880  1628A      2.464997  1629A      2.465104  
    1630A      2.468413  1631A      2.468640  1632A      2.472020  
    1633A      2.472313  1634A      2.491254  1635A      2.491670  
    1636A      2.497234  1637A      2.502334  1638A      2.507520  
    1639A      2.508626  1640A      2.511959  1641A      2.516699  
    1642A      2.539935  1643A      2.540382  1644A      2.540512  
    1645A      2.543200  1646A      2.544065  1647A      2.546290  
    1648A      2.547995  1649A      2.549411  1650A      2.550276  
    1651A      2.553190  1652A      2.556796  1653A      2.556948  
    1654A      2.564385  1655A      2.571548  1656A      2.571901  
    1657A      2.581393  1658A      2.584783  1659A      2.585206  
    1660A      2.585753  1661A      2.587105  1662A      2.589201  
    1663A      2.589302  1664A      2.593300  1665A      2.593803  
    1666A      2.602014  1667A      2.602369  1668A      2.613380  
    1669A      2.614010  1670A      2.614678  1671A      2.615044  
    1672A      2.617959  1673A      2.619533  1674A      2.632920  
    1675A      2.641642  1676A      2.642480  1677A      2.645792  
    1678A      2.646396  1679A      2.649102  1680A      2.649941  
    1681A      2.650555  1682A      2.654077  1683A      2.656590  
    1684A      2.657018  1685A      2.666247  1686A      2.667049  
    1687A      2.668072  1688A      2.671066  1689A      2.671425  
    1690A      2.674239  1691A      2.679619  1692A      2.679659  
    1693A      2.685867  1694A      2.687944  1695A      2.688297  
    1696A      2.691523  1697A      2.691961  1698A      2.693322  
    1699A      2.694646  1700A      2.696545  1701A      2.697835  
    1702A      2.705973  1703A      2.723727  1704A      2.730298  
    1705A      2.730979  1706A      2.731646  1707A      2.731767  
    1708A      2.732244  1709A      2.755454  1710A      2.762367  
    1711A      2.762811  1712A      2.775838  1713A      2.776596  
    1714A      2.782065  1715A      2.782104  1716A      2.799713  
    1717A      2.800063  1718A      2.802293  1719A      2.802397  
    1720A      2.803929  1721A      2.810931  1722A      2.811840  
    1723A      2.815050  1724A      2.817040  1725A      2.818134  
    1726A      2.818390  1727A      2.829549  1728A      2.829857  
    1729A      2.840464  1730A      2.842658  1731A      2.842840  
    1732A      2.844056  1733A      2.846395  1734A      2.856740  
    1735A      2.864781  1736A      2.864921  1737A      2.870421  
    1738A      2.871453  1739A      2.871658  1740A      2.875631  
    1741A      2.894250  1742A      2.895571  1743A      2.896149  
    1744A      2.897060  1745A      2.918081  1746A      2.918252  
    1747A      2.920591  1748A      2.927738  1749A      2.930859  
    1750A      2.936520  1751A      2.936574  1752A      2.964220  
    1753A      2.966872  1754A      2.967476  1755A      2.976509  
    1756A      2.993246  1757A      2.993978  1758A      3.030743  
    1759A      3.031252  1760A      3.036942  1761A      3.039714  
    1762A      3.048587  1763A      3.049116  1764A      3.049331  
    1765A      3.058070  1766A      3.058096  1767A      3.066193  
    1768A      3.073201  1769A      3.110084  1770A      3.113522  
    1771A      3.113768  1772A      3.123588  1773A      3.129372  
    1774A      3.129594  1775A      3.135938  1776A      3.137378  
    1777A      3.142644  1778A      3.143399  1779A      3.150166  
    1780A      3.150498  1781A      3.152473  1782A      3.152787  
    1783A      3.154423  1784A      3.162200  1785A      3.168250  
    1786A      3.173306  1787A      3.176566  1788A      3.176867  
    1789A      3.193800  1790A      3.194412  1791A      3.220441  
    1792A      3.255165  1793A      3.260880  1794A      3.262241  
    1795A      3.262869  1796A      3.263125  1797A      3.265287  
    1798A      3.270171  1799A      3.272964  1800A      3.275618  
    1801A      3.276159  1802A      3.298234  1803A      3.298649  
    1804A      3.303889  1805A      3.310839  1806A      3.362765  
    1807A      3.363542  1808A      3.381374  1809A      3.418012  
    1810A      3.433830  1811A      3.436795  1812A      3.446023  
    1813A      3.454677  1814A      3.459368  1815A      3.465941  
    1816A      3.469241  1817A      3.474293  1818A      3.476904  
    1819A      3.480794  1820A      3.488553  1821A      3.489693  
    1822A      3.509536  1823A      3.517919  1824A      3.549692  
    1825A      3.576666  1826A      3.578128  1827A      3.585967  
    1828A      3.590781  1829A      3.644107  1830A      3.649963  
    1831A      3.669156  1832A      3.670856  1833A      3.706860  
    1834A      3.750234  1835A      3.755136  1836A      3.756795  
    1837A      3.766553  1838A      3.778692  1839A      3.786671  
    1840A      3.843522  1841A      3.846086  1842A      3.872550  
    1843A      3.875798  1844A      3.915966  1845A      3.920283  
    1846A      3.946916  1847A      3.948453  1848A      3.949714  
    1849A      3.951214  1850A      3.968652  1851A      3.971498  
    1852A      3.977272  1853A      4.024843  1854A      4.027656  
    1855A      4.080802  1856A      4.241622  1857A      4.314121  
    1858A      4.369113  1859A      4.400473  1860A      4.447406  
    1861A      4.470085  1862A      4.482654  1863A      5.760797  
    1864A      5.760949  1865A      5.761446  1866A      5.767663  
    1867A      5.767812  1868A      5.769285  1869A      5.771227  
    1870A      5.771765  1871A      5.813209  1872A      5.815171  
    1873A      5.823824  1874A      6.027289  1875A      6.027627  
    1876A      6.030504  1877A      6.206667  1878A      6.332817  
    1879A      6.333128  1880A      6.390739  1881A      6.391059  
    1882A      6.398276  1883A      7.296953  1884A      7.298238  
    1885A      7.319618  1886A      7.331588  1887A      7.348833  
    1888A      7.374401  1889A      7.376158  1890A      7.471115  
    1891A      7.563457  1892A      7.640808  1893A      7.642035  
    1894A      7.809458  1895A     12.704550  1896A     42.940022  
    1897A     42.962118  1898A     42.962227  1899A     42.969351  

    Final Occupation by Irrep:
              A 
    DOCC [   300 ]
    NA   [   300 ]
    NB   [   300 ]

  @DF-RHF Final Energy: -3650.34014853470580

   => Energetics <=

    Nuclear Repulsion Energy =          15611.4211649754324753
    One-Electron Energy =              -36072.1488290030029020
    Two-Electron Energy =               16810.3875154928646225
    Total Energy =                      -3650.3401485347058042

Computation Completed


Properties will be evaluated at   0.000000,   0.000000,   0.000000 [a0]

Properties computed using the SCF density matrix


 Multipole Moments:

 ------------------------------------------------------------------------------------
     Multipole            Electronic (a.u.)      Nuclear  (a.u.)        Total (a.u.)
 ------------------------------------------------------------------------------------

 L = 1.  Multiply by 2.5417464519 to convert [e a0] to [Debye]
 Dipole X            :         -0.0001810            0.0002304            0.0000494
 Dipole Y            :          0.0012838           -0.0013052           -0.0000214
 Dipole Z            :        296.7549387         -296.7555459           -0.0006072
 Magnitude           :                                                    0.0006096

 ------------------------------------------------------------------------------------

*** tstop() called on n2cn0368 at Sat Jan 27 17:16:35 2024
Module time:
	user time   =   16692.69 seconds =     278.21 minutes
	system time =     866.02 seconds =      14.43 minutes
	total time  =       6195 seconds =     103.25 minutes
Total time:
	user time   =   45383.99 seconds =     756.40 minutes
	system time =    2267.42 seconds =      37.79 minutes
	total time  =      23752 seconds =     395.87 minutes
  Constructing Basis Sets for SAPT...

   => Loading Basis Set <=

    Name: (JUN-CC-PVDZ AUX)
    Role: RIFIT
    Keyword: DF_BASIS_SAPT
    atoms 1                                                   entry B          line    56 file /opt/software/pc2/EB-SW/software/PSI4/1.9-foss-2022a/share/psi4/basis/jun-cc-pvdz-ri.gbs 
    atoms 2-5                                                 entry F          line   232 file /opt/software/pc2/EB-SW/software/PSI4/1.9-foss-2022a/share/psi4/basis/jun-cc-pvdz-ri.gbs 
    atoms 6-23, 30-42, 45-59, 62-78, 81-93, 98-108, 111-119   entry C          line   100 file /opt/software/pc2/EB-SW/software/PSI4/1.9-foss-2022a/share/psi4/basis/jun-cc-pvdz-ri.gbs 
    atoms 24-29, 43-44, 60-61, 79-80, 94-97, 109-110, 120-125 entry H          line    30 file /opt/software/pc2/EB-SW/software/PSI4/1.9-foss-2022a/share/psi4/basis/jun-cc-pvdz-ri.gbs 

   => Loading Basis Set <=

    Name: (JUN-CC-PVDZ AUX)
    Role: JKFIT
    Keyword: DF_BASIS_ELST
    atoms 1                                                   entry B          line    90 file /opt/software/pc2/EB-SW/software/PSI4/1.9-foss-2022a/share/psi4/basis/jun-cc-pvdz-jkfit.gbs 
    atoms 2-5                                                 entry F          line   314 file /opt/software/pc2/EB-SW/software/PSI4/1.9-foss-2022a/share/psi4/basis/jun-cc-pvdz-jkfit.gbs 
    atoms 6-23, 30-42, 45-59, 62-78, 81-93, 98-108, 111-119   entry C          line   146 file /opt/software/pc2/EB-SW/software/PSI4/1.9-foss-2022a/share/psi4/basis/jun-cc-pvdz-jkfit.gbs 
    atoms 24-29, 43-44, 60-61, 79-80, 94-97, 109-110, 120-125 entry H          line    70 file /opt/software/pc2/EB-SW/software/PSI4/1.9-foss-2022a/share/psi4/basis/jun-cc-pvdz-jkfit.gbs 


  //>>>>>>>>>>>>>>>>>>>>>>>>>>>>>>>>>>>//
  //               SSAPT0              //
  //<<<<<<<<<<<<<<<<<<<<<<<<<<<<<<<<<<<//


*** tstart() called on n2cn0368
*** at Sat Jan 27 17:16:36 2024

        SAPT0  
    Ed Hohenstein
     6 June 2009

      Orbital Information
  --------------------------
    NSO        =      1938
    NMO        =      1899
    NRI        =      6901
    NRI (Elst) =      8531
    NOCC A     =        21
    NOCC B     =       300
    FOCC A     =         5
    FOCC B     =        96
    NVIR A     =      1878
    NVIR B     =      1599

    Elst10,r            =     0.010966484831 [Eh]
    Exch10              =     0.004490046025 [Eh]
    Exch10 (S^2)        =     0.004489005792 [Eh]

    Iter     Energy [mEh]          dE [mEh]         Residual      Time [s]
       1      -0.35859409       0.358594090       2.596258669           505
       2      -0.44102578       0.082431692       0.787704912           917
       3      -0.44415401       0.003128225       0.148527939          1262
       4      -0.44313002      -0.001023987       0.036996842          1696
       5      -0.44316939       0.000039373       0.013553027          2193
       6      -0.44320572       0.000036330       0.002796221          2678
       7      -0.44320616       0.000000438       0.000559861          3183
       8      -0.44320462      -0.000001541       0.000110947          3870
       9      -0.44320475       0.000000125       0.000026970          4383
      10      -0.44320478       0.000000031       0.000003705          4966
      11      -0.44320477      -0.000000008       0.000000707          5389

    CHF Iterations converged


    Iter     Energy [mEh]          dE [mEh]         Residual      Time [s]
       1     -25.79236539      25.792365386      87.448292134           757
       2     -16.57462268      -9.217742708      10.549710467          1353
       3     -16.47423758      -0.100385097       3.378322956          1896
       4     -16.74269598       0.268458397       1.196217810          2616
       5     -16.78769702       0.045001043       0.421891814          3197
       6     -16.77784497      -0.009852052       0.273825148          3856
       7     -16.76958875      -0.008256225       0.111007577          4490
       8     -16.77082940       0.001240651       0.051166123          5105
       9     -16.77261813       0.001788737       0.029106586          5661
      10     -16.77227350      -0.000344632       0.027874075          6528
      11     -16.77180161      -0.000471888       0.012404632          7356
      12     -16.77186880       0.000067189       0.005926747          7954
      13     -16.77195306       0.000084261       0.002131452          8549
      14     -16.77196597       0.000012912       0.000817203          9235
      15     -16.77195866      -0.000007319       0.000498761          9882
      16     -16.77194885      -0.000009801       0.000296909         10538
      17     -16.77195375       0.000004896       0.000149498         11139
      18     -16.77195548       0.000001734       0.000049667         11711
      19     -16.77195507      -0.000000418       0.000024506         12527
      20     -16.77195458      -0.000000487       0.000010362         13916
      21     -16.77195467       0.000000090       0.000005613         15369
      22     -16.77195474       0.000000074       0.000002637         16455
      23     -16.77195473      -0.000000017       0.000001237         17525
      24     -16.77195471      -0.000000016       0.000000678         18694

    CHF Iterations converged

    Ind20,r (A<-B)      =    -0.000443204768 [Eh]
    Ind20,r (B<-A)      =    -0.016771954712 [Eh]
    Ind20,r             =    -0.017215159480 [Eh]
    Exch-Ind20,r (A<-B) =     0.000401856404 [Eh]
    Exch-Ind20,r (B<-A) =     0.000802757026 [Eh]
    Exch-Ind20,r        =     0.001204613429 [Eh]
    Disp20              =    -0.009081945328 [Eh]
    Disp20 (SS)         =    -0.004540972664 [Eh]
    Disp20 (OS)         =    -0.004540972664 [Eh]
    Exch-Disp20         =     0.000738675327 [Eh]
    Exch-Disp20 (SS)    =     0.000449973694 [Eh]
    Exch-Disp20 (OS)    =     0.000288701634 [Eh]

    SAPT Results 
  --------------------------------------------------------------------------------------------------------
    Electrostatics                 10.96648483 [mEh]       6.88157313 [kcal/mol]      28.79250196 [kJ/mol]
      Elst10,r                     10.96648483 [mEh]       6.88157313 [kcal/mol]      28.79250196 [kJ/mol]

    Exchange                        4.49004603 [mEh]       2.81754642 [kcal/mol]      11.78861421 [kJ/mol]
      Exch10                        4.49004603 [mEh]       2.81754642 [kcal/mol]      11.78861421 [kJ/mol]
      Exch10(S^2)                   4.48900579 [mEh]       2.81689366 [kcal/mol]      11.78588308 [kJ/mol]

    Induction                     -16.33579778 [mEh]     -10.25086787 [kcal/mol]     -42.88963117 [kJ/mol]
      Ind20,r                     -17.21515948 [mEh]     -10.80267567 [kcal/mol]     -45.19839499 [kJ/mol]
      Exch-Ind20,r                  1.20461343 [mEh]       0.75590634 [kcal/mol]       3.16271212 [kJ/mol]
      delta HF,r (2)               -0.32525173 [mEh]      -0.20409854 [kcal/mol]      -0.85394831 [kJ/mol]

    Dispersion                     -8.34327000 [mEh]      -5.23548097 [kcal/mol]     -21.90525237 [kJ/mol]
      Disp20                       -9.08194533 [mEh]      -5.69900673 [kcal/mol]     -23.84464417 [kJ/mol]
      Exch-Disp20                   0.73867533 [mEh]       0.46352577 [kcal/mol]       1.93939180 [kJ/mol]
      Disp20 (SS)                  -4.54097266 [mEh]      -2.84950337 [kcal/mol]     -11.92232209 [kJ/mol]
      Disp20 (OS)                  -4.54097266 [mEh]      -2.84950337 [kcal/mol]     -11.92232209 [kJ/mol]
      Exch-Disp20 (SS)              0.44997369 [mEh]       0.28236276 [kcal/mol]       1.18140577 [kJ/mol]
      Exch-Disp20 (OS)              0.28870163 [mEh]       0.18116301 [kcal/mol]       0.75798604 [kJ/mol]

  Total HF                         -0.87926693 [mEh]      -0.55174833 [kcal/mol]      -2.30851500 [kJ/mol]
  Total SAPT0                      -9.22253693 [mEh]      -5.78722930 [kcal/mol]     -24.21376737 [kJ/mol]

  Special recipe for scaled SAPT0 (see Manual):
    Electrostatics sSAPT0          10.96648483 [mEh]       6.88157313 [kcal/mol]      28.79250196 [kJ/mol]
    Exchange sSAPT0                 4.49004603 [mEh]       2.81754642 [kcal/mol]      11.78861421 [kJ/mol]
    Induction sSAPT0              -16.33496016 [mEh]     -10.25034225 [kcal/mol]     -42.88743199 [kJ/mol]
    Dispersion sSAPT0              -8.34275636 [mEh]      -5.23515866 [kcal/mol]     -21.90390382 [kJ/mol]
  Total sSAPT0                     -9.22118567 [mEh]      -5.78638137 [kcal/mol]     -24.21021963 [kJ/mol]
  --------------------------------------------------------------------------------------------------------

*** tstop() called on n2cn0368 at Mon Jan 29 11:25:40 2024
Module time:
	user time   =   65246.32 seconds =    1087.44 minutes
	system time =    2874.01 seconds =      47.90 minutes
	total time  =     151744 seconds =    2529.07 minutes
Total time:
	user time   =  110631.72 seconds =    1843.86 minutes
	system time =    5141.44 seconds =      85.69 minutes
	total time  =     175497 seconds =    2924.95 minutes

    Psi4 stopped on: Monday, 29 January 2024 11:25AM
    Psi4 wall time for execution: 2 days, 0:44:59.67

*** Psi4 exiting successfully. Buy a developer a beer!
