
    -----------------------------------------------------------------------
          Psi4: An Open-Source Ab Initio Electronic Structure Package
                               Psi4 1.9 release

                         Git: Rev {} zzzzzzz 


    D. G. A. Smith, L. A. Burns, A. C. Simmonett, R. M. Parrish,
    M. C. Schieber, R. Galvelis, P. Kraus, H. Kruse, R. Di Remigio,
    A. Alenaizan, A. M. James, S. Lehtola, J. P. Misiewicz, M. Scheurer,
    R. A. Shaw, J. B. Schriber, Y. Xie, Z. L. Glick, D. A. Sirianni,
    J. S. O'Brien, J. M. Waldrop, A. Kumar, E. G. Hohenstein,
    B. P. Pritchard, B. R. Brooks, H. F. Schaefer III, A. Yu. Sokolov,
    K. Patkowski, A. E. DePrince III, U. Bozkaya, R. A. King,
    F. A. Evangelista, J. M. Turney, T. D. Crawford, C. D. Sherrill,
    J. Chem. Phys. 152(18) 184108 (2020). https://doi.org/10.1063/5.0006002

                            Additional Code Authors
    E. T. Seidl, C. L. Janssen, E. F. Valeev, M. L. Leininger,
    J. F. Gonthier, R. M. Richard, H. R. McAlexander, M. Saitow, X. Wang,
    P. Verma, M. H. Lechner, A. Jiang, S. Behnle, A. G. Heide,
    M. F. Herbst, and D. L. Poole

             Previous Authors, Complete List of Code Contributors,
                       and Citations for Specific Modules
    https://github.com/psi4/psi4/blob/master/codemeta.json
    https://github.com/psi4/psi4/graphs/contributors
    http://psicode.org/psi4manual/master/introduction.html#citing-psifour

    -----------------------------------------------------------------------


    Psi4 started on: Friday, 26 January 2024 11:20PM

    Process ID: 55004
    Host:       n2cn0668
    PSIDATADIR: /opt/software/pc2/EB-SW/software/PSI4/1.9-foss-2022a/share/psi4
    Memory:     500.0 MiB
    Threads:    16
    
  ==> Input File <==

--------------------------------------------------------------------------
memory 64 GB # how much memory is available ! Depends on the nodes/cores !

molecule dimer {
# monomer A
+1 1    # Charge and multiplicity
C  0.680067 -1.215929 5.808042
C -0.680504 -1.215545 5.806014
N -1.085635  0.102779 5.805016
C  0.000108  0.884180 5.801740
C -2.477365  0.570758 5.755610
N  1.085222  0.102779 5.805016
H  1.385146 -2.033368 5.815870
H -1.385302 -2.033214 5.806204
H -0.000009  1.965269 5.799993
C  2.478117  0.567877 5.821908
H  2.490592  1.658130 5.794563
H  2.967028  0.220701 6.735354
H  3.001428  0.176405 4.946425
H -2.857359  0.490799 4.733539
H -3.082679 -0.042306 6.425694
H -2.518128  1.610706 6.082594
--
# monomer B
0 1     # Charge and multiplicity
C   -3.66844126402057      7.80375217008252      0.00190004133558
C   -4.84759871934653      7.13124183134024     -0.00046653359696
C   -4.89495929917518      5.69633040353158     -0.00103944469517
C   -3.65374067877320      4.98073034095895      0.00662099703436
C   -2.40942512149445      7.11398103667468      0.00209438359570
C   -2.42547734410473      5.68112195090346     -0.00491050527438
C   -1.19474401643570      7.78614419430947      0.00356656413763
C   0.03795902893699      7.09942164575698      0.00139585983271
C   0.03033258741920      5.66948955970466     -0.00408752508301
C   -1.20098450790502      4.96927034791531      0.00488220885047
C   1.27795782581485      7.77285944319479      0.00277170839332
C   2.48535808472416      7.08769688523756      0.00049722048857
C   2.48612868491717      5.65477081024076     -0.00644052849921
C   1.25408291964399      4.95607811366431      0.00518741308898
C   3.75171459140595      7.76391215098033      0.00062407186893
C   4.92356605618520      7.07878077698995     -0.00143240883900
C   4.95560727132542      5.64344746336949     -0.00159282164606
C   3.70680153420475      4.94121020833308      0.00349873852374
H   -3.65852113775815      8.89082741913536      0.00358502958574
H   -1.18921332975660      8.87412108735996      0.00753844057883
H   1.28429423888630      8.86083343548850      0.00693053253426
H   3.75354208679975      8.85103527897216      0.00214659618464
H   5.86995870320703      7.61379483465560     -0.00235777588134
H   -5.78823170750226      7.67630221293400     -0.00202638095293
C   -6.09197395869619      4.99326001364347     -0.00291168518608
C   -6.12866148031747      3.58258016879823     -0.00171050815740
C   -3.66457974004527      3.56418217974434     -0.00463560277484
C   -4.89429820469869      2.86108077590057      0.00453338221034
C   -2.43733499489796      2.84761165708481      0.00719617576166
C   -1.20922785759670      3.54788693497833     -0.00648285103018
C   1.24714157216223      3.53468075142962     -0.00729145743546
C   0.01517603956900      2.83311183930540      0.00439272578912
C   2.46764517244071      2.82128997725533      0.00449278391269
C   3.70254947457969      3.52466015442405     -0.00899517692985
C   6.14498038638375      4.92757236613191     -0.00282626685777
C   6.16658835886151      3.51658447594213     -0.00065971342101
C   4.92460995845939      2.80840792535402      0.00587903281610
H   7.08990550964105      5.46688776622306     -0.00658814770723
H   -7.03104175110130      5.54268795285765     -0.00714490013730
C   -7.33969804112295      2.85841153457957     -0.00333767559888
C   -7.36488195805880      1.47032337158330     -0.00157213747140
C   -4.90350460894690      1.44442681216000     -0.00628840166334
C   -6.13225715261081      0.73993935705394      0.00600164231964
C   -3.67687480051673      0.72669714267312      0.00433931473643
C   -2.44565658606518      1.42964113326212     -0.00597039546461
C   -1.22360068130162      0.71532450163492      0.00545886906656
C   0.00763786931376      1.41738314923765      0.00392452278437
C   1.23121980774686      0.70211669058719     -0.01490206287210
C   2.46082110053113      1.40329203612573      0.00460244601878
C   3.68443025419614      0.68719842821222      0.00377365974158
C   4.91870890153864      1.39173456118907     -0.00862816189375
C   7.36980207796101      2.77948220318441     -0.00242013321349
C   7.38016266612146      1.39121750785509     -0.00087345036788
C   6.13979953912259      0.67411862320065      0.00545489144369
H   -8.27919079934664      3.40711804112415     -0.00763522772059
H   8.31511347147953      3.31811809662368     -0.00663070901292
C   -8.59175593758115      0.72483255304480     -0.00123170985383
C   -8.59902460370342     -0.63263980622873      0.00089141472904
C   -6.13981313911873     -0.67413663715361     -0.00609792660607
C   -7.38018411213749     -1.39126618958160      0.00131813493501
C   -4.91868448025621     -1.39175501803000      0.00624257154343
C   -3.68443829568458     -0.68723731573599     -0.00478966852105
C   -2.46081704024768     -1.40334517882457      0.00575341766833
C   -1.23116201232071     -0.70217386488055     -0.00636696112346
C   -0.00756962538737     -1.41741884941102      0.00108956317991
C   1.22364771588843     -0.71527537726392      0.01109518512883
C   2.44567064933149     -1.42964328900682     -0.00065482763106
C   3.67686670284649     -0.72670743155550     -0.00479541202602
C   6.13224884641929     -0.73997883984993     -0.00632338623858
C   4.90351914550401     -1.44445752054090      0.00751768830159
C   8.59901484869081      0.63260386666793     -0.00101133422380
C   8.59174548810050     -0.72485086719319      0.00072504603735
C   7.36486276438985     -1.47033266560598      0.00049486934466
H   -9.52830597181814      1.27684744919284     -0.00270163681798
H   9.54141097460619      1.17457248844457     -0.00206336648518
C   -7.36983790976868     -2.77954514593389      0.00312634335708
C   -4.92459910905015     -2.80843725734101     -0.00460528907921
C   -6.16662249566744     -3.51665219282533      0.00169655107992
C   -3.70251035970491     -3.52468154912026      0.00571878010666
C   -2.46764698511392     -2.82132596280400     -0.00632585824990
C   -0.01513347410770     -2.83314164539971     -0.00604426974092
C   -1.24712184122656     -3.53473217556300      0.00551968366725
C   1.20924506964357     -3.54791467864352      0.00805871345849
C   2.43733602215464     -2.84764173817541     -0.00608104485234
C   4.89430234377080     -2.86112296828604     -0.00526030478103
C   3.66461525504104     -3.56421984553201      0.00761911515957
C   6.12863901474565     -3.58258405771778      0.00096495711699
C   7.33967266469532     -2.85841330737039      0.00248018319869
H   -9.54144911125902     -1.17456346666430      0.00226083090216
H   9.52826186807155     -1.27691907390448      0.00197485379837
H   -8.31516504384864     -3.31814985321231      0.00729857188773
H   8.27915514249207     -3.40714078989363      0.00681973918158
C   -6.14499418870218     -4.92764727278338      0.00302254913999
C   -3.70678334799751     -4.94126171411716     -0.00679841894792
C   -4.95559005800169     -5.64349397349412      0.00116871569699
C   -2.48612132622665     -5.65478557440947      0.00614125209662
C   -1.25405833548005     -4.95612205000132     -0.00503435388927
C   1.20101257386816     -4.96928038819302     -0.00385322963129
C   -0.03033667441341     -5.66952030313900      0.00398997003238
C   3.65375010132847     -4.98074377541453     -0.00309522988330
C   2.42549269587528     -5.68117463552727      0.00628170066869
C   6.09196561781097     -4.99325796338655      0.00325918379042
C   4.89497644461045     -5.69634842095790      0.00202298796027
H   -7.08989238804069     -5.46699984223871      0.00742531082125
H   7.03105520920009     -5.54265853633254      0.00683896355417
C   -4.92354532219813     -7.07882109967734      0.00061394679214
C   -2.48534208823777     -7.08772807792913     -0.00189594564379
C   -3.75168589177895     -7.76394715763627     -0.00170126671874
C   -0.03794895698805     -7.09946487446944     -0.00168022049625
C   -1.27795610040136     -7.77290438466689     -0.00366491325785
C   2.40944432072629     -7.11402201200282     -0.00081701968533
C   1.19474993715296     -7.78618536556242     -0.00296931056689
C   4.84762105249800     -7.13126211057943      0.00168979497423
C   3.66847160587561     -7.80378799294376     -0.00065863938960
H   -5.86994035041618     -7.61383059804164      0.00215798365757
H   5.78824962538815     -7.67633218931421      0.00281691445618
H   -3.75352693944918     -8.85107156923607     -0.00353718114765
H   -1.28430440589466     -8.86087539249706     -0.00809229711623
H   1.18922157469537     -8.87416062058945     -0.00706194725726
H   3.65854661482387     -8.89086063405326     -0.00231318081200

    units angstrom      # Angstroms are the default
    no_reorient         # Geometry fixed, default
    symmetry c1         # C1 symmetry, default
}

set {
    scf_type DF         # Density fitting, faster than exact integrals
    freeze_core True    # Freeze core electrons
    basis jun-cc-pVDZ   # Jun-cc-pVDZ basis set, recommended for sSAPT0 in https://doi.org/10.1063/1.4867135
}

energy('ssapt0')        # Compute sSAPT0 energy, includes also SAPT0
--------------------------------------------------------------------------

  Memory set to  59.605 GiB by Python driver.

Scratch directory: /tmp/
   => Loading Basis Set <=

    Name: JUN-CC-PVDZ
    Role: ORBITAL
    Keyword: BASIS
    atoms 1-2, 4-5, 10, 17-34, 41-53, 56-70, 73-89, 92-104, 109-119, 122-130 entry C          line   164 file /opt/software/pc2/EB-SW/software/PSI4/1.9-foss-2022a/share/psi4/basis/jun-cc-pvdz.gbs 
    atoms 3, 6                                                               entry N          line   198 file /opt/software/pc2/EB-SW/software/PSI4/1.9-foss-2022a/share/psi4/basis/jun-cc-pvdz.gbs 
    atoms 7-9, 11-16, 35-40, 54-55, 71-72, 90-91, 105-108, 120-121, 131-136  entry H          line    36 file /opt/software/pc2/EB-SW/software/PSI4/1.9-foss-2022a/share/psi4/basis/jun-cc-pvdz.gbs 

   => Loading Basis Set <=

    Name: JUN-CC-PVDZ
    Role: ORBITAL
    Keyword: BASIS
    atoms 1-2, 4-5, 10, 17-34, 41-53, 56-70, 73-89, 92-104, 109-119, 122-130 entry C          line   164 file /opt/software/pc2/EB-SW/software/PSI4/1.9-foss-2022a/share/psi4/basis/jun-cc-pvdz.gbs 
    atoms 3, 6                                                               entry N          line   198 file /opt/software/pc2/EB-SW/software/PSI4/1.9-foss-2022a/share/psi4/basis/jun-cc-pvdz.gbs 
    atoms 7-9, 11-16, 35-40, 54-55, 71-72, 90-91, 105-108, 120-121, 131-136  entry H          line    36 file /opt/software/pc2/EB-SW/software/PSI4/1.9-foss-2022a/share/psi4/basis/jun-cc-pvdz.gbs 


  //>>>>>>>>>>>>>>>>>>>>>>>>>>>>>>>>>>>//
  //              Dimer HF             //
  //<<<<<<<<<<<<<<<<<<<<<<<<<<<<<<<<<<<//

   => Libint2 <=

    Primary   basis highest AM E, G, H:  5, 4, 3
    Auxiliary basis highest AM E, G, H:  6, 5, 4
    Onebody   basis highest AM E, G, H:  6, 5, 4
    Solid Harmonics ordering:            gaussian

*** tstart() called on n2cn0668
*** at Fri Jan 26 23:20:41 2024

   => Loading Basis Set <=

    Name: JUN-CC-PVDZ
    Role: ORBITAL
    Keyword: BASIS
    atoms 1-2, 4-5, 10, 17-34, 41-53, 56-70, 73-89, 92-104, 109-119, 122-130 entry C          line   164 file /opt/software/pc2/EB-SW/software/PSI4/1.9-foss-2022a/share/psi4/basis/jun-cc-pvdz.gbs 
    atoms 3, 6                                                               entry N          line   198 file /opt/software/pc2/EB-SW/software/PSI4/1.9-foss-2022a/share/psi4/basis/jun-cc-pvdz.gbs 
    atoms 7-9, 11-16, 35-40, 54-55, 71-72, 90-91, 105-108, 120-121, 131-136  entry H          line    36 file /opt/software/pc2/EB-SW/software/PSI4/1.9-foss-2022a/share/psi4/basis/jun-cc-pvdz.gbs 


         ---------------------------------------------------------
                                   SCF
               by Justin Turney, Rob Parrish, Andy Simmonett
                          and Daniel G. A. Smith
                              RHF Reference
                       16 Threads,  61035 MiB Core
         ---------------------------------------------------------

  ==> Geometry <==

    Molecular point group: c1
    Full point group: C1

    Geometry (in Angstrom), charge = 1, multiplicity = 1:

       Center              X                  Y                   Z               Mass       
    ------------   -----------------  -----------------  -----------------  -----------------
         C            0.680062820275    -1.215917226251     5.365833690558    12.000000000000
         C           -0.680508179725    -1.215533226251     5.363805690558    12.000000000000
         N           -1.085639179725     0.102790773749     5.362807690558    14.003074004430
         C            0.000103820275     0.884191773749     5.359531690558    12.000000000000
         C           -2.477369179725     0.570769773749     5.313401690558    12.000000000000
         N            1.085217820275     0.102790773749     5.362807690558    14.003074004430
         H            1.385141820275    -2.033356226251     5.373661690558     1.007825032230
         H           -1.385306179725    -2.033202226251     5.363995690558     1.007825032230
         H           -0.000013179725     1.965280773749     5.357784690558     1.007825032230
         C            2.478112820275     0.567888773749     5.379699690558    12.000000000000
         H            2.490587820275     1.658141773750     5.352354690558     1.007825032230
         H            2.967023820275     0.220712773749     6.293145690558     1.007825032230
         H            3.001423820275     0.176416773749     4.504216690558     1.007825032230
         H           -2.857363179725     0.490810773749     4.291330690558     1.007825032230
         H           -3.082683179725    -0.042294226251     5.983485690558     1.007825032230
         H           -2.518132179725     1.610717773749     5.640385690558     1.007825032230
         C           -3.668445443746     7.803763943832    -0.440308268106    12.000000000000
         C           -4.847602899072     7.131253605090    -0.442674843039    12.000000000000
         C           -4.894963478901     5.696342177281    -0.443247754137    12.000000000000
         C           -3.653744858499     4.980742114708    -0.435587312407    12.000000000000
         C           -2.409429301220     7.113992810424    -0.440113925846    12.000000000000
         C           -2.425481523830     5.681133724653    -0.447118814716    12.000000000000
         C           -1.194748196161     7.786155968059    -0.438641745304    12.000000000000
         C            0.037954849212     7.099433419506    -0.440812449609    12.000000000000
         C            0.030328407694     5.669501333454    -0.446295834525    12.000000000000
         C           -1.200988687630     4.969282121665    -0.437326100591    12.000000000000
         C            1.277953646089     7.772871216944    -0.439436601048    12.000000000000
         C            2.485353904999     7.087708658987    -0.441711088953    12.000000000000
         C            2.486124505192     5.654782583990    -0.448648837941    12.000000000000
         C            1.254078739919     4.956089887414    -0.437020896353    12.000000000000
         C            3.751710411681     7.763923924730    -0.441584237573    12.000000000000
         C            4.923561876460     7.078792550739    -0.443640718281    12.000000000000
         C            4.955603091600     5.643459237119    -0.443801131088    12.000000000000
         C            3.706797354479     4.941221982083    -0.438709570918    12.000000000000
         H           -3.658525317484     8.890839192885    -0.438623279856     1.007825032230
         H           -1.189217509482     8.874132861109    -0.434669868863     1.007825032230
         H            1.284290059161     8.860845209238    -0.435277776907     1.007825032230
         H            3.753537907074     8.851047052722    -0.440061713257     1.007825032230
         H            5.869954523482     7.613806608405    -0.444566085323     1.007825032230
         H           -5.788235887228     7.676313986684    -0.444234690395     1.007825032230
         C           -6.091978138422     4.993271787393    -0.445119994628    12.000000000000
         C           -6.128665660043     3.582591942548    -0.443918817599    12.000000000000
         C           -3.664583919771     3.564193953494    -0.446843912217    12.000000000000
         C           -4.894302384424     2.861092549650    -0.437674927231    12.000000000000
         C           -2.437339174623     2.847623430834    -0.435012133680    12.000000000000
         C           -1.209232037322     3.547898708728    -0.448691160472    12.000000000000
         C            1.247137392437     3.534692525179    -0.449499766877    12.000000000000
         C            0.015171859844     2.833123613055    -0.437815583653    12.000000000000
         C            2.467640992715     2.821301751005    -0.437715525529    12.000000000000
         C            3.702545294854     3.524671928174    -0.451203486372    12.000000000000
         C            6.144976206658     4.927584139881    -0.445034576299    12.000000000000
         C            6.166584179136     3.516596249692    -0.442868022863    12.000000000000
         C            4.924605778734     2.808419699104    -0.436329276626    12.000000000000
         H            7.089901329916     5.466899539973    -0.448796457149     1.007825032230
         H           -7.031045930827     5.542699726607    -0.449353209579     1.007825032230
         C           -7.339702220848     2.858423308329    -0.445545985041    12.000000000000
         C           -7.364886137784     1.470335145333    -0.443780446913    12.000000000000
         C           -4.903508788672     1.444438585909    -0.448496711105    12.000000000000
         C           -6.132261332336     0.739951130803    -0.436206667122    12.000000000000
         C           -3.676878980242     0.726708916423    -0.437868994705    12.000000000000
         C           -2.445660765791     1.429652907012    -0.448178704906    12.000000000000
         C           -1.223604861027     0.715336275384    -0.436749440375    12.000000000000
         C            0.007633689588     1.417394922987    -0.438283786657    12.000000000000
         C            1.231215628021     0.702128464337    -0.457110372314    12.000000000000
         C            2.460816920806     1.403303809875    -0.437605863423    12.000000000000
         C            3.684426074471     0.687210201962    -0.438434649700    12.000000000000
         C            4.918704721813     1.391746334939    -0.450836471335    12.000000000000
         C            7.369797898236     2.779493976934    -0.444628442655    12.000000000000
         C            7.380158486396     1.391229281605    -0.443081759810    12.000000000000
         C            6.139795359397     0.674130396950    -0.436753417998    12.000000000000
         H           -8.279194979072     3.407129814874    -0.449843537162     1.007825032230
         H            8.315109291754     3.318129870373    -0.448839018455     1.007825032230
         C           -8.591760117307     0.724844326794    -0.443440019296    12.000000000000
         C           -8.599028783429    -0.632628032479    -0.441316894713    12.000000000000
         C           -6.139817318844    -0.674124863404    -0.448306236048    12.000000000000
         C           -7.380188291863    -1.391254415832    -0.440890174507    12.000000000000
         C           -4.918688659982    -1.391743244281    -0.435965737898    12.000000000000
         C           -3.684442475410    -0.687225541986    -0.446997977963    12.000000000000
         C           -2.460821219973    -1.403333405075    -0.436454891773    12.000000000000
         C           -1.231166192046    -0.702162091131    -0.448575270565    12.000000000000
         C           -0.007573805113    -1.417407075662    -0.441118746262    12.000000000000
         C            1.223643536163    -0.715263603514    -0.431113124313    12.000000000000
         C            2.445666469606    -1.429631515257    -0.442863137073    12.000000000000
         C            3.676862523121    -0.726695657806    -0.447003721468    12.000000000000
         C            6.132244666694    -0.739967066100    -0.448531695680    12.000000000000
         C            4.903514965779    -1.444445746791    -0.434690621140    12.000000000000
         C            8.599010668965     0.632615640417    -0.443219643665    12.000000000000
         C            8.591741308375    -0.724839093444    -0.441483263404    12.000000000000
         C            7.364858584664    -1.470320891856    -0.441713440097    12.000000000000
         H           -9.528310151544     1.276859222942    -0.444909946260     1.007825032230
         H            9.541406794881     1.174584262194    -0.444271675927     1.007825032230
         C           -7.369842089494    -2.779533372184    -0.439081966085    12.000000000000
         C           -4.924603288776    -2.808425483592    -0.446813598521    12.000000000000
         C           -6.166626675393    -3.516640419076    -0.440511758362    12.000000000000
         C           -3.702514539430    -3.524669775371    -0.436489529335    12.000000000000
         C           -2.467651164839    -2.821314189055    -0.448534167692    12.000000000000
         C           -0.015137653833    -2.833129871650    -0.448252579183    12.000000000000
         C           -1.247126020952    -3.534720401814    -0.436688625774    12.000000000000
         C            1.209240889918    -3.547902904894    -0.434149595983    12.000000000000
         C            2.437331842429    -2.847629964426    -0.448289354294    12.000000000000
         C            4.894298164045    -2.861111194537    -0.447468614223    12.000000000000
         C            3.664611075316    -3.564208071783    -0.434589194282    12.000000000000
         C            6.128634835020    -3.582572283968    -0.441243352325    12.000000000000
         C            7.339668484970    -2.858401533621    -0.439728126243    12.000000000000
         H           -9.541453290984    -1.174551692915    -0.439947478540     1.007825032230
         H            9.528257688346    -1.276907300155    -0.440233455643     1.007825032230
         H           -8.315169223574    -3.318138079463    -0.434909737554     1.007825032230
         H            8.279150962767    -3.407129016144    -0.435388570260     1.007825032230
         C           -6.144998368428    -4.927635499034    -0.439185760302    12.000000000000
         C           -3.706787527723    -4.941249940368    -0.449006728390    12.000000000000
         C           -4.955594237727    -5.643482199745    -0.441039593745    12.000000000000
         C           -2.486125505952    -5.654773800660    -0.436067057345    12.000000000000
         C           -1.254062515205    -4.956110276252    -0.447242663331    12.000000000000
         C            1.201008394143    -4.969268614444    -0.446061539073    12.000000000000
         C           -0.030340854139    -5.669508529390    -0.438218339409    12.000000000000
         C            3.653745921603    -4.980732001665    -0.445303539325    12.000000000000
         C            2.425488516150    -5.681162861778    -0.435926608773    12.000000000000
         C            6.091961438086    -4.993246189637    -0.438949125651    12.000000000000
         C            4.894972264885    -5.696336647208    -0.440185321481    12.000000000000
         H           -7.089896567766    -5.466988068489    -0.434782998620     1.007825032230
         H            7.031051029475    -5.542646762583    -0.435369345888     1.007825032230
         C           -4.923549501924    -7.078809325928    -0.441594362650    12.000000000000
         C           -2.485346267963    -7.087716304180    -0.444104255085    12.000000000000
         C           -3.751690071504    -7.763935383887    -0.443909576160    12.000000000000
         C           -0.037953136713    -7.099453100720    -0.443888529938    12.000000000000
         C           -1.277960280127    -7.772892610917    -0.445873222700    12.000000000000
         C            2.409440141001    -7.114010238253    -0.443025329127    12.000000000000
         C            1.194745757428    -7.786173591813    -0.445177620009    12.000000000000
         C            4.847616872773    -7.131250336830    -0.440518514467    12.000000000000
         C            3.668467426150    -7.803776219194    -0.442866948831    12.000000000000
         H           -5.869944530142    -7.613818824292    -0.440050325784     1.007825032230
         H            5.788245445663    -7.676320415565    -0.439391394985     1.007825032230
         H           -3.753531119175    -8.851059795487    -0.445745490589     1.007825032230
         H           -1.284308585620    -8.860863618748    -0.450300606558     1.007825032230
         H            1.189217394970    -8.874148846840    -0.449270256699     1.007825032230
         H            3.658542435098    -8.890848860304    -0.444521490254     1.007825032230

  Running in c1 symmetry.

  Rotational constants: A =      0.00062  B =      0.00062  C =      0.00035 [cm^-1]
  Rotational constants: A =     18.72376  B =     18.60751  C =     10.50436 [MHz]
  Nuclear repulsion = 17922.199318323942862

  Charge       = 1
  Multiplicity = 1
  Electrons    = 652
  Nalpha       = 326
  Nbeta        = 326

  ==> Algorithm <==

  SCF Algorithm Type is DF.
  DIIS enabled.
  MOM disabled.
  Fractional occupation disabled.
  Guess Type is SAD.
  Energy threshold   = 1.00e-08
  Density threshold  = 1.00e-08
  Integral threshold = 1.00e-12

  ==> Primary Basis <==

  Basis Set: JUN-CC-PVDZ
    Blend: JUN-CC-PVDZ
    Number of shells: 923
    Number of basis functions: 2019
    Number of Cartesian functions: 2122
    Spherical Harmonics?: true
    Max angular momentum: 2

   => Loading Basis Set <=

    Name: (JUN-CC-PVDZ AUX)
    Role: JKFIT
    Keyword: DF_BASIS_SCF
    atoms 1-2, 4-5, 10, 17-34, 41-53, 56-70, 73-89, 92-104, 109-119, 122-130 entry C          line   146 file /opt/software/pc2/EB-SW/software/PSI4/1.9-foss-2022a/share/psi4/basis/jun-cc-pvdz-jkfit.gbs 
    atoms 3, 6                                                               entry N          line   202 file /opt/software/pc2/EB-SW/software/PSI4/1.9-foss-2022a/share/psi4/basis/jun-cc-pvdz-jkfit.gbs 
    atoms 7-9, 11-16, 35-40, 54-55, 71-72, 90-91, 105-108, 120-121, 131-136  entry H          line    70 file /opt/software/pc2/EB-SW/software/PSI4/1.9-foss-2022a/share/psi4/basis/jun-cc-pvdz-jkfit.gbs 

  ==> Integral Setup <==

  ==> DiskDFJK: Density-Fitted J/K Matrices <==

    J tasked:                  Yes
    K tasked:                  Yes
    wK tasked:                  No
    OpenMP threads:             16
    Integrals threads:          16
    Memory [MiB]:            45776
    Algorithm:                Disk
    Integral Cache:           SAVE
    Schwarz Cutoff:          1E-12
    Fitting Condition:       1E-10

   => Auxiliary Basis Set <=

  Basis Set: (JUN-CC-PVDZ AUX)
    Blend: JUN-CC-PVDZ-JKFIT
    Number of shells: 3078
    Number of basis functions: 8896
    Number of Cartesian functions: 10198
    Spherical Harmonics?: true
    Max angular momentum: 3

  Minimum eigenvalue in the overlap matrix is 8.9443316730E-11.
  Reciprocal condition number of the overlap matrix is 3.9008278239E-12.
    Using canonical orthogonalization.
  Overall, 38 of 2019 possible MOs eliminated.


  ==> Pre-Iterations <==

  SCF Guess: Superposition of Atomic Densities via on-the-fly atomic UHF (no occupation information).

   -------------------------
    Irrep   Nso     Nmo    
   -------------------------
     A       2019    1981 
   -------------------------
    Total    2019    1981
   -------------------------

  ==> Iterations <==

                           Total Energy        Delta E     RMS |[F,P]|

   @DF-RHF iter SAD: -3967.13859836820848   -3.96714e+03   0.00000e+00 
   @DF-RHF iter   1: -3952.10748296806150    1.50311e+01   7.15832e-04 ADIIS/DIIS
   @DF-RHF iter   2: -3953.49823066924546   -1.39075e+00   2.34258e-04 ADIIS/DIIS
   @DF-RHF iter   3: -3953.62246613005209   -1.24235e-01   1.00781e-04 ADIIS/DIIS
   @DF-RHF iter   4: -3953.64513549412277   -2.26694e-02   4.15313e-05 DIIS
   @DF-RHF iter   5: -3953.64948767439364   -4.35218e-03   1.05349e-05 DIIS
   @DF-RHF iter   6: -3953.64993278774364   -4.45113e-04   4.60201e-06 DIIS
   @DF-RHF iter   7: -3953.65011653657848   -1.83749e-04   2.21325e-06 DIIS
   @DF-RHF iter   8: -3953.65017821024412   -6.16737e-05   1.11463e-06 DIIS
   @DF-RHF iter   9: -3953.65019584760921   -1.76374e-05   3.58750e-07 DIIS
   @DF-RHF iter  10: -3953.65019705823124   -1.21062e-06   1.43907e-07 DIIS
   @DF-RHF iter  11: -3953.65019720784721   -1.49616e-07   6.04612e-08 DIIS
   @DF-RHF iter  12: -3953.65019724034937   -3.25022e-08   2.98534e-08 DIIS
   @DF-RHF iter  13: -3953.65019724811827   -7.76890e-09   1.05210e-08 DIIS
   @DF-RHF iter  14: -3953.65019724913009   -1.01181e-09   5.22807e-09 DIIS
  Energy and wave function converged.


  ==> Post-Iterations <==

    Orbital Energies [Eh]
    ---------------------

    Doubly Occupied:                                                      

       1A    -15.815434     2A    -15.814905     3A    -11.510400  
       4A    -11.440789     5A    -11.439235     6A    -11.431026  
       7A    -11.430680     8A    -11.325638     9A    -11.325179  
      10A    -11.325040    11A    -11.324428    12A    -11.324364  
      13A    -11.324005    14A    -11.323933    15A    -11.323823  
      16A    -11.323587    17A    -11.323355    18A    -11.323306  
      19A    -11.322945    20A    -11.322915    21A    -11.322746  
      22A    -11.322664    23A    -11.322540    24A    -11.322196  
      25A    -11.322021    26A    -11.321928    27A    -11.321788  
      28A    -11.321733    29A    -11.321663    30A    -11.321202  
      31A    -11.321037    32A    -11.320023    33A    -11.319960  
      34A    -11.319871    35A    -11.319834    36A    -11.319779  
      37A    -11.319667    38A    -11.319645    39A    -11.319603  
      40A    -11.319209    41A    -11.319191    42A    -11.319062  
      43A    -11.318889    44A    -11.318113    45A    -11.318055  
      46A    -11.317997    47A    -11.317720    48A    -11.317712  
      49A    -11.317678    50A    -11.317667    51A    -11.317644  
      52A    -11.317596    53A    -11.317226    54A    -11.317063  
      55A    -11.317040    56A    -11.317028    57A    -11.317020  
      58A    -11.317006    59A    -11.316952    60A    -11.316792  
      61A    -11.316727    62A    -11.316702    63A    -11.316424  
      64A    -11.316400    65A    -11.316397    66A    -11.316366  
      67A    -11.316351    68A    -11.316325    69A    -11.316307  
      70A    -11.316294    71A    -11.316052    72A    -11.316016  
      73A    -11.315987    74A    -11.315932    75A    -11.315858  
      76A    -11.315740    77A    -11.315729    78A    -11.315339  
      79A    -11.315331    80A    -11.309122    81A    -11.309094  
      82A    -11.309055    83A    -11.309039    84A    -11.309011  
      85A    -11.308995    86A    -11.308967    87A    -11.308940  
      88A    -11.308568    89A    -11.308545    90A    -11.308375  
      91A    -11.308295    92A    -11.307604    93A    -11.307576  
      94A    -11.307571    95A    -11.307525    96A    -11.306894  
      97A    -11.306885    98A    -11.306135    99A    -11.306107  
     100A    -11.306099   101A    -11.306053   102A    -11.305424  
     103A    -11.305415   104A     -1.558891   105A     -1.414560  
     106A     -1.314106   107A     -1.297698   108A     -1.297468  
     109A     -1.278058   110A     -1.278027   111A     -1.274109  
     112A     -1.257729   113A     -1.252752   114A     -1.246589  
     115A     -1.246398   116A     -1.230175   117A     -1.230167  
     118A     -1.219459   119A     -1.213659   120A     -1.213641  
     121A     -1.210856   122A     -1.200825   123A     -1.200816  
     124A     -1.185776   125A     -1.172642   126A     -1.170482  
     127A     -1.170339   128A     -1.170248   129A     -1.169134  
     130A     -1.167482   131A     -1.145486   132A     -1.145434  
     133A     -1.132809   134A     -1.132793   135A     -1.125154  
     136A     -1.125105   137A     -1.122814   138A     -1.103498  
     139A     -1.103489   140A     -1.099963   141A     -1.097171  
     142A     -1.094572   143A     -1.094531   144A     -1.083294  
     145A     -1.080194   146A     -1.080125   147A     -1.064209  
     148A     -1.063364   149A     -1.060349   150A     -1.057887  
     151A     -1.057856   152A     -1.046507   153A     -1.028065  
     154A     -1.028038   155A     -1.011989   156A     -1.011986  
     157A     -1.003382   158A     -0.977840   159A     -0.964075  
     160A     -0.963980   161A     -0.963160   162A     -0.960879  
     163A     -0.960827   164A     -0.950855   165A     -0.950755  
     166A     -0.948161   167A     -0.948053   168A     -0.946880  
     169A     -0.928006   170A     -0.923693   171A     -0.907832  
     172A     -0.905510   173A     -0.905382   174A     -0.903197  
     175A     -0.900295   176A     -0.898071   177A     -0.891062  
     178A     -0.891034   179A     -0.883456   180A     -0.883439  
     181A     -0.842102   182A     -0.841958   183A     -0.839556  
     184A     -0.839257   185A     -0.839239   186A     -0.838973  
     187A     -0.838951   188A     -0.831222   189A     -0.823918  
     190A     -0.818829   191A     -0.807710   192A     -0.797329  
     193A     -0.794078   194A     -0.789069   195A     -0.783851  
     196A     -0.783708   197A     -0.781827   198A     -0.781313  
     199A     -0.781216   200A     -0.776015   201A     -0.771110  
     202A     -0.771097   203A     -0.771042   204A     -0.767178  
     205A     -0.762823   206A     -0.755539   207A     -0.755507  
     208A     -0.743496   209A     -0.741990   210A     -0.741957  
     211A     -0.738551   212A     -0.738538   213A     -0.735317  
     214A     -0.711016   215A     -0.709336   216A     -0.707205  
     217A     -0.707152   218A     -0.707110   219A     -0.706934  
     220A     -0.706930   221A     -0.705436   222A     -0.698078  
     223A     -0.698039   224A     -0.697995   225A     -0.696284  
     226A     -0.695149   227A     -0.692809   228A     -0.692760  
     229A     -0.685619   230A     -0.678524   231A     -0.670719  
     232A     -0.670674   233A     -0.665107   234A     -0.665076  
     235A     -0.658157   236A     -0.657841   237A     -0.655863  
     238A     -0.655812   239A     -0.655762   240A     -0.655017  
     241A     -0.651518   242A     -0.651218   243A     -0.651172  
     244A     -0.650840   245A     -0.647932   246A     -0.647895  
     247A     -0.645190   248A     -0.633378   249A     -0.633335  
     250A     -0.632562   251A     -0.632502   252A     -0.629431  
     253A     -0.628598   254A     -0.625544   255A     -0.625526  
     256A     -0.622672   257A     -0.622579   258A     -0.615561  
     259A     -0.615477   260A     -0.615379   261A     -0.613537  
     262A     -0.610867   263A     -0.607165   264A     -0.601792  
     265A     -0.601404   266A     -0.593794   267A     -0.593533  
     268A     -0.589621   269A     -0.589550   270A     -0.585334  
     271A     -0.583897   272A     -0.583873   273A     -0.577041  
     274A     -0.573612   275A     -0.573471   276A     -0.571590  
     277A     -0.571585   278A     -0.565144   279A     -0.565130  
     280A     -0.554422   281A     -0.553022   282A     -0.552931  
     283A     -0.551996   284A     -0.551963   285A     -0.547888  
     286A     -0.536900   287A     -0.533256   288A     -0.533247  
     289A     -0.529963   290A     -0.526796   291A     -0.523177  
     292A     -0.523130   293A     -0.516045   294A     -0.504846  
     295A     -0.504717   296A     -0.504538   297A     -0.499125  
     298A     -0.499059   299A     -0.498811   300A     -0.490176  
     301A     -0.489559   302A     -0.464482   303A     -0.464439  
     304A     -0.444329   305A     -0.444267   306A     -0.441923  
     307A     -0.441136   308A     -0.441119   309A     -0.411119  
     310A     -0.411114   311A     -0.407543   312A     -0.397684  
     313A     -0.395570   314A     -0.395481   315A     -0.388173  
     316A     -0.388061   317A     -0.365322   318A     -0.360045  
     319A     -0.360011   320A     -0.357140   321A     -0.342532  
     322A     -0.311354   323A     -0.311305   324A     -0.310934  
     325A     -0.260771   326A     -0.260734  

    Virtual:                                                              

     327A     -0.068030   328A     -0.067837   329A     -0.053618  
     330A     -0.044889   331A     -0.039575   332A     -0.034037  
     333A     -0.022701   334A     -0.022570   335A     -0.017059  
     336A     -0.014726   337A     -0.013983   338A     -0.012525  
     339A     -0.009100   340A     -0.000599   341A     -0.000367  
     342A     -0.000022   343A      0.003451   344A      0.003538  
     345A      0.006825   346A      0.007464   347A      0.009523  
     348A      0.010067   349A      0.012468   350A      0.012555  
     351A      0.013314   352A      0.014204   353A      0.015472  
     354A      0.016273   355A      0.017083   356A      0.017679  
     357A      0.017775   358A      0.022303   359A      0.022407  
     360A      0.024813   361A      0.027864   362A      0.028074  
     363A      0.029015   364A      0.029040   365A      0.031073  
     366A      0.032781   367A      0.036127   368A      0.037394  
     369A      0.039016   370A      0.039223   371A      0.039530  
     372A      0.040262   373A      0.043552   374A      0.044137  
     375A      0.045915   376A      0.050574   377A      0.050691  
     378A      0.051564   379A      0.054347   380A      0.055465  
     381A      0.056068   382A      0.056805   383A      0.057432  
     384A      0.057953   385A      0.058286   386A      0.058846  
     387A      0.059646   388A      0.059746   389A      0.059903  
     390A      0.061597   391A      0.062571   392A      0.066899  
     393A      0.069388   394A      0.071356   395A      0.071478  
     396A      0.075715   397A      0.075745   398A      0.076835  
     399A      0.079236   400A      0.080621   401A      0.080876  
     402A      0.081293   403A      0.083602   404A      0.085090  
     405A      0.085663   406A      0.087295   407A      0.088648  
     408A      0.089650   409A      0.090099   410A      0.091188  
     411A      0.093128   412A      0.095169   413A      0.096033  
     414A      0.097024   415A      0.097943   416A      0.101051  
     417A      0.101530   418A      0.101773   419A      0.102969  
     420A      0.105304   421A      0.109198   422A      0.109665  
     423A      0.110314   424A      0.111165   425A      0.111652  
     426A      0.112049   427A      0.112673   428A      0.113869  
     429A      0.114888   430A      0.116124   431A      0.118005  
     432A      0.118794   433A      0.118972   434A      0.119920  
     435A      0.120502   436A      0.124115   437A      0.125080  
     438A      0.126622   439A      0.128564   440A      0.130360  
     441A      0.130722   442A      0.132143   443A      0.133102  
     444A      0.135951   445A      0.137629   446A      0.139412  
     447A      0.139523   448A      0.139827   449A      0.141369  
     450A      0.144948   451A      0.146136   452A      0.148818  
     453A      0.149047   454A      0.150130   455A      0.150999  
     456A      0.151335   457A      0.151529   458A      0.152555  
     459A      0.153122   460A      0.153880   461A      0.155755  
     462A      0.155911   463A      0.156187   464A      0.156424  
     465A      0.157286   466A      0.158799   467A      0.159286  
     468A      0.159684   469A      0.162265   470A      0.162824  
     471A      0.163532   472A      0.165413   473A      0.165730  
     474A      0.166857   475A      0.167424   476A      0.168184  
     477A      0.169946   478A      0.170064   479A      0.170947  
     480A      0.172162   481A      0.172839   482A      0.174315  
     483A      0.174666   484A      0.176292   485A      0.177096  
     486A      0.177991   487A      0.178724   488A      0.179158  
     489A      0.181289   490A      0.182538   491A      0.183587  
     492A      0.185273   493A      0.185516   494A      0.187485  
     495A      0.188028   496A      0.189287   497A      0.190322  
     498A      0.190493   499A      0.191004   500A      0.193809  
     501A      0.194742   502A      0.196042   503A      0.196443  
     504A      0.196620   505A      0.197680   506A      0.199119  
     507A      0.199945   508A      0.201131   509A      0.202845  
     510A      0.203553   511A      0.205073   512A      0.207950  
     513A      0.208060   514A      0.209760   515A      0.210287  
     516A      0.211433   517A      0.212418   518A      0.213193  
     519A      0.214232   520A      0.216382   521A      0.216435  
     522A      0.217414   523A      0.217769   524A      0.218702  
     525A      0.220746   526A      0.222738   527A      0.223357  
     528A      0.224099   529A      0.224339   530A      0.224725  
     531A      0.225529   532A      0.226932   533A      0.227394  
     534A      0.227960   535A      0.229558   536A      0.231782  
     537A      0.233273   538A      0.233874   539A      0.234201  
     540A      0.234738   541A      0.235815   542A      0.237997  
     543A      0.238625   544A      0.240095   545A      0.240440  
     546A      0.240465   547A      0.242216   548A      0.243585  
     549A      0.243901   550A      0.247062   551A      0.247405  
     552A      0.248676   553A      0.252731   554A      0.253047  
     555A      0.253623   556A      0.253743   557A      0.253813  
     558A      0.255680   559A      0.257304   560A      0.257961  
     561A      0.259165   562A      0.260981   563A      0.261153  
     564A      0.261649   565A      0.262188   566A      0.263065  
     567A      0.264736   568A      0.265170   569A      0.267129  
     570A      0.267190   571A      0.267937   572A      0.268160  
     573A      0.269338   574A      0.271184   575A      0.271699  
     576A      0.272668   577A      0.274428   578A      0.276175  
     579A      0.276854   580A      0.277580   581A      0.278117  
     582A      0.278547   583A      0.278857   584A      0.279214  
     585A      0.280366   586A      0.280815   587A      0.281143  
     588A      0.281962   589A      0.283778   590A      0.285033  
     591A      0.287104   592A      0.288410   593A      0.288597  
     594A      0.290798   595A      0.291447   596A      0.291742  
     597A      0.292371   598A      0.292510   599A      0.293833  
     600A      0.294545   601A      0.295816   602A      0.295918  
     603A      0.296593   604A      0.297008   605A      0.298170  
     606A      0.301060   607A      0.302048   608A      0.302538  
     609A      0.305541   610A      0.307844   611A      0.308500  
     612A      0.308574   613A      0.309129   614A      0.310291  
     615A      0.311656   616A      0.313750   617A      0.313939  
     618A      0.315011   619A      0.316079   620A      0.316200  
     621A      0.316367   622A      0.317484   623A      0.318563  
     624A      0.320678   625A      0.322074   626A      0.323684  
     627A      0.324526   628A      0.325247   629A      0.326459  
     630A      0.327175   631A      0.327212   632A      0.328691  
     633A      0.328898   634A      0.329123   635A      0.332031  
     636A      0.332554   637A      0.335614   638A      0.337093  
     639A      0.338216   640A      0.338450   641A      0.339524  
     642A      0.339955   643A      0.340474   644A      0.340738  
     645A      0.341249   646A      0.341917   647A      0.342115  
     648A      0.342885   649A      0.343301   650A      0.344199  
     651A      0.345094   652A      0.345691   653A      0.346956  
     654A      0.347120   655A      0.347826   656A      0.350092  
     657A      0.350372   658A      0.351061   659A      0.351205  
     660A      0.351858   661A      0.353608   662A      0.354632  
     663A      0.354793   664A      0.356326   665A      0.356717  
     666A      0.357588   667A      0.358439   668A      0.359432  
     669A      0.359982   670A      0.360605   671A      0.361284  
     672A      0.361385   673A      0.362345   674A      0.362971  
     675A      0.365197   676A      0.367551   677A      0.368653  
     678A      0.369531   679A      0.370674   680A      0.372064  
     681A      0.373549   682A      0.374085   683A      0.375182  
     684A      0.375262   685A      0.375597   686A      0.376708  
     687A      0.378143   688A      0.378735   689A      0.378941  
     690A      0.379612   691A      0.380675   692A      0.381962  
     693A      0.383832   694A      0.384091   695A      0.384924  
     696A      0.385535   697A      0.387887   698A      0.388430  
     699A      0.389605   700A      0.394248   701A      0.396280  
     702A      0.396860   703A      0.397454   704A      0.398087  
     705A      0.398561   706A      0.399458   707A      0.400980  
     708A      0.401090   709A      0.401860   710A      0.402591  
     711A      0.402783   712A      0.403577   713A      0.404549  
     714A      0.405548   715A      0.407353   716A      0.409339  
     717A      0.410565   718A      0.411194   719A      0.411563  
     720A      0.412410   721A      0.413409   722A      0.413839  
     723A      0.415663   724A      0.416280   725A      0.418541  
     726A      0.419384   727A      0.420001   728A      0.420321  
     729A      0.421025   730A      0.421420   731A      0.421976  
     732A      0.422194   733A      0.422941   734A      0.424244  
     735A      0.424544   736A      0.426246   737A      0.427999  
     738A      0.430780   739A      0.430922   740A      0.434347  
     741A      0.436183   742A      0.436528   743A      0.437311  
     744A      0.437985   745A      0.438972   746A      0.440212  
     747A      0.440552   748A      0.441397   749A      0.442770  
     750A      0.443219   751A      0.447178   752A      0.448154  
     753A      0.449224   754A      0.449480   755A      0.449964  
     756A      0.451395   757A      0.452181   758A      0.454756  
     759A      0.456811   760A      0.459171   761A      0.460146  
     762A      0.460536   763A      0.461194   764A      0.462169  
     765A      0.463672   766A      0.464385   767A      0.465410  
     768A      0.466453   769A      0.468665   770A      0.470008  
     771A      0.470301   772A      0.470890   773A      0.473581  
     774A      0.475672   775A      0.477545   776A      0.477782  
     777A      0.479410   778A      0.481468   779A      0.483650  
     780A      0.485015   781A      0.485241   782A      0.485838  
     783A      0.487969   784A      0.490182   785A      0.492830  
     786A      0.494373   787A      0.503828   788A      0.504527  
     789A      0.505681   790A      0.507755   791A      0.508150  
     792A      0.508709   793A      0.509286   794A      0.512077  
     795A      0.512724   796A      0.513655   797A      0.515058  
     798A      0.516018   799A      0.516685   800A      0.517840  
     801A      0.520432   802A      0.520922   803A      0.522123  
     804A      0.522567   805A      0.523116   806A      0.523957  
     807A      0.525016   808A      0.527428   809A      0.529468  
     810A      0.532156   811A      0.534274   812A      0.534714  
     813A      0.535149   814A      0.537228   815A      0.537785  
     816A      0.538298   817A      0.540836   818A      0.541854  
     819A      0.543342   820A      0.547827   821A      0.548473  
     822A      0.549517   823A      0.550608   824A      0.551083  
     825A      0.555025   826A      0.561074   827A      0.563455  
     828A      0.564313   829A      0.565166   830A      0.565474  
     831A      0.573415   832A      0.574186   833A      0.574582  
     834A      0.575866   835A      0.583743   836A      0.585224  
     837A      0.585560   838A      0.590340   839A      0.591271  
     840A      0.598992   841A      0.599306   842A      0.600277  
     843A      0.603577   844A      0.603703   845A      0.604420  
     846A      0.604651   847A      0.609699   848A      0.610708  
     849A      0.612138   850A      0.615623   851A      0.624069  
     852A      0.625585   853A      0.629850   854A      0.629962  
     855A      0.630893   856A      0.631014   857A      0.633559  
     858A      0.635669   859A      0.635715   860A      0.637875  
     861A      0.641028   862A      0.643112   863A      0.644362  
     864A      0.644749   865A      0.645135   866A      0.650003  
     867A      0.650159   868A      0.653845   869A      0.660602  
     870A      0.664572   871A      0.665285   872A      0.673181  
     873A      0.675404   874A      0.677172   875A      0.682491  
     876A      0.684758   877A      0.686062   878A      0.686373  
     879A      0.687986   880A      0.688750   881A      0.689265  
     882A      0.692788   883A      0.694220   884A      0.694507  
     885A      0.695374   886A      0.697839   887A      0.701877  
     888A      0.712835   889A      0.716156   890A      0.723181  
     891A      0.727929   892A      0.729736   893A      0.731199  
     894A      0.732531   895A      0.733639   896A      0.736672  
     897A      0.738660   898A      0.738787   899A      0.740766  
     900A      0.741668   901A      0.746534   902A      0.748387  
     903A      0.749673   904A      0.750516   905A      0.752838  
     906A      0.754504   907A      0.756632   908A      0.757116  
     909A      0.759791   910A      0.760414   911A      0.762924  
     912A      0.763444   913A      0.766592   914A      0.768513  
     915A      0.770689   916A      0.771521   917A      0.772954  
     918A      0.774278   919A      0.776110   920A      0.779755  
     921A      0.780533   922A      0.781947   923A      0.783126  
     924A      0.785406   925A      0.789850   926A      0.791187  
     927A      0.791824   928A      0.792071   929A      0.794341  
     930A      0.797642   931A      0.799174   932A      0.799983  
     933A      0.802783   934A      0.803769   935A      0.806267  
     936A      0.807161   937A      0.808586   938A      0.810626  
     939A      0.812816   940A      0.813977   941A      0.814382  
     942A      0.816534   943A      0.817909   944A      0.818978  
     945A      0.820775   946A      0.821395   947A      0.822301  
     948A      0.823381   949A      0.825978   950A      0.827517  
     951A      0.830696   952A      0.831552   953A      0.832033  
     954A      0.833822   955A      0.834589   956A      0.835096  
     957A      0.837989   958A      0.839408   959A      0.841385  
     960A      0.843995   961A      0.845393   962A      0.845636  
     963A      0.851387   964A      0.852631   965A      0.852961  
     966A      0.854162   967A      0.856709   968A      0.861258  
     969A      0.861771   970A      0.862393   971A      0.862465  
     972A      0.865470   973A      0.866675   974A      0.867386  
     975A      0.867814   976A      0.868670   977A      0.871598  
     978A      0.872865   979A      0.873902   980A      0.874603  
     981A      0.877321   982A      0.878434   983A      0.879209  
     984A      0.880060   985A      0.880906   986A      0.883327  
     987A      0.884987   988A      0.887812   989A      0.889261  
     990A      0.891243   991A      0.891334   992A      0.893034  
     993A      0.895306   994A      0.895749   995A      0.897174  
     996A      0.898015   997A      0.898417   998A      0.898584  
     999A      0.899554  1000A      0.901365  1001A      0.901798  
    1002A      0.902810  1003A      0.903859  1004A      0.905237  
    1005A      0.906993  1006A      0.909800  1007A      0.912769  
    1008A      0.913179  1009A      0.914380  1010A      0.915845  
    1011A      0.917461  1012A      0.922383  1013A      0.926692  
    1014A      0.928132  1015A      0.928706  1016A      0.929017  
    1017A      0.931320  1018A      0.932611  1019A      0.938758  
    1020A      0.938949  1021A      0.940037  1022A      0.940324  
    1023A      0.946954  1024A      0.947427  1025A      0.947818  
    1026A      0.949334  1027A      0.950842  1028A      0.952150  
    1029A      0.952494  1030A      0.955500  1031A      0.958458  
    1032A      0.961159  1033A      0.961942  1034A      0.965869  
    1035A      0.966090  1036A      0.966369  1037A      0.967561  
    1038A      0.967885  1039A      0.974442  1040A      0.975632  
    1041A      0.976324  1042A      0.978067  1043A      0.980863  
    1044A      0.981424  1045A      0.985599  1046A      0.985806  
    1047A      0.989238  1048A      0.989789  1049A      0.990025  
    1050A      0.991006  1051A      0.992532  1052A      0.992894  
    1053A      0.993100  1054A      0.994389  1055A      0.996584  
    1056A      0.997145  1057A      0.997689  1058A      0.998253  
    1059A      1.000836  1060A      1.003104  1061A      1.004998  
    1062A      1.007016  1063A      1.007346  1064A      1.008605  
    1065A      1.009719  1066A      1.010375  1067A      1.011672  
    1068A      1.012858  1069A      1.013621  1070A      1.014258  
    1071A      1.014497  1072A      1.015069  1073A      1.016028  
    1074A      1.017534  1075A      1.018316  1076A      1.018954  
    1077A      1.019324  1078A      1.020231  1079A      1.020837  
    1080A      1.021221  1081A      1.021846  1082A      1.022351  
    1083A      1.023135  1084A      1.024264  1085A      1.024864  
    1086A      1.025229  1087A      1.026414  1088A      1.027230  
    1089A      1.028537  1090A      1.028951  1091A      1.029458  
    1092A      1.031048  1093A      1.031693  1094A      1.033127  
    1095A      1.034088  1096A      1.034200  1097A      1.035089  
    1098A      1.035606  1099A      1.037633  1100A      1.038212  
    1101A      1.039033  1102A      1.040969  1103A      1.041935  
    1104A      1.042992  1105A      1.044279  1106A      1.044883  
    1107A      1.046598  1108A      1.047583  1109A      1.048523  
    1110A      1.048733  1111A      1.050762  1112A      1.054719  
    1113A      1.055732  1114A      1.057202  1115A      1.058876  
    1116A      1.059432  1117A      1.064090  1118A      1.064579  
    1119A      1.065101  1120A      1.069008  1121A      1.071647  
    1122A      1.071996  1123A      1.074655  1124A      1.076178  
    1125A      1.077673  1126A      1.078012  1127A      1.078441  
    1128A      1.081310  1129A      1.083112  1130A      1.083202  
    1131A      1.086156  1132A      1.088383  1133A      1.088856  
    1134A      1.089116  1135A      1.090554  1136A      1.092525  
    1137A      1.093036  1138A      1.093894  1139A      1.094812  
    1140A      1.096038  1141A      1.096456  1142A      1.101252  
    1143A      1.101700  1144A      1.102990  1145A      1.105210  
    1146A      1.109628  1147A      1.110327  1148A      1.111494  
    1149A      1.113727  1150A      1.114446  1151A      1.119846  
    1152A      1.120418  1153A      1.124717  1154A      1.127456  
    1155A      1.129286  1156A      1.130344  1157A      1.133085  
    1158A      1.136462  1159A      1.137485  1160A      1.137769  
    1161A      1.142210  1162A      1.145797  1163A      1.146136  
    1164A      1.148432  1165A      1.148926  1166A      1.150018  
    1167A      1.151135  1168A      1.155644  1169A      1.155981  
    1170A      1.158059  1171A      1.159842  1172A      1.162289  
    1173A      1.162892  1174A      1.163541  1175A      1.165867  
    1176A      1.168012  1177A      1.170704  1178A      1.172068  
    1179A      1.172889  1180A      1.177668  1181A      1.178722  
    1182A      1.185010  1183A      1.189441  1184A      1.190833  
    1185A      1.191004  1186A      1.193371  1187A      1.196646  
    1188A      1.197437  1189A      1.200625  1190A      1.202238  
    1191A      1.206407  1192A      1.206773  1193A      1.208040  
    1194A      1.208728  1195A      1.215670  1196A      1.216572  
    1197A      1.219142  1198A      1.221078  1199A      1.229926  
    1200A      1.230755  1201A      1.231871  1202A      1.235614  
    1203A      1.235760  1204A      1.236093  1205A      1.239208  
    1206A      1.239396  1207A      1.242281  1208A      1.242351  
    1209A      1.248824  1210A      1.249611  1211A      1.250804  
    1212A      1.251031  1213A      1.251939  1214A      1.258327  
    1215A      1.258508  1216A      1.260010  1217A      1.264016  
    1218A      1.264249  1219A      1.264817  1220A      1.265599  
    1221A      1.265977  1222A      1.267826  1223A      1.271871  
    1224A      1.272372  1225A      1.276557  1226A      1.277175  
    1227A      1.278932  1228A      1.281150  1229A      1.282237  
    1230A      1.284054  1231A      1.284286  1232A      1.287197  
    1233A      1.295653  1234A      1.297130  1235A      1.298977  
    1236A      1.299640  1237A      1.300145  1238A      1.302853  
    1239A      1.303815  1240A      1.308116  1241A      1.308751  
    1242A      1.309094  1243A      1.313833  1244A      1.314824  
    1245A      1.316174  1246A      1.318349  1247A      1.318803  
    1248A      1.320802  1249A      1.331463  1250A      1.331878  
    1251A      1.334300  1252A      1.335631  1253A      1.339182  
    1254A      1.339594  1255A      1.340123  1256A      1.341597  
    1257A      1.346308  1258A      1.350126  1259A      1.351908  
    1260A      1.352480  1261A      1.353446  1262A      1.355138  
    1263A      1.356964  1264A      1.357460  1265A      1.358958  
    1266A      1.359583  1267A      1.361648  1268A      1.367089  
    1269A      1.367821  1270A      1.369297  1271A      1.370890  
    1272A      1.371806  1273A      1.372422  1274A      1.374388  
    1275A      1.375083  1276A      1.378674  1277A      1.379256  
    1278A      1.381071  1279A      1.381312  1280A      1.381838  
    1281A      1.385861  1282A      1.386744  1283A      1.387338  
    1284A      1.389084  1285A      1.391418  1286A      1.393598  
    1287A      1.395133  1288A      1.395628  1289A      1.396360  
    1290A      1.396903  1291A      1.402004  1292A      1.406562  
    1293A      1.412361  1294A      1.412588  1295A      1.414037  
    1296A      1.416873  1297A      1.417002  1298A      1.417843  
    1299A      1.418874  1300A      1.424875  1301A      1.428604  
    1302A      1.429019  1303A      1.429591  1304A      1.434880  
    1305A      1.439282  1306A      1.439831  1307A      1.443995  
    1308A      1.447796  1309A      1.449511  1310A      1.449746  
    1311A      1.461868  1312A      1.462316  1313A      1.463721  
    1314A      1.481243  1315A      1.484660  1316A      1.485159  
    1317A      1.487665  1318A      1.496194  1319A      1.496268  
    1320A      1.501235  1321A      1.512806  1322A      1.526230  
    1323A      1.529727  1324A      1.535957  1325A      1.540245  
    1326A      1.543447  1327A      1.545531  1328A      1.546029  
    1329A      1.546823  1330A      1.548065  1331A      1.549547  
    1332A      1.551773  1333A      1.552323  1334A      1.553941  
    1335A      1.554926  1336A      1.557013  1337A      1.557115  
    1338A      1.557428  1339A      1.558166  1340A      1.559250  
    1341A      1.560682  1342A      1.562698  1343A      1.564924  
    1344A      1.565267  1345A      1.567805  1346A      1.570529  
    1347A      1.571407  1348A      1.572240  1349A      1.573505  
    1350A      1.574087  1351A      1.578266  1352A      1.578870  
    1353A      1.580602  1354A      1.581189  1355A      1.581594  
    1356A      1.582133  1357A      1.583054  1358A      1.583287  
    1359A      1.586516  1360A      1.586992  1361A      1.588110  
    1362A      1.589470  1363A      1.594336  1364A      1.594762  
    1365A      1.596240  1366A      1.596350  1367A      1.600108  
    1368A      1.600396  1369A      1.602423  1370A      1.608275  
    1371A      1.608792  1372A      1.610794  1373A      1.611318  
    1374A      1.611649  1375A      1.612436  1376A      1.612574  
    1377A      1.613745  1378A      1.620268  1379A      1.620551  
    1380A      1.621309  1381A      1.622091  1382A      1.631651  
    1383A      1.632488  1384A      1.636394  1385A      1.637205  
    1386A      1.639273  1387A      1.639830  1388A      1.640229  
    1389A      1.641513  1390A      1.643427  1391A      1.650824  
    1392A      1.653000  1393A      1.653239  1394A      1.653485  
    1395A      1.657779  1396A      1.659784  1397A      1.659936  
    1398A      1.662747  1399A      1.664311  1400A      1.665261  
    1401A      1.665343  1402A      1.668000  1403A      1.669047  
    1404A      1.681521  1405A      1.681656  1406A      1.689458  
    1407A      1.691262  1408A      1.691344  1409A      1.693738  
    1410A      1.694337  1411A      1.695352  1412A      1.703680  
    1413A      1.707107  1414A      1.708867  1415A      1.711973  
    1416A      1.719604  1417A      1.720737  1418A      1.723531  
    1419A      1.731089  1420A      1.731797  1421A      1.732448  
    1422A      1.744808  1423A      1.745018  1424A      1.752812  
    1425A      1.760799  1426A      1.762192  1427A      1.765413  
    1428A      1.767446  1429A      1.770561  1430A      1.771512  
    1431A      1.772006  1432A      1.773247  1433A      1.774091  
    1434A      1.776664  1435A      1.776897  1436A      1.777216  
    1437A      1.780113  1438A      1.780260  1439A      1.780516  
    1440A      1.781013  1441A      1.785558  1442A      1.788125  
    1443A      1.789536  1444A      1.791892  1445A      1.801506  
    1446A      1.802290  1447A      1.804026  1448A      1.804074  
    1449A      1.805184  1450A      1.806177  1451A      1.806468  
    1452A      1.810378  1453A      1.813352  1454A      1.814676  
    1455A      1.815386  1456A      1.818560  1457A      1.819517  
    1458A      1.819942  1459A      1.825755  1460A      1.826627  
    1461A      1.826807  1462A      1.827440  1463A      1.828258  
    1464A      1.828717  1465A      1.829255  1466A      1.830061  
    1467A      1.832399  1468A      1.832765  1469A      1.838175  
    1470A      1.846143  1471A      1.846962  1472A      1.847980  
    1473A      1.850505  1474A      1.850557  1475A      1.851693  
    1476A      1.855243  1477A      1.859039  1478A      1.859170  
    1479A      1.860912  1480A      1.864381  1481A      1.865208  
    1482A      1.865557  1483A      1.867618  1484A      1.868200  
    1485A      1.869203  1486A      1.873689  1487A      1.876000  
    1488A      1.880340  1489A      1.881177  1490A      1.883231  
    1491A      1.883731  1492A      1.884029  1493A      1.884800  
    1494A      1.885751  1495A      1.888069  1496A      1.888599  
    1497A      1.890709  1498A      1.893654  1499A      1.896573  
    1500A      1.896823  1501A      1.898922  1502A      1.901744  
    1503A      1.902941  1504A      1.904258  1505A      1.905006  
    1506A      1.905393  1507A      1.907213  1508A      1.910734  
    1509A      1.912881  1510A      1.913962  1511A      1.915438  
    1512A      1.916468  1513A      1.917605  1514A      1.922238  
    1515A      1.923244  1516A      1.924599  1517A      1.926135  
    1518A      1.929404  1519A      1.933831  1520A      1.936427  
    1521A      1.936878  1522A      1.937941  1523A      1.938592  
    1524A      1.939616  1525A      1.951189  1526A      1.951981  
    1527A      1.954234  1528A      1.955490  1529A      1.956664  
    1530A      1.960062  1531A      1.960683  1532A      1.961360  
    1533A      1.962354  1534A      1.963359  1535A      1.963906  
    1536A      1.964352  1537A      1.965650  1538A      1.968457  
    1539A      1.971502  1540A      1.974264  1541A      1.975912  
    1542A      1.978252  1543A      1.978625  1544A      1.979213  
    1545A      1.983533  1546A      1.986502  1547A      1.986937  
    1548A      1.991068  1549A      1.993318  1550A      1.995995  
    1551A      1.996763  1552A      1.998196  1553A      2.000197  
    1554A      2.000463  1555A      2.002406  1556A      2.003571  
    1557A      2.004150  1558A      2.005744  1559A      2.010952  
    1560A      2.012381  1561A      2.013846  1562A      2.014318  
    1563A      2.020002  1564A      2.022226  1565A      2.023959  
    1566A      2.024697  1567A      2.024931  1568A      2.025837  
    1569A      2.026679  1570A      2.027797  1571A      2.028258  
    1572A      2.030409  1573A      2.031653  1574A      2.032829  
    1575A      2.033825  1576A      2.034592  1577A      2.035321  
    1578A      2.036449  1579A      2.036681  1580A      2.038245  
    1581A      2.039225  1582A      2.041283  1583A      2.041534  
    1584A      2.042500  1585A      2.044283  1586A      2.045832  
    1587A      2.046121  1588A      2.047423  1589A      2.051250  
    1590A      2.055002  1591A      2.055642  1592A      2.056453  
    1593A      2.056829  1594A      2.057599  1595A      2.059503  
    1596A      2.061975  1597A      2.062107  1598A      2.062611  
    1599A      2.067000  1600A      2.071158  1601A      2.071652  
    1602A      2.072027  1603A      2.072068  1604A      2.072440  
    1605A      2.072689  1606A      2.073371  1607A      2.075223  
    1608A      2.080327  1609A      2.080665  1610A      2.081520  
    1611A      2.082559  1612A      2.085552  1613A      2.086301  
    1614A      2.088377  1615A      2.089271  1616A      2.089459  
    1617A      2.098233  1618A      2.098575  1619A      2.099448  
    1620A      2.101389  1621A      2.102446  1622A      2.102887  
    1623A      2.103362  1624A      2.104200  1625A      2.105340  
    1626A      2.107934  1627A      2.109210  1628A      2.114860  
    1629A      2.115408  1630A      2.122058  1631A      2.123564  
    1632A      2.125209  1633A      2.125524  1634A      2.126773  
    1635A      2.132149  1636A      2.132721  1637A      2.133226  
    1638A      2.133640  1639A      2.136532  1640A      2.137098  
    1641A      2.139714  1642A      2.140733  1643A      2.142625  
    1644A      2.142913  1645A      2.144643  1646A      2.145395  
    1647A      2.147991  1648A      2.149404  1649A      2.150122  
    1650A      2.153809  1651A      2.157570  1652A      2.157794  
    1653A      2.162849  1654A      2.164349  1655A      2.166661  
    1656A      2.166898  1657A      2.167765  1658A      2.168173  
    1659A      2.169941  1660A      2.172437  1661A      2.174332  
    1662A      2.177026  1663A      2.178413  1664A      2.178849  
    1665A      2.179983  1666A      2.181476  1667A      2.181560  
    1668A      2.186165  1669A      2.188910  1670A      2.191035  
    1671A      2.193023  1672A      2.193738  1673A      2.196297  
    1674A      2.206826  1675A      2.208502  1676A      2.208942  
    1677A      2.210437  1678A      2.211780  1679A      2.216009  
    1680A      2.218982  1681A      2.226356  1682A      2.227172  
    1683A      2.228608  1684A      2.235419  1685A      2.236168  
    1686A      2.239060  1687A      2.241456  1688A      2.247232  
    1689A      2.248153  1690A      2.248641  1691A      2.252877  
    1692A      2.258979  1693A      2.266798  1694A      2.268887  
    1695A      2.268966  1696A      2.270809  1697A      2.272731  
    1698A      2.274540  1699A      2.274958  1700A      2.275591  
    1701A      2.276706  1702A      2.277174  1703A      2.278217  
    1704A      2.282121  1705A      2.285189  1706A      2.285745  
    1707A      2.286019  1708A      2.287865  1709A      2.288458  
    1710A      2.289173  1711A      2.291491  1712A      2.291874  
    1713A      2.309211  1714A      2.314040  1715A      2.314213  
    1716A      2.323102  1717A      2.328301  1718A      2.331498  
    1719A      2.333067  1720A      2.334855  1721A      2.336225  
    1722A      2.339497  1723A      2.349227  1724A      2.358494  
    1725A      2.362333  1726A      2.363406  1727A      2.366880  
    1728A      2.371376  1729A      2.374710  1730A      2.385907  
    1731A      2.387379  1732A      2.395272  1733A      2.395966  
    1734A      2.408358  1735A      2.408465  1736A      2.411810  
    1737A      2.412014  1738A      2.416074  1739A      2.416384  
    1740A      2.436061  1741A      2.436470  1742A      2.437558  
    1743A      2.446614  1744A      2.451651  1745A      2.452887  
    1746A      2.456046  1747A      2.461361  1748A      2.461516  
    1749A      2.482136  1750A      2.482798  1751A      2.484365  
    1752A      2.484552  1753A      2.486515  1754A      2.487190  
    1755A      2.488111  1756A      2.491659  1757A      2.492985  
    1758A      2.494625  1759A      2.495541  1760A      2.498490  
    1761A      2.498764  1762A      2.507578  1763A      2.515057  
    1764A      2.517139  1765A      2.525388  1766A      2.526189  
    1767A      2.529344  1768A      2.530168  1769A      2.530410  
    1770A      2.530857  1771A      2.534741  1772A      2.535066  
    1773A      2.537138  1774A      2.540180  1775A      2.545777  
    1776A      2.545910  1777A      2.557129  1778A      2.557701  
    1779A      2.558013  1780A      2.558123  1781A      2.561971  
    1782A      2.562435  1783A      2.576544  1784A      2.584062  
    1785A      2.585268  1786A      2.587342  1787A      2.588797  
    1788A      2.591597  1789A      2.592365  1790A      2.592882  
    1791A      2.597593  1792A      2.598386  1793A      2.600876  
    1794A      2.601302  1795A      2.607918  1796A      2.609057  
    1797A      2.612844  1798A      2.615500  1799A      2.615892  
    1800A      2.616446  1801A      2.622308  1802A      2.623202  
    1803A      2.627845  1804A      2.628706  1805A      2.629463  
    1806A      2.631119  1807A      2.634598  1808A      2.634819  
    1809A      2.635451  1810A      2.636200  1811A      2.639476  
    1812A      2.640893  1813A      2.647427  1814A      2.662464  
    1815A      2.666307  1816A      2.674688  1817A      2.674854  
    1818A      2.675738  1819A      2.676884  1820A      2.677360  
    1821A      2.684404  1822A      2.696518  1823A      2.699767  
    1824A      2.700962  1825A      2.702863  1826A      2.706023  
    1827A      2.714340  1828A      2.717296  1829A      2.717853  
    1830A      2.723126  1831A      2.723749  1832A      2.736718  
    1833A      2.741245  1834A      2.742086  1835A      2.743931  
    1836A      2.744502  1837A      2.744712  1838A      2.752606  
    1839A      2.754338  1840A      2.756741  1841A      2.757480  
    1842A      2.759396  1843A      2.760368  1844A      2.765148  
    1845A      2.770110  1846A      2.770628  1847A      2.773406  
    1848A      2.783109  1849A      2.784889  1850A      2.786205  
    1851A      2.786404  1852A      2.789491  1853A      2.803049  
    1854A      2.808059  1855A      2.808390  1856A      2.813468  
    1857A      2.814801  1858A      2.815710  1859A      2.818725  
    1860A      2.836684  1861A      2.837608  1862A      2.856076  
    1863A      2.863139  1864A      2.863561  1865A      2.872998  
    1866A      2.875533  1867A      2.880207  1868A      2.880299  
    1869A      2.907737  1870A      2.910100  1871A      2.910702  
    1872A      2.921285  1873A      2.937218  1874A      2.938396  
    1875A      2.952292  1876A      2.972879  1877A      2.973448  
    1878A      2.980866  1879A      2.984253  1880A      2.990682  
    1881A      2.991633  1882A      2.993429  1883A      3.000557  
    1884A      3.000848  1885A      3.001979  1886A      3.010580  
    1887A      3.016430  1888A      3.054024  1889A      3.058309  
    1890A      3.058591  1891A      3.064982  1892A      3.066670  
    1893A      3.071340  1894A      3.071707  1895A      3.076722  
    1896A      3.078507  1897A      3.081601  1898A      3.087075  
    1899A      3.088286  1900A      3.092785  1901A      3.093299  
    1902A      3.094328  1903A      3.095303  1904A      3.099033  
    1905A      3.107910  1906A      3.109628  1907A      3.118504  
    1908A      3.120657  1909A      3.120944  1910A      3.138446  
    1911A      3.139266  1912A      3.165857  1913A      3.197025  
    1914A      3.204533  1915A      3.204777  1916A      3.205543  
    1917A      3.206288  1918A      3.208626  1919A      3.212545  
    1920A      3.215752  1921A      3.219418  1922A      3.219784  
    1923A      3.238335  1924A      3.241344  1925A      3.241817  
    1926A      3.248442  1927A      3.303755  1928A      3.304989  
    1929A      3.312492  1930A      3.358090  1931A      3.371684  
    1932A      3.374210  1933A      3.376082  1934A      3.388272  
    1935A      3.391840  1936A      3.403332  1937A      3.406818  
    1938A      3.407571  1939A      3.413290  1940A      3.416375  
    1941A      3.424011  1942A      3.428148  1943A      3.436347  
    1944A      3.451173  1945A      3.462452  1946A      3.481509  
    1947A      3.516679  1948A      3.518445  1949A      3.526438  
    1950A      3.533674  1951A      3.552098  1952A      3.585259  
    1953A      3.585977  1954A      3.607910  1955A      3.610477  
    1956A      3.647648  1957A      3.689658  1958A      3.693212  
    1959A      3.694167  1960A      3.704370  1961A      3.721526  
    1962A      3.722777  1963A      3.785997  1964A      3.786860  
    1965A      3.815206  1966A      3.818101  1967A      3.848056  
    1968A      3.856551  1969A      3.879441  1970A      3.881945  
    1971A      3.891554  1972A      3.892815  1973A      3.901570  
    1974A      3.905777  1975A      3.913156  1976A      3.966400  
    1977A      3.968830  1978A      4.012499  1979A      4.170203  
    1980A      4.242122  1981A      4.334297  

    Final Occupation by Irrep:
              A 
    DOCC [   326 ]
    NA   [   326 ]
    NB   [   326 ]

  @DF-RHF Final Energy: -3953.65019724913009

   => Energetics <=

    Nuclear Repulsion Energy =          17922.1993183239428618
    One-Electron Energy =              -41053.8576079448102973
    Two-Electron Energy =               19178.0080923717359838
    Total Energy =                      -3953.6501972491314518

Computation Completed


Properties will be evaluated at   0.000000,   0.000000,   0.000000 [a0]

Properties computed using the SCF density matrix


 Multipole Moments:

 ------------------------------------------------------------------------------------
     Multipole            Electronic (a.u.)      Nuclear  (a.u.)        Total (a.u.)
 ------------------------------------------------------------------------------------

 L = 1.  Multiply by 2.5417464519 to convert [e a0] to [Debye]
 Dipole X            :          0.0017885            0.0004804            0.0022689
 Dipole Y            :         -1.5642306            1.8866171            0.3223865
 Dipole Z            :        -26.2562988           35.1680165            8.9117177
 Magnitude           :                                                    8.9175473

 ------------------------------------------------------------------------------------

*** tstop() called on n2cn0668 at Sat Jan 27 00:28:11 2024
Module time:
	user time   =   30993.72 seconds =     516.56 minutes
	system time =    2677.14 seconds =      44.62 minutes
	total time  =       4050 seconds =      67.50 minutes
Total time:
	user time   =   30993.72 seconds =     516.56 minutes
	system time =    2677.14 seconds =      44.62 minutes
	total time  =       4050 seconds =      67.50 minutes

  //>>>>>>>>>>>>>>>>>>>>>>>>>>>>>>>>>>>//
  //            Monomer A HF           //
  //<<<<<<<<<<<<<<<<<<<<<<<<<<<<<<<<<<<//

   => Libint2 <=

    Primary   basis highest AM E, G, H:  5, 4, 3
    Auxiliary basis highest AM E, G, H:  6, 5, 4
    Onebody   basis highest AM E, G, H:  6, 5, 4
    Solid Harmonics ordering:            gaussian

*** tstart() called on n2cn0668
*** at Sat Jan 27 00:28:11 2024

   => Loading Basis Set <=

    Name: JUN-CC-PVDZ
    Role: ORBITAL
    Keyword: BASIS
    atoms 1-2, 4-5, 10, 17-34, 41-53, 56-70, 73-89, 92-104, 109-119, 122-130 entry C          line   164 file /opt/software/pc2/EB-SW/software/PSI4/1.9-foss-2022a/share/psi4/basis/jun-cc-pvdz.gbs 
    atoms 3, 6                                                               entry N          line   198 file /opt/software/pc2/EB-SW/software/PSI4/1.9-foss-2022a/share/psi4/basis/jun-cc-pvdz.gbs 
    atoms 7-9, 11-16, 35-40, 54-55, 71-72, 90-91, 105-108, 120-121, 131-136  entry H          line    36 file /opt/software/pc2/EB-SW/software/PSI4/1.9-foss-2022a/share/psi4/basis/jun-cc-pvdz.gbs 


         ---------------------------------------------------------
                                   SCF
               by Justin Turney, Rob Parrish, Andy Simmonett
                          and Daniel G. A. Smith
                              RHF Reference
                       16 Threads,  61035 MiB Core
         ---------------------------------------------------------

  ==> Geometry <==

    Molecular point group: c1
    Full point group: C1

    Geometry (in Angstrom), charge = 1, multiplicity = 1:

       Center              X                  Y                   Z               Mass       
    ------------   -----------------  -----------------  -----------------  -----------------
         C            0.680062820275    -1.215917226251     5.365833690558    12.000000000000
         C           -0.680508179725    -1.215533226251     5.363805690558    12.000000000000
         N           -1.085639179725     0.102790773749     5.362807690558    14.003074004430
[...]
    1579A      2.163820  1580A      2.166346  1581A      2.172106  
    1582A      2.172773  1583A      2.180017  1584A      2.180774  
    1585A      2.182188  1586A      2.182799  1587A      2.188783  
    1588A      2.189855  1589A      2.191171  1590A      2.191756  
    1591A      2.193809  1592A      2.194765  1593A      2.196226  
    1594A      2.197506  1595A      2.198601  1596A      2.200556  
    1597A      2.200892  1598A      2.201868  1599A      2.202169  
    1600A      2.204180  1601A      2.205220  1602A      2.205982  
    1603A      2.209516  1604A      2.214017  1605A      2.214450  
    1606A      2.219267  1607A      2.220230  1608A      2.222545  
    1609A      2.222840  1610A      2.224841  1611A      2.225086  
    1612A      2.225735  1613A      2.228688  1614A      2.232152  
    1615A      2.232406  1616A      2.233454  1617A      2.234671  
    1618A      2.238983  1619A      2.239280  1620A      2.240260  
    1621A      2.241722  1622A      2.247235  1623A      2.247767  
    1624A      2.248925  1625A      2.250089  1626A      2.255384  
    1627A      2.261990  1628A      2.262956  1629A      2.263867  
    1630A      2.265577  1631A      2.267384  1632A      2.269863  
    1633A      2.276961  1634A      2.281717  1635A      2.283128  
    1636A      2.284516  1637A      2.289755  1638A      2.291149  
    1639A      2.292708  1640A      2.296739  1641A      2.296893  
    1642A      2.304019  1643A      2.304374  1644A      2.308234  
    1645A      2.310012  1646A      2.318375  1647A      2.323661  
    1648A      2.324905  1649A      2.325147  1650A      2.325365  
    1651A      2.327924  1652A      2.329498  1653A      2.330856  
    1654A      2.331165  1655A      2.333098  1656A      2.334881  
    1657A      2.335311  1658A      2.339860  1659A      2.339954  
    1660A      2.341682  1661A      2.342371  1662A      2.342467  
    1663A      2.344999  1664A      2.345900  1665A      2.346395  
    1666A      2.349151  1667A      2.349514  1668A      2.351341  
    1669A      2.368421  1670A      2.371336  1671A      2.373294  
    1672A      2.374569  1673A      2.383963  1674A      2.388232  
    1675A      2.391010  1676A      2.392417  1677A      2.394266  
    1678A      2.397611  1679A      2.404317  1680A      2.418523  
    1681A      2.419961  1682A      2.423975  1683A      2.427631  
    1684A      2.432330  1685A      2.442321  1686A      2.443567  
    1687A      2.452666  1688A      2.453133  1689A      2.463555  
    1690A      2.464447  1691A      2.465008  1692A      2.466021  
    1693A      2.467950  1694A      2.468860  1695A      2.471964  
    1696A      2.472227  1697A      2.478258  1698A      2.491299  
    1699A      2.491516  1700A      2.494764  1701A      2.495849  
    1702A      2.500053  1703A      2.502190  1704A      2.507088  
    1705A      2.507937  1706A      2.511592  1707A      2.516072  
    1708A      2.527712  1709A      2.539373  1710A      2.539841  
    1711A      2.540569  1712A      2.542654  1713A      2.543228  
    1714A      2.545578  1715A      2.547888  1716A      2.548948  
    1717A      2.549499  1718A      2.551627  1719A      2.556647  
    1720A      2.556829  1721A      2.564352  1722A      2.571290  
    1723A      2.571847  1724A      2.580088  1725A      2.583926  
    1726A      2.584300  1727A      2.585092  1728A      2.586289  
    1729A      2.587800  1730A      2.589002  1731A      2.590686  
    1732A      2.593243  1733A      2.593800  1734A      2.601467  
    1735A      2.601617  1736A      2.613086  1737A      2.613498  
    1738A      2.613915  1739A      2.614012  1740A      2.618025  
    1741A      2.618443  1742A      2.633067  1743A      2.640716  
    1744A      2.641810  1745A      2.643646  1746A      2.645440  
    1747A      2.647518  1748A      2.648114  1749A      2.649252  
    1750A      2.650879  1751A      2.653182  1752A      2.656122  
    1753A      2.656666  1754A      2.661874  1755A      2.666125  
    1756A      2.666282  1757A      2.667228  1758A      2.667719  
    1759A      2.670637  1760A      2.670932  1761A      2.673851  
    1762A      2.677110  1763A      2.678058  1764A      2.680756  
    1765A      2.685156  1766A      2.686099  1767A      2.687285  
    1768A      2.691384  1769A      2.691575  1770A      2.691926  
    1771A      2.692724  1772A      2.696180  1773A      2.697446  
    1774A      2.703368  1775A      2.704930  1776A      2.720985  
    1777A      2.730785  1778A      2.731093  1779A      2.731646  
    1780A      2.731928  1781A      2.732306  1782A      2.750110  
    1783A      2.752944  1784A      2.760927  1785A      2.761511  
    1786A      2.767148  1787A      2.773515  1788A      2.776101  
    1789A      2.779959  1790A      2.780847  1791A      2.786401  
    1792A      2.799517  1793A      2.799937  1794A      2.802249  
    1795A      2.802280  1796A      2.802481  1797A      2.811451  
    1798A      2.814051  1799A      2.815366  1800A      2.815837  
    1801A      2.816774  1802A      2.817388  1803A      2.828424  
    1804A      2.829138  1805A      2.836188  1806A      2.840200  
    1807A      2.841418  1808A      2.842705  1809A      2.843403  
    1810A      2.846244  1811A      2.852491  1812A      2.862761  
    1813A      2.865495  1814A      2.866053  1815A      2.870860  
    1816A      2.872007  1817A      2.875718  1818A      2.888880  
    1819A      2.895988  1820A      2.896873  1821A      2.907515  
    1822A      2.915343  1823A      2.917678  1824A      2.918258  
    1825A      2.927509  1826A      2.930042  1827A      2.932390  
    1828A      2.934806  1829A      2.935563  1830A      2.936496  
    1831A      2.962933  1832A      2.963595  1833A      2.965567  
    1834A      2.965905  1835A      2.976790  1836A      2.992296  
    1837A      2.993200  1838A      2.996530  1839A      3.025020  
    1840A      3.029929  1841A      3.030553  1842A      3.036136  
    1843A      3.039502  1844A      3.043609  1845A      3.047147  
    1846A      3.047997  1847A      3.048496  1848A      3.057808  
    1849A      3.058014  1850A      3.063936  1851A      3.069792  
    1852A      3.073022  1853A      3.108790  1854A      3.113258  
    1855A      3.113559  1856A      3.122859  1857A      3.128026  
    1858A      3.128537  1859A      3.133203  1860A      3.134478  
    1861A      3.142505  1862A      3.143373  1863A      3.148803  
    1864A      3.149505  1865A      3.149836  1866A      3.150767  
    1867A      3.153786  1868A      3.162344  1869A      3.166410  
    1870A      3.167976  1871A      3.173259  1872A      3.175493  
    1873A      3.176006  1874A      3.193411  1875A      3.194223  
    1876A      3.220316  1877A      3.252915  1878A      3.259757  
    1879A      3.261884  1880A      3.261979  1881A      3.262434  
    1882A      3.264761  1883A      3.268455  1884A      3.271645  
    1885A      3.275263  1886A      3.275851  1887A      3.293696  
    1888A      3.295610  1889A      3.298471  1890A      3.299136  
    1891A      3.304652  1892A      3.316563  1893A      3.330046  
    1894A      3.361523  1895A      3.362754  1896A      3.370560  
    1897A      3.412574  1898A      3.417004  1899A      3.430491  
    1900A      3.433342  1901A      3.437021  1902A      3.447917  
    1903A      3.451652  1904A      3.462707  1905A      3.465045  
    1906A      3.466305  1907A      3.471557  1908A      3.474581  
    1909A      3.482373  1910A      3.487534  1911A      3.495166  
    1912A      3.509314  1913A      3.530555  1914A      3.540368  
    1915A      3.574531  1916A      3.576291  1917A      3.583498  
    1918A      3.584671  1919A      3.590183  1920A      3.642887  
    1921A      3.644081  1922A      3.648643  1923A      3.665374  
    1924A      3.667613  1925A      3.705397  1926A      3.748475  
    1927A      3.749543  1928A      3.751183  1929A      3.761211  
    1930A      3.763407  1931A      3.778864  1932A      3.780602  
    1933A      3.821300  1934A      3.842229  1935A      3.843598  
    1936A      3.871535  1937A      3.871661  1938A      3.874762  
    1939A      3.905091  1940A      3.914099  1941A      3.938420  
    1942A      3.941335  1943A      3.948448  1944A      3.949485  
    1945A      3.959459  1946A      3.962890  1947A      3.966214  
    1948A      3.972060  1949A      4.024754  1950A      4.027520  
    1951A      4.072044  1952A      4.216945  1953A      4.218501  
    1954A      4.231498  1955A      4.302947  1956A      4.373375  
    1957A      4.390318  1958A      4.403231  1959A      4.495862  
    1960A      4.743193  1961A      4.787105  1962A      4.838490  
    1963A      4.859343  1964A      4.946838  1965A      5.056595  
    1966A      5.064783  1967A      5.072851  1968A      5.118605  
    1969A      5.133586  1970A      5.394727  1971A      5.427293  
    1972A      5.743382  1973A      5.756103  1974A      6.070840  
    1975A     18.206620  1976A     18.458939  1977A     18.477293  
    1978A     18.564996  1979A     18.842098  1980A     25.348582  
    1981A     25.381728  

    Final Occupation by Irrep:
              A 
    DOCC [   300 ]
    NA   [   300 ]
    NB   [   300 ]

  @DF-RHF Final Energy: -3650.33850078157820

   => Energetics <=

    Nuclear Repulsion Energy =          15611.4211649754324753
    One-Electron Energy =              -36072.1091306383896153
    Two-Electron Energy =               16810.3494648813793901
    Total Energy =                      -3650.3385007815777499

Computation Completed


Properties will be evaluated at   0.000000,   0.000000,   0.000000 [a0]

Properties computed using the SCF density matrix


 Multipole Moments:

 ------------------------------------------------------------------------------------
     Multipole            Electronic (a.u.)      Nuclear  (a.u.)        Total (a.u.)
 ------------------------------------------------------------------------------------

 L = 1.  Multiply by 2.5417464519 to convert [e a0] to [Debye]
 Dipole X            :         -0.0009654            0.0002112           -0.0007543
 Dipole Y            :          0.0042147           -0.0044281           -0.0002133
 Dipole Z            :        501.3773761         -501.3881652           -0.0107892
 Magnitude           :                                                    0.0108176

 ------------------------------------------------------------------------------------

*** tstop() called on n2cn0668 at Sat Jan 27 01:48:58 2024
Module time:
	user time   =   20915.52 seconds =     348.59 minutes
	system time =    1590.56 seconds =      26.51 minutes
	total time  =       3005 seconds =      50.08 minutes
Total time:
	user time   =   58071.26 seconds =     967.85 minutes
	system time =    4897.09 seconds =      81.62 minutes
	total time  =       8897 seconds =     148.28 minutes
  Constructing Basis Sets for SAPT...

   => Loading Basis Set <=

    Name: (JUN-CC-PVDZ AUX)
    Role: RIFIT
    Keyword: DF_BASIS_SAPT
    atoms 1-2, 4-5, 10, 17-34, 41-53, 56-70, 73-89, 92-104, 109-119, 122-130 entry C          line   100 file /opt/software/pc2/EB-SW/software/PSI4/1.9-foss-2022a/share/psi4/basis/jun-cc-pvdz-ri.gbs 
    atoms 3, 6                                                               entry N          line   144 file /opt/software/pc2/EB-SW/software/PSI4/1.9-foss-2022a/share/psi4/basis/jun-cc-pvdz-ri.gbs 
    atoms 7-9, 11-16, 35-40, 54-55, 71-72, 90-91, 105-108, 120-121, 131-136  entry H          line    30 file /opt/software/pc2/EB-SW/software/PSI4/1.9-foss-2022a/share/psi4/basis/jun-cc-pvdz-ri.gbs 

   => Loading Basis Set <=

    Name: (JUN-CC-PVDZ AUX)
    Role: JKFIT
    Keyword: DF_BASIS_ELST
    atoms 1-2, 4-5, 10, 17-34, 41-53, 56-70, 73-89, 92-104, 109-119, 122-130 entry C          line   146 file /opt/software/pc2/EB-SW/software/PSI4/1.9-foss-2022a/share/psi4/basis/jun-cc-pvdz-jkfit.gbs 
    atoms 3, 6                                                               entry N          line   202 file /opt/software/pc2/EB-SW/software/PSI4/1.9-foss-2022a/share/psi4/basis/jun-cc-pvdz-jkfit.gbs 
    atoms 7-9, 11-16, 35-40, 54-55, 71-72, 90-91, 105-108, 120-121, 131-136  entry H          line    70 file /opt/software/pc2/EB-SW/software/PSI4/1.9-foss-2022a/share/psi4/basis/jun-cc-pvdz-jkfit.gbs 


  //>>>>>>>>>>>>>>>>>>>>>>>>>>>>>>>>>>>//
  //               SSAPT0              //
  //<<<<<<<<<<<<<<<<<<<<<<<<<<<<<<<<<<<//


*** tstart() called on n2cn0668
*** at Sat Jan 27 01:49:00 2024

        SAPT0  
    Ed Hohenstein
     6 June 2009

      Orbital Information
  --------------------------
    NSO        =      2019
    NMO        =      1981
    NRI        =      7157
    NRI (Elst) =      8896
    NOCC A     =        26
    NOCC B     =       300
    FOCC A     =         7
    FOCC B     =        96
    NVIR A     =      1955
    NVIR B     =      1681

    Elst10,r            =    -0.009767877199 [Eh]
    Exch10              =     0.000002436794 [Eh]
    Exch10 (S^2)        =     0.000002436794 [Eh]

    Iter     Energy [mEh]          dE [mEh]         Residual      Time [s]
       1      -0.01556529       0.015565288       1.047672603           217
       2      -0.01432999      -0.001235297       0.219815024           460
       3      -0.01544610       0.001116113       0.034852660           639
       4      -0.01542360      -0.000022505       0.014653873           835
       5      -0.01540761      -0.000015991       0.002882769          1037
       6      -0.01540859       0.000000980       0.001303726          1274
       7      -0.01540924       0.000000652       0.000534178          1526
       8      -0.01540918      -0.000000061       0.000214803          1706
       9      -0.01540910      -0.000000079       0.000076758          1918
      10      -0.01540910      -0.000000004       0.000018229          2116
      11      -0.01540911       0.000000009       0.000006060          2317
      12      -0.01540911       0.000000000       0.000001992          2509
      13      -0.01540910      -0.000000001       0.000000792          2712

    CHF Iterations converged


    Iter     Energy [mEh]          dE [mEh]         Residual      Time [s]
       1      -6.62216089       6.622160888      44.519350850           240
       2      -4.26494100      -2.357219888       5.213492878           510
       3      -4.24602809      -0.018912914       1.766528531           767
       4      -4.32235433       0.076326243       0.555764014          1023
       5      -4.33268327       0.010328939       0.194183105          1397
       6      -4.33187611      -0.000807163       0.130152274          1646
       7      -4.32951546      -0.002360641       0.058246202          1883
       8      -4.32970683       0.000191365       0.033866733          2144
       9      -4.33030104       0.000594212       0.021329071          2423
      10      -4.33013527      -0.000165770       0.016286850          2707
      11      -4.33003093      -0.000104337       0.006911724          3002
      12      -4.33003365       0.000002719       0.003357838          3268
      13      -4.33005656       0.000022909       0.001481776          3589
      14      -4.33006328       0.000006719       0.000795999          3895
      15      -4.33005947      -0.000003812       0.000534838          4203
      16      -4.33005523      -0.000004236       0.000225246          4520
      17      -4.33005747       0.000002237       0.000085323          4822
      18      -4.33005787       0.000000401       0.000035262          5131
      19      -4.33005766      -0.000000210       0.000023200          5476
      20      -4.33005752      -0.000000143       0.000010413          5830
      21      -4.33005757       0.000000053       0.000004864          6103
      22      -4.33005760       0.000000024       0.000002030          6342
      23      -4.33005759      -0.000000005       0.000000734          6572

    CHF Iterations converged

    Ind20,r (A<-B)      =    -0.000015409105 [Eh]
    Ind20,r (B<-A)      =    -0.004330057591 [Eh]
    Ind20,r             =    -0.004345466696 [Eh]
    Exch-Ind20,r (A<-B) =     0.000000615004 [Eh]
    Exch-Ind20,r (B<-A) =     0.000002089560 [Eh]
    Exch-Ind20,r        =     0.000002704565 [Eh]
    Disp20              =    -0.003478068982 [Eh]
    Disp20 (SS)         =    -0.001739034491 [Eh]
    Disp20 (OS)         =    -0.001739034491 [Eh]
    Exch-Disp20         =     0.000002220138 [Eh]
    Exch-Disp20 (SS)    =     0.000001625358 [Eh]
    Exch-Disp20 (OS)    =     0.000000594780 [Eh]

    SAPT Results 
  --------------------------------------------------------------------------------------------------------
    Electrostatics                 -9.76787720 [mEh]      -6.12943548 [kcal/mol]     -25.64555805 [kJ/mol]
      Elst10,r                     -9.76787720 [mEh]      -6.12943548 [kcal/mol]     -25.64555805 [kJ/mol]

    Exchange                        0.00243679 [mEh]       0.00152911 [kcal/mol]       0.00639780 [kJ/mol]
      Exch10                        0.00243679 [mEh]       0.00152911 [kcal/mol]       0.00639780 [kJ/mol]
      Exch10(S^2)                   0.00243679 [mEh]       0.00152911 [kcal/mol]       0.00639780 [kJ/mol]

    Induction                      -4.43166424 [mEh]      -2.78091130 [kcal/mol]     -11.63533287 [kJ/mol]
      Ind20,r                      -4.34546670 [mEh]      -2.72682152 [kcal/mol]     -11.40902124 [kJ/mol]
      Exch-Ind20,r                  0.00270456 [mEh]       0.00169714 [kcal/mol]       0.00710083 [kJ/mol]
      delta HF,r (2)               -0.08890211 [mEh]      -0.05578692 [kcal/mol]      -0.23341246 [kJ/mol]

    Dispersion                     -3.47584884 [mEh]      -2.18112808 [kcal/mol]      -9.12583988 [kJ/mol]
      Disp20                       -3.47806898 [mEh]      -2.18252124 [kcal/mol]      -9.13166886 [kJ/mol]
      Exch-Disp20                   0.00222014 [mEh]       0.00139316 [kcal/mol]       0.00582897 [kJ/mol]
      Disp20 (SS)                  -1.73903449 [mEh]      -1.09126062 [kcal/mol]      -4.56583443 [kJ/mol]
      Disp20 (OS)                  -1.73903449 [mEh]      -1.09126062 [kcal/mol]      -4.56583443 [kJ/mol]
      Exch-Disp20 (SS)              0.00162536 [mEh]       0.00101993 [kcal/mol]       0.00426738 [kJ/mol]
      Exch-Disp20 (OS)              0.00059478 [mEh]       0.00037323 [kcal/mol]       0.00156160 [kJ/mol]

  Total HF                        -14.19710465 [mEh]      -8.90881767 [kcal/mol]     -37.27449312 [kJ/mol]
  Total SAPT0                     -17.67295349 [mEh]     -11.08994575 [kcal/mol]     -46.40033301 [kJ/mol]

  Special recipe for scaled SAPT0 (see Manual):
    Electrostatics sSAPT0          -9.76787720 [mEh]      -6.12943548 [kcal/mol]     -25.64555805 [kJ/mol]
    Exchange sSAPT0                 0.00243679 [mEh]       0.00152911 [kcal/mol]       0.00639780 [kJ/mol]
    Induction sSAPT0               -4.43166424 [mEh]      -2.78091130 [kcal/mol]     -11.63533287 [kJ/mol]
    Dispersion sSAPT0              -3.47584884 [mEh]      -2.18112808 [kcal/mol]      -9.12583988 [kJ/mol]
  Total sSAPT0                    -17.67295349 [mEh]     -11.08994575 [kcal/mol]     -46.40033301 [kJ/mol]
  --------------------------------------------------------------------------------------------------------

*** tstop() called on n2cn0668 at Sat Jan 27 09:02:45 2024
Module time:
	user time   =   79493.56 seconds =    1324.89 minutes
	system time =    4315.83 seconds =      71.93 minutes
	total time  =      26025 seconds =     433.75 minutes
Total time:
	user time   =  137566.36 seconds =    2292.77 minutes
	system time =    9212.92 seconds =     153.55 minutes
	total time  =      34924 seconds =     582.07 minutes

    Psi4 stopped on: Saturday, 27 January 2024 09:02AM
    Psi4 wall time for execution: 9:42:05.27

*** Psi4 exiting successfully. Buy a developer a beer!
