
    -----------------------------------------------------------------------
          Psi4: An Open-Source Ab Initio Electronic Structure Package
                               Psi4 1.9 release

                         Git: Rev {} zzzzzzz 


    D. G. A. Smith, L. A. Burns, A. C. Simmonett, R. M. Parrish,
    M. C. Schieber, R. Galvelis, P. Kraus, H. Kruse, R. Di Remigio,
    A. Alenaizan, A. M. James, S. Lehtola, J. P. Misiewicz, M. Scheurer,
    R. A. Shaw, J. B. Schriber, Y. Xie, Z. L. Glick, D. A. Sirianni,
    J. S. O'Brien, J. M. Waldrop, A. Kumar, E. G. Hohenstein,
    B. P. Pritchard, B. R. Brooks, H. F. Schaefer III, A. Yu. Sokolov,
    K. Patkowski, A. E. DePrince III, U. Bozkaya, R. A. King,
    F. A. Evangelista, J. M. Turney, T. D. Crawford, C. D. Sherrill,
    J. Chem. Phys. 152(18) 184108 (2020). https://doi.org/10.1063/5.0006002

                            Additional Code Authors
    E. T. Seidl, C. L. Janssen, E. F. Valeev, M. L. Leininger,
    J. F. Gonthier, R. M. Richard, H. R. McAlexander, M. Saitow, X. Wang,
    P. Verma, M. H. Lechner, A. Jiang, S. Behnle, A. G. Heide,
    M. F. Herbst, and D. L. Poole

             Previous Authors, Complete List of Code Contributors,
                       and Citations for Specific Modules
    https://github.com/psi4/psi4/blob/master/codemeta.json
    https://github.com/psi4/psi4/graphs/contributors
    http://psicode.org/psi4manual/master/introduction.html#citing-psifour

    -----------------------------------------------------------------------


    Psi4 started on: Thursday, 25 January 2024 04:13AM

    Process ID: 1684194
    Host:       n2cn1070
    PSIDATADIR: /opt/software/pc2/EB-SW/software/PSI4/1.9-foss-2022a/share/psi4
    Memory:     500.0 MiB
    Threads:    16
    
  ==> Input File <==

--------------------------------------------------------------------------
# PSI4 input file for a GDMA calculation
memory 48 GB

molecule c1c1im {
# charge and multiplicity
+1 1
# coordinates
C 0.6800666475098902 -0.008042421408921705 -1.2159290923021302
C -0.6805039847920868 -0.006014262721444302 -1.215545386383872
N -1.0856350298770807 -0.00501636011552646 0.10277881169180464
C 0.00010750016427530558 -0.0017399879845801784 0.8841799489644288
C -2.477365463888423 0.04438976558536872 0.5707577447726591
N 1.0852218514538425 -0.005016360115526417 0.10277881169180464
H 1.3851463087130615 -0.015869903510207273 -2.033367527477222
H -1.3853019994499363 -0.006204050263489404 -2.033213889837951
H -8.84602472033774e-06 7.33607782161081e-06 1.9652686463501035
C 2.4781169320504466 -0.02190845659185453 0.5678770278546844
H 2.490591524716471 0.005437115829508364 1.6581295168119912
H 2.967028487547803 -0.9353542359376904 0.22070095779147791
H 3.0014279902984438 0.8535752816165013 0.17640495545758325
H -2.857359035964144 1.066460626152431 0.4907988694633358
H -3.0826792548368105 -0.6256944328101225 -0.04230568637516852
H -2.5181276895949396 -0.2825941259250483 1.6107057534311164

# additional options
units angstrom
no_reorient
symmetry c1
}

# calculation options
set {
scf_type DF         # Density fitting, faster than exact integrals
freeze_core True    # Freeze core electrons
basis jun-cc-pVDZ   # Jun-cc-pVDZ basis set, recommended for sSAPT0 in https://doi.org/10.1063/1.4867135
}

# call gdma routine
energy, wfn = energy('scf', return_wfn=True)
fchk(wfn, filename='gdma.fchk')
gdma(wfn, datafile='gdma.dma')
print(variable('DMA DISTRIBUTED MULTIPOLES'))
print(variable('DMA TOTAL MULTIPOLES'))
--------------------------------------------------------------------------

  Memory set to  44.703 GiB by Python driver.

Scratch directory: /tmp/
   => Libint2 <=

    Primary   basis highest AM E, G, H:  5, 4, 3
    Auxiliary basis highest AM E, G, H:  6, 5, 4
    Onebody   basis highest AM E, G, H:  6, 5, 4
    Solid Harmonics ordering:            gaussian

*** tstart() called on n2cn1070
*** at Thu Jan 25 04:13:48 2024

   => Loading Basis Set <=

    Name: JUN-CC-PVDZ
    Role: ORBITAL
    Keyword: BASIS
    atoms 1-2, 4-5, 10 entry C          line   164 file /opt/software/pc2/EB-SW/software/PSI4/1.9-foss-2022a/share/psi4/basis/jun-cc-pvdz.gbs 
    atoms 3, 6         entry N          line   198 file /opt/software/pc2/EB-SW/software/PSI4/1.9-foss-2022a/share/psi4/basis/jun-cc-pvdz.gbs 
    atoms 7-9, 11-16   entry H          line    36 file /opt/software/pc2/EB-SW/software/PSI4/1.9-foss-2022a/share/psi4/basis/jun-cc-pvdz.gbs 


         ---------------------------------------------------------
                                   SCF
               by Justin Turney, Rob Parrish, Andy Simmonett
                          and Daniel G. A. Smith
                              RHF Reference
                       16 Threads,  45776 MiB Core
         ---------------------------------------------------------

  ==> Geometry <==

    Molecular point group: c1
    Full point group: C1

    Geometry (in Angstrom), charge = 1, multiplicity = 1:

       Center              X                  Y                   Z               Mass       
    ------------   -----------------  -----------------  -----------------  -----------------
         C            0.680066679400    -0.008041988576    -1.215964073597    12.000000000000
         C           -0.680503952902    -0.006013829889    -1.215580367679    12.000000000000
         N           -1.085634997987    -0.005015927283     0.102743830397    14.003074004430
         C            0.000107532054    -0.001739555152     0.884144967669    12.000000000000
         C           -2.477365431999     0.044390198418     0.570722763477    12.000000000000
         N            1.085221883344    -0.005015927283     0.102743830397    14.003074004430
         H            1.385146340603    -0.015869470678    -2.033402508772     1.007825032230
         H           -1.385301967560    -0.006203617431    -2.033248871133     1.007825032230
         H           -0.000008814135     0.000007768910     1.965233665055     1.007825032230
         C            2.478116963940    -0.021908023759     0.567842046559    12.000000000000
         H            2.490591556606     0.005437548662     1.658094535517     1.007825032230
         H            2.967028519438    -0.935353803105     0.220665976496     1.007825032230
         H            3.001428022188     0.853575714449     0.176369974162     1.007825032230
         H           -2.857359004074     1.066461058985     0.490763888168     1.007825032230
         H           -3.082679222947    -0.625693999978    -0.042340667670     1.007825032230
         H           -2.518127657705    -0.282593693092     1.610670772136     1.007825032230

  Running in c1 symmetry.

  Rotational constants: A =      0.22748  B =      0.06826  C =      0.05358 [cm^-1]
  Rotational constants: A =   6819.72978  B =   2046.26330  C =   1606.38728 [MHz]
  Nuclear repulsion =  306.774905026387955

  Charge       = 1
  Multiplicity = 1
  Electrons    = 52
  Nalpha       = 26
  Nbeta        = 26

  ==> Algorithm <==

  SCF Algorithm Type is DF.
  DIIS enabled.
  MOM disabled.
  Fractional occupation disabled.
  Guess Type is SAD.
  Energy threshold   = 1.00e-06
  Density threshold  = 1.00e-06
  Integral threshold = 1.00e-12

  ==> Primary Basis <==

  Basis Set: JUN-CC-PVDZ
    Blend: JUN-CC-PVDZ
    Number of shells: 83
    Number of basis functions: 171
    Number of Cartesian functions: 178
    Spherical Harmonics?: true
    Max angular momentum: 2

   => Loading Basis Set <=

    Name: (JUN-CC-PVDZ AUX)
    Role: JKFIT
    Keyword: DF_BASIS_SCF
    atoms 1-2, 4-5, 10 entry C          line   146 file /opt/software/pc2/EB-SW/software/PSI4/1.9-foss-2022a/share/psi4/basis/jun-cc-pvdz-jkfit.gbs 
    atoms 3, 6         entry N          line   202 file /opt/software/pc2/EB-SW/software/PSI4/1.9-foss-2022a/share/psi4/basis/jun-cc-pvdz-jkfit.gbs 
    atoms 7-9, 11-16   entry H          line    70 file /opt/software/pc2/EB-SW/software/PSI4/1.9-foss-2022a/share/psi4/basis/jun-cc-pvdz-jkfit.gbs 

  ==> Integral Setup <==

  DFHelper Memory: AOs need 0.174 GiB; user supplied 33.528 GiB. 
  Using in-core AOs.

  ==> MemDFJK: Density-Fitted J/K Matrices <==

    J tasked:                   Yes
    K tasked:                   Yes
    wK tasked:                   No
    OpenMP threads:              16
    Memory [MiB]:             34332
    Algorithm:                 Core
    Schwarz Cutoff:           1E-12
    Mask sparsity (%):       2.3460
    Fitting Condition:        1E-10

   => Auxiliary Basis Set <=

  Basis Set: (JUN-CC-PVDZ AUX)
    Blend: JUN-CC-PVDZ-JKFIT
    Number of shells: 270
    Number of basis functions: 760
    Number of Cartesian functions: 862
    Spherical Harmonics?: true
    Max angular momentum: 3

  Minimum eigenvalue in the overlap matrix is 6.3174358976E-05.
  Reciprocal condition number of the overlap matrix is 5.6454417219E-06.
    Using symmetric orthogonalization.

  ==> Pre-Iterations <==

  SCF Guess: Superposition of Atomic Densities via on-the-fly atomic UHF (no occupation information).

   -------------------------
    Irrep   Nso     Nmo    
   -------------------------
     A        171     171 
   -------------------------
    Total     171     171
   -------------------------

  ==> Iterations <==

                           Total Energy        Delta E     RMS |[F,P]|

   @DF-RHF iter SAD:  -303.36533821680212   -3.03365e+02   0.00000e+00 
   @DF-RHF iter   1:  -303.16938533423820    1.95953e-01   2.45210e-03 ADIIS/DIIS
   @DF-RHF iter   2:  -303.28370750714686   -1.14322e-01   8.25794e-04 ADIIS/DIIS
   @DF-RHF iter   3:  -303.29514588401929   -1.14384e-02   3.23477e-04 ADIIS/DIIS
   @DF-RHF iter   4:  -303.29704851907866   -1.90264e-03   7.06226e-05 DIIS
   @DF-RHF iter   5:  -303.29715418616945   -1.05667e-04   1.71766e-05 DIIS
   @DF-RHF iter   6:  -303.29716342416964   -9.23800e-06   4.66358e-06 DIIS
   @DF-RHF iter   7:  -303.29716449619957   -1.07203e-06   2.36637e-06 DIIS
   @DF-RHF iter   8:  -303.29716474822459   -2.52025e-07   9.51856e-07 DIIS
  Energy and wave function converged.


  ==> Post-Iterations <==

    Orbital Energies [Eh]
    ---------------------

    Doubly Occupied:                                                      

       1A    -15.834667     2A    -15.834128     3A    -11.529548  
       4A    -11.459876     5A    -11.458323     6A    -11.449667  
       7A    -11.449551     8A     -1.578242     9A     -1.433832  
      10A     -1.238679    11A     -1.189313    12A     -1.118872  
      13A     -1.022543    14A     -0.996975    15A     -0.917054  
      16A     -0.850523    17A     -0.816266    18A     -0.813209  
      19A     -0.790142    20A     -0.786230    21A     -0.781786  
      22A     -0.729709    23A     -0.725787    24A     -0.717100  
      25A     -0.596302    26A     -0.523867  

    Virtual:                                                              

      27A     -0.069057    28A     -0.061565    29A     -0.054098  
      30A     -0.047478    31A     -0.031046    32A     -0.028440  
      33A     -0.025405    34A     -0.024002    35A     -0.004943  
      36A     -0.000235    37A      0.002058    38A      0.003671  
      39A      0.009627    40A      0.023513    41A      0.035109  
      42A      0.054223    43A      0.070249    44A      0.078680  
      45A      0.083428    46A      0.096422    47A      0.101769  
      48A      0.119242    49A      0.126652    50A      0.128156  
      51A      0.139974    52A      0.142041    53A      0.155990  
      54A      0.160466    55A      0.172195    56A      0.181527  
      57A      0.189445    58A      0.190176    59A      0.192933  
      60A      0.200185    61A      0.222863    62A      0.230503  
      63A      0.259623    64A      0.266842    65A      0.269334  
      66A      0.281530    67A      0.319787    68A      0.339154  
      69A      0.387423    70A      0.428265    71A      0.437454  
      72A      0.503685    73A      0.559718    74A      0.599674  
      75A      0.623157    76A      0.642698    77A      0.646562  
      78A      0.655386    79A      0.664696    80A      0.681172  
      81A      0.688982    82A      0.693968    83A      0.707627  
      84A      0.717058    85A      0.734697    86A      0.737668  
      87A      0.747098    88A      0.773684    89A      0.775282  
      90A      0.809210    91A      0.815583    92A      0.843689  
      93A      0.881829    94A      0.900039    95A      0.938741  
      96A      0.946835    97A      0.964382    98A      0.971870  
      99A      1.009334   100A      1.028813   101A      1.064843  
     102A      1.094784   103A      1.102323   104A      1.125109  
     105A      1.137990   106A      1.149381   107A      1.160571  
     108A      1.260193   109A      1.268851   110A      1.316642  
     111A      1.343558   112A      1.421145   113A      1.461937  
     114A      1.477478   115A      1.502734   116A      1.515200  
     117A      1.561416   118A      1.602954   119A      1.618605  
     120A      1.659380   121A      1.668446   122A      1.679332  
     123A      1.685633   124A      1.728238   125A      1.744044  
     126A      1.747479   127A      1.755100   128A      1.776086  
     129A      1.802214   130A      1.806681   131A      1.815804  
     132A      1.841686   133A      1.854702   134A      1.866088  
     135A      1.892295   136A      1.895012   137A      1.942105  
     138A      1.964051   139A      2.002584   140A      2.038810  
     141A      2.064455   142A      2.082035   143A      2.134012  
     144A      2.136977   145A      2.154738   146A      2.198252  
     147A      2.221745   148A      2.244916   149A      2.292085  
     150A      2.317530   151A      2.330454   152A      2.435909  
     153A      2.453706   154A      2.494752   155A      2.568034  
     156A      2.600233   157A      2.630524   158A      2.655831  
     159A      2.666603   160A      2.672301   161A      2.682299  
     162A      2.700545   163A      2.732316   164A      2.742839  
     165A      2.780007   166A      2.912418   167A      2.971253  
     168A      3.040440   169A      3.059502   170A      3.434404  
     171A      3.522604  

    Final Occupation by Irrep:
              A 
    DOCC [    26 ]
    NA   [    26 ]
    NB   [    26 ]

  @DF-RHF Final Energy:  -303.29716474822459

   => Energetics <=

    Nuclear Repulsion Energy =            306.7749050263879553
    One-Electron Energy =               -1006.8599888458660416
    Two-Electron Energy =                 396.7879190712534978
    Total Energy =                       -303.2971647482245885

Computation Completed


Properties will be evaluated at   0.000000,   0.000000,   0.000000 [a0]

Properties computed using the SCF density matrix


 Multipole Moments:

 ------------------------------------------------------------------------------------
     Multipole            Electronic (a.u.)      Nuclear  (a.u.)        Total (a.u.)
 ------------------------------------------------------------------------------------

 L = 1.  Multiply by 2.5417464519 to convert [e a0] to [Debye]
 Dipole X            :         -0.0008209            0.0006741           -0.0001468
 Dipole Y            :         -0.0473584            0.0560594            0.0087009
 Dipole Z            :         -1.4320153            1.8863481            0.4543327
 Magnitude           :                                                    0.4544161

 ------------------------------------------------------------------------------------

*** tstop() called on n2cn1070 at Thu Jan 25 04:13:55 2024
Module time:
	user time   =      10.91 seconds =       0.18 minutes
	system time =       0.74 seconds =       0.01 minutes
	total time  =          7 seconds =       0.12 minutes
Total time:
	user time   =      10.91 seconds =       0.18 minutes
	system time =       0.74 seconds =       0.01 minutes
	total time  =          7 seconds =       0.12 minutes
FCHKWriter: !WARNING! method 'HF'' renamed to label 'HF'.
FCHKWriter: Writing gdma.fchk with label ' SCF Density'.
                                     G D M A
                                 by Anthony Stone

               Distributed Multipoles from Gaussian wavefunctions

                             version 2.3.3 (c2e0b548)
              Compiled with mpifort on 24 January 2024 at 16:35:26

Starting at 04:13:55 on 25 Jan 2024 

GDMA calculation



Using SCF density matrix from file gdma.fchk


                         Distributed Multipole Analysis

Standard DMA for products of primitives with exponent greater than 4.00000
Using 80-point Euler-MacLaurin radial quadrature
Using 590-point Lebedev quadrature
Becke smoothing parameter = 3

Positions and radii in angstrom
Multipole moments in atomic units, ea_0^k for rank k

C          x =  0.680067  y = -0.008042  z = -1.215964 angstrom
           Maximum rank = 10   Radius =  0.650 angstrom
                   Q00  =   0.020300
|Q1| =   0.216945  Q10  =   0.216373  Q11c =  -0.015719  Q11s =  -0.000895
|Q2| =   1.209516  Q20  =   0.626584  Q21c =  -0.149787  Q21s =   0.008588
                   Q22c =   1.023611  Q22s =  -0.005693
|Q3| =   1.534002  Q30  =  -0.114322  Q31c =   1.154953  Q31s =  -0.009947
                   Q32c =  -0.783829  Q32s =   0.010914  Q33c =  -0.625752
                   Q33s =  -0.002380
|Q4| =   1.800090  Q40  =  -1.283357  Q41c =  -0.755843  Q41s =  -0.009051
                   Q42c =   0.109912  Q42s =  -0.016378  Q43c =   0.377586
                   Q43s =  -0.005805  Q44c =  -0.930971  Q44s =  -0.016655
|Q5| =   6.911923  Q50  =   1.227289  Q51c =  -2.136643  Q51s =   0.050321
                   Q52c =   1.485590  Q52s =  -0.063388  Q53c =  -3.072126
                   Q53s =   0.091842  Q54c =   2.707358  Q54s =  -0.067510
                   Q55c =   4.763424  Q55s =  -0.136859
|Q6| =  15.833867  Q60  =   8.240623  Q61c =   0.710183  Q61s =   0.138677
                   Q62c =  -4.129582  Q62s =   0.216197  Q63c =  10.173359
                   Q63s =  -0.236833  Q64c =  -5.513296  Q64s =   0.413248
                   Q65c =  -2.783317  Q65s =  -0.098350  Q66c =   4.819535
                   Q66s =  -0.273403
|Q7| =  50.071785  Q70  = -19.304800  Q71c =  23.064305  Q71s =  -0.627504
                   Q72c =  -6.112621  Q72s =   0.643735  Q73c =  -5.231201
                   Q73s =  -0.052939  Q74c =  -6.702018  Q74s =   1.052621
                   Q75c =   9.694093  Q75s =  -0.130577  Q76c = -18.821799
                   Q76s =   0.974505  Q77c = -32.274826  Q77s =   0.337526
|Q8| = 231.316682  Q80  = -44.423132  Q81c = -53.404749  Q81s =  -3.116136
                   Q82c =  -7.855177  Q82s =  -3.429804  Q83c = -71.748333
                   Q83s =   0.777512  Q84c =  68.958767  Q84s =  -8.122293
                   Q85c =-182.789865  Q85s =   8.840294  Q86c =  26.506698
                   Q86s =  -2.156226  Q87c =  11.843784  Q87s =   2.236091
                   Q88c = -65.375296  Q88s =   3.506032
|Q9| =  1.080E+03  Q90  =  2.959E+02  Q91c = -3.764E+01  Q91s =  1.746E+01
                   Q92c =  3.477E+02  Q92s = -1.512E+01  Q93c =  2.326E+02
                   Q93s = -5.467E+00  Q94c = -2.176E+02  Q94s = -5.245E+00
                   Q95c =  7.723E+02  Q95s = -3.363E+01  Q96c = -1.597E+02
                   Q96s = -2.897E+01  Q97c = -2.748E+02  Q97s =  2.942E+01
                   Q98c =  2.904E+02  Q98s = -3.298E+01  Q99c =  2.631E+02
                   Q99s =  1.789E+01
|QA| =  6.919E+03  QA0  =  5.135E+02  QA1c =  7.831E+02  QA1s =  9.536E+01
                   QA2c = -2.013E+01  QA2s =  1.394E+02  QA3c =  1.558E+03
                   QA3s =  8.194E+01  QA4c =  2.614E+03  QA4s =  8.094E+01
                   QA5c =  3.890E+02  QA5s = -2.263E+01  QA6c =  2.252E+03
                   QA6s =  1.802E+02  QA7c =  5.288E+03  QA7s = -3.646E+02
                   QA8c =  4.165E+02  QA8s =  4.910E+01  QA9c = -4.510E+02
                   QA9s = -1.038E+02  QAAc =  1.988E+03  QAAs =  1.449E+01

C          x = -0.680504  y = -0.006014  z = -1.215580 angstrom
           Maximum rank = 10   Radius =  0.650 angstrom
                   Q00  =   0.021577
|Q1| =   0.216657  Q10  =   0.215988  Q11c =   0.016865  Q11s =   0.002171
|Q2| =   1.202118  Q20  =   0.626253  Q21c =   0.150020  Q21s =   0.004745
                   Q22c =   1.014963  Q22s =  -0.014656
|Q3| =   1.546902  Q30  =  -0.113314  Q31c =  -1.157288  Q31s =  -0.007660
                   Q32c =  -0.783022  Q32s =  -0.007316  Q33c =   0.652774
                   Q33s =   0.037425
|Q4| =   1.849482  Q40  =  -1.276621  Q41c =   0.755251  Q41s =  -0.025624
                   Q42c =   0.138266  Q42s =   0.049814  Q43c =  -0.368036
                   Q43s =   0.029508  Q44c =  -1.021301  Q44s =  -0.137065
|Q5| =   6.629452  Q50  =   1.230042  Q51c =   2.134782  Q51s =   0.021980
                   Q52c =   1.498583  Q52s =   0.045485  Q53c =   2.919124
                   Q53s =  -0.259171  Q54c =   2.609604  Q54s =  -0.192887
                   Q55c =  -4.461757  Q55s =   0.536712
|Q6| =  15.634991  Q60  =   8.211407  Q61c =  -0.734588  Q61s =  -0.074244
                   Q62c =  -4.242994  Q62s =  -0.261259  Q63c = -10.321835
                   Q63s =  -0.387809  Q64c =  -4.892159  Q64s =   0.842614
                   Q65c =   3.108626  Q65s =   0.566001  Q66c =   3.938168
                   Q66s =  -1.257926
|Q7| =  52.442266  Q70  = -19.552165  Q71c = -23.123329  Q71s =  -0.048151
                   Q72c =  -6.337096  Q72s =   0.056752  Q73c =   5.544975
                   Q73s =   0.950882  Q74c =  -5.970704  Q74s =   3.024323
                   Q75c = -11.988975  Q75s =  -2.510103  Q76c = -18.745619
                   Q76s =   0.372779  Q77c =  34.853840  Q77s =   0.491073
|Q8| = 235.686186  Q80  = -46.508637  Q81c =  54.725885  Q81s =   4.107247
                   Q82c = -10.587714  Q82s =   1.863097  Q83c =  76.198846
                   Q83s =   8.193020  Q84c =  66.398867  Q84s =   1.077661
                   Q85c = 182.246568  Q85s =  -7.112488  Q86c =  32.637702
                   Q86s =  12.946233  Q87c = -15.370099  Q87s =  -4.912850
                   Q88c = -71.988180  Q88s =   5.856946
|Q9| =  1.064E+03  Q90  =  3.149E+02  Q91c =  4.527E+01  Q91s =  2.059E+01
                   Q92c =  3.685E+02  Q92s = -9.600E+00  Q93c = -2.113E+02
                   Q93s =  1.394E+01  Q94c = -2.377E+02  Q94s = -6.442E+01
                   Q95c = -7.293E+02  Q95s =  4.964E+00  Q96c = -1.712E+02
                   Q96s = -3.157E+01  Q97c =  2.759E+02  Q97s = -7.314E+01
                   Q98c =  2.682E+02  Q98s = -1.744E+01  Q99c = -2.680E+02
                   Q99s = -4.353E+01
|QA| =  6.987E+03  QA0  =  6.038E+02  QA1c = -8.989E+02  QA1s = -1.390E+02
                   QA2c =  8.556E+01  QA2s = -1.599E+02  QA3c = -1.830E+03
                   QA3s = -1.637E+02  QA4c =  2.715E+03  QA4s = -3.049E+02
                   QA5c = -5.742E+02  QA5s =  8.351E+01  QA6c =  2.026E+03
                   QA6s = -4.497E+02  QA7c = -5.224E+03  QA7s =  2.401E+02
                   QA8c =  3.480E+02  QA8s = -2.979E+00  QA9c =  8.468E+02
                   QA9s =  9.006E+01  QAAc =  1.948E+03  QAAs =  3.397E+02

N          x = -1.085635  y = -0.005016  z =  0.102744 angstrom
           Maximum rank = 10   Radius =  0.650 angstrom
                   Q00  =  -0.184283
|Q1| =   0.173346  Q10  =  -0.044356  Q11c =   0.167287  Q11s =   0.009820
|Q2| =   1.199047  Q20  =   0.431567  Q21c =  -0.084707  Q21s =   0.014538
                   Q22c =   1.115077  Q22s =  -0.026073
|Q3| =   1.372350  Q30  =  -0.929276  Q31c =   0.728660  Q31s =   0.107749
                   Q32c =   0.650248  Q32s =   0.022136  Q33c =  -0.208024
                   Q33s =   0.103199
|Q4| =   1.118339  Q40  =   0.043624  Q41c =   0.619893  Q41s =   0.269751
                   Q42c =  -0.358606  Q42s =  -0.302157  Q43c =   0.032783
                   Q43s =  -0.130599  Q44c =  -0.660062  Q44s =  -0.343565
|Q5| =   4.117006  Q50  =   0.955121  Q51c =  -0.340318  Q51s =  -0.209970
                   Q52c =   2.257475  Q52s =  -0.785768  Q53c =  -1.390548
                   Q53s =   0.053134  Q54c =  -2.805145  Q54s =   0.279180
                   Q55c =   0.521860  Q55s =   0.091574
|Q6| =  10.608973  Q60  =  -5.014910  Q61c =   5.501453  Q61s =  -1.261586
                   Q62c =  -2.155096  Q62s =  -0.043010  Q63c =  -5.131485
                   Q63s =  -0.631224  Q64c =  -2.123316  Q64s =   0.723390
                   Q65c =   3.200719  Q65s =  -0.909560  Q66c =  -1.511128
                   Q66s =   2.404029
|Q7| =  26.112557  Q70  =  -1.786655  Q71c =   4.954937  Q71s =  -2.781075
                   Q72c = -13.759470  Q72s =   0.370559  Q73c =   2.225456
                   Q73s =  -1.175403  Q74c =  -8.007194  Q74s =   6.078606
                   Q75c =   4.239502  Q75s =   2.869528  Q76c =  16.903064
                   Q76s =   2.881072  Q77c =  -5.369882  Q77s =  -0.686440
|Q8| = 104.035001  Q80  =  17.951955  Q81c =  -5.897880  Q81s =   4.939596
                   Q82c =  54.728622  Q82s =   7.766687  Q83c = -35.501429
                   Q83s =   9.972588  Q84c =  -9.641986  Q84s =  10.362380
                   Q85c =  47.618502  Q85s =  -0.321053  Q86c =   9.710094
                   Q86s = -13.632219  Q87c = -52.537530  Q87s =   3.353130
                   Q88c =  -1.950181  Q88s = -22.430850
|Q9| = 420.519435  Q90  =  62.209442  Q91c = 143.921573  Q91s =  31.527855
                   Q92c =  84.298465  Q92s = -10.465724  Q93c = -61.998576
                   Q93s =  20.616252  Q94c = 236.680131  Q94s = -24.337929
                   Q95c =  58.114773  Q95s =  12.350716  Q96c = 128.859712
                   Q96s = -28.316065  Q97c = -11.383679  Q97s =   3.391114
                   Q98c =-116.081104  Q98s = -29.659697  Q99c = 217.623117
                   Q99s = -19.308026
|QA| =  3.465E+03  QA0  =  3.116E+02  QA1c =  8.183E+01  QA1s = -2.191E+02
                   QA2c =  4.089E+01  QA2s =  7.486E+01  QA3c =  3.721E+02
                   QA3s = -1.271E+02  QA4c =  1.899E+02  QA4s = -3.574E+01
                   QA5c =  2.525E+02  QA5s = -4.733E+01  QA6c =  1.336E+03
                   QA6s = -1.841E+02  QA7c = -9.105E+02  QA7s = -1.231E+02
                   QA8c =  1.346E+03  QA8s = -2.594E+02  QA9c =  8.325E+02
                   QA9s =  1.019E+02  QAAc =  2.380E+03  QAAs = -8.246E+02

C          x =  0.000108  y = -0.001740  z =  0.884145 angstrom
           Maximum rank = 10   Radius =  0.650 angstrom
                   Q00  =   0.164840
|Q1| =   0.218983  Q10  =  -0.218959  Q11c =  -0.002237  Q11s =   0.002313
|Q2| =   0.823138  Q20  =   0.462697  Q21c =  -0.007009  Q21s =   0.011597
                   Q22c =   0.680476  Q22s =  -0.015367
|Q3| =   1.344931  Q30  =   1.187201  Q31c =  -0.011180  Q31s =   0.000885
                   Q32c =  -0.630133  Q32s =  -0.037366  Q33c =  -0.012164
                   Q33s =   0.025588
|Q4| =   2.167795  Q40  =   1.776189  Q41c =   0.008023  Q41s =  -0.040424
                   Q42c =  -1.187656  Q42s =  -0.029979  Q43c =  -0.038740
                   Q43s =   0.110658  Q44c =  -0.338201  Q44s =  -0.056927
|Q5| =   3.454077  Q50  =  -0.399449  Q51c =   0.172230  Q51s =  -0.209156
                   Q52c =  -2.393917  Q52s =   0.192863  Q53c =   0.064039
                   Q53s =   0.202197  Q54c =   2.402639  Q54s =  -0.304769
                   Q55c =  -0.027706  Q55s =   0.135393
|Q6| =  15.436613  Q60  = -14.664413  Q61c =   0.585117  Q61s =  -0.279015
                   Q62c =  -1.304052  Q62s =   1.254277  Q63c =   0.659707
                   Q63s =  -0.366871  Q64c =   4.335150  Q64s =  -0.146563
                   Q65c =   0.124124  Q65s =   0.164350  Q66c =  -0.299646
                   Q66s =  -0.181688
|Q7| =  46.200323  Q70  = -32.861999  Q71c =  -0.362491  Q71s =   2.423542
                   Q72c =  24.851914  Q72s =   1.236968  Q73c =   0.095641
                   Q73s =  -2.005198  Q74c =  13.140188  Q74s =   1.735346
                   Q75c =   1.148914  Q75s =  -1.835990  Q76c = -15.344737
                   Q76s =   1.236096  Q77c =   2.526484  Q77s =  -1.279600
|Q8| = 153.700111  Q80  =  32.956755  Q81c = -10.509554  Q81s =   8.700254
                   Q82c = 133.221057  Q82s = -15.018285  Q83c = -13.376426
                   Q83s =  -0.002838  Q84c =  -7.705507  Q84s =  -1.593540
                   Q85c =   3.660567  Q85s =  -4.645655  Q86c = -47.296950
                   Q86s =   4.770037  Q87c =  10.942526  Q87s =   0.912810
                   Q88c = -39.703761  Q88s =  12.062003
|Q9| = 783.477205  Q90  = 535.460938  Q91c = -27.144428  Q91s = -31.032023
                   Q92c = 395.062258  Q92s = -39.032247  Q93c = -39.746592
                   Q93s =   8.265075  Q94c =-262.356705  Q94s =  -3.455685
                   Q95c =  11.608710  Q95s =   6.839417  Q96c =-200.852276
                   Q96s =  11.117839  Q97c =  -1.072923  Q97s =  26.831102
                   Q98c = 225.990598  Q98s = -12.358626  Q99c = -30.703531
                   Q99s = -61.599373
|QA| =  3.964E+03  QA0  =  1.706E+03  QA1c =  1.470E+02  QA1s = -1.275E+02
                   QA2c =  1.307E+02  QA2s =  3.163E+02  QA3c =  2.473E+02
                   QA3s =  1.178E+01  QA4c = -1.242E+03  QA4s =  2.971E+02
                   QA5c =  1.156E+02  QA5s = -5.800E+01  QA6c =  5.903E+02
                   QA6s =  9.037E+01  QA7c = -2.297E+02  QA7s = -1.572E+02
                   QA8c =  3.049E+03  QA8s = -1.418E+02  QA9c =  5.328E+01
                   QA9s = -5.596E+02  QAAc =  8.663E+02  QAAs =  3.570E+02

C          x = -2.477365  y =  0.044390  z =  0.570723 angstrom
           Maximum rank = 10   Radius =  0.650 angstrom
                   Q00  =   0.025153
|Q1| =   0.157538  Q10  =  -0.046067  Q11c =   0.149765  Q11s =  -0.016324
|Q2| =   0.313841  Q20  =  -0.112369  Q21c =  -0.172643  Q21s =   0.001251
                   Q22c =   0.236586  Q22s =  -0.009451
|Q3| =   2.204495  Q30  =   1.155380  Q31c =  -0.029042  Q31s =  -1.323755
                   Q32c =  -0.027317  Q32s =  -0.574479  Q33c =   1.070702
                   Q33s =  -0.542727
|Q4| =   2.642879  Q40  =   0.678523  Q41c =  -1.249895  Q41s =  -1.045583
                   Q42c =   0.400482  Q42s =   1.278956  Q43c =  -0.432463
                   Q43s =   0.738838  Q44c =  -0.551242  Q44s =   1.017864
|Q5| =   3.629731  Q50  =   1.490710  Q51c =   1.104849  Q51s =  -0.429293
                   Q52c =  -1.704482  Q52s =  -1.461538  Q53c =   0.452708
                   Q53s =   0.345497  Q54c =   1.105687  Q54s =   0.299593
                   Q55c =  -1.553291  Q55s =   0.676069
|Q6| =  16.590339  Q60  =   1.180340  Q61c =   0.504264  Q61s =  11.336029
                   Q62c =   5.079823  Q62s =   5.873588  Q63c =   2.922610
                   Q63s =   2.793852  Q64c =   3.843679  Q64s =   5.155389
                   Q65c =   0.313197  Q65s =   3.342725  Q66c =  -1.848279
                   Q66s =   3.520718
|Q7| =  57.245195  Q70  =   3.480761  Q71c =  17.020049  Q71s =  29.015856
                   Q72c =  -1.632270  Q72s = -24.192523  Q73c = -14.844769
                   Q73s =  -8.157082  Q74c =   4.961726  Q74s =   7.244675
                   Q75c = -20.848729  Q75s = -11.047839  Q76c =  -5.599034
                   Q76s = -10.091471  Q77c =   5.493594  Q77s = -21.476784
|Q8| =  59.966784  Q80  =   0.961783  Q81c =  13.335982  Q81s =  -9.081646
                   Q82c =  -7.172692  Q82s =  36.774647  Q83c =  26.243105
                   Q83s =  -2.488207  Q84c =   5.737404  Q84s =  17.586702
                   Q85c = -10.710790  Q85s =  -5.652461  Q86c = -12.051186
                   Q86s = -13.887768  Q87c =   2.133192  Q87s = -17.020846
                   Q88c =  -9.454237  Q88s =  -5.042504
|Q9| = 583.068300  Q90  =-222.075382  Q91c =-111.431788  Q91s =   6.637377
                   Q92c =-260.747853  Q92s =  34.305483  Q93c =-212.000909
                   Q93s =-104.949110  Q94c =-240.032493  Q94s =  28.604997
                   Q95c =-208.917333  Q95s =   5.471836  Q96c =-164.284148
                   Q96s = -91.136433  Q97c =   3.038887  Q97s =   7.039810
                   Q98c = -80.672124  Q98s =  -4.631920  Q99c = -22.588776
                   Q99s =  92.526747
|QA| =  3.056E+03  QA0  = -1.528E+03  QA1c = -1.911E+02  QA1s = -9.667E+02
                   QA2c = -6.286E+02  QA2s =  2.809E+02  QA3c =  2.712E+02
                   QA3s =  2.831E+02  QA4c =  5.780E+01  QA4s = -8.020E+02
                   QA5c =  3.438E+02  QA5s =  5.063E+02  QA6c =  8.566E+02
                   QA6s = -7.942E+02  QA7c =  3.816E+02  QA7s =  3.545E+01
                   QA8c =  1.023E+03  QA8s =  2.214E+02  QA9c =  4.311E+02
                   QA9s =  5.894E+02  QAAc =  5.700E+02  QAAs =  9.599E+02

N          x =  1.085222  y = -0.005016  z =  0.102744 angstrom
           Maximum rank = 10   Radius =  0.650 angstrom
                   Q00  =  -0.183077
|Q1| =   0.172343  Q10  =  -0.043512  Q11c =  -0.166723  Q11s =  -0.003502
|Q2| =   1.197628  Q20  =   0.430475  Q21c =   0.084762  Q21s =   0.000951
                   Q22c =   1.114296  Q22s =  -0.012756
|Q3| =   1.366363  Q30  =  -0.972767  Q31c =  -0.711744  Q31s =  -0.011494
                   Q32c =   0.599988  Q32s =  -0.007769  Q33c =   0.231369
                   Q33s =  -0.019569
|Q4| =   0.984954  Q40  =  -0.091949  Q41c =  -0.692473  Q41s =  -0.024609
                   Q42c =  -0.385649  Q42s =  -0.029195  Q43c =  -0.222854
                   Q43s =   0.015682  Q44c =  -0.529584  Q44s =  -0.040116
|Q5| =   4.085894  Q50  =   0.989903  Q51c =   0.034213  Q51s =   0.062100
                   Q52c =   2.335347  Q52s =  -0.089158  Q53c =   1.149933
                   Q53s =   0.010869  Q54c =  -2.962716  Q54s =   0.124299
                   Q55c =  -0.362349  Q55s =   0.030146
|Q6| =   9.615944  Q60  =  -4.191307  Q61c =  -5.829269  Q61s =   0.149226
                   Q62c =  -1.223955  Q62s =  -0.050794  Q63c =   4.813439
                   Q63s =   0.004214  Q64c =  -1.599459  Q64s =   0.103558
                   Q65c =  -3.012110  Q65s =   0.212688  Q66c =  -2.076798
                   Q66s =   0.476130
|Q7| =  21.229297  Q70  =   2.277091  Q71c =  -4.636912  Q71s =   0.312254
                   Q72c =  -9.868912  Q72s =  -0.000971  Q73c =   1.371377
                   Q73s =  -0.076657  Q74c =  -9.768618  Q74s =   0.950201
                   Q75c =   1.880320  Q75s =  -0.668244  Q76c =  13.910746
                   Q76s =  -0.125640  Q77c =   5.533042  Q77s =  -0.409096
|Q8| = 104.180667  Q80  =  19.839678  Q81c =  15.306745  Q81s =   0.167952
                   Q82c =  53.232848  Q82s =   1.687959  Q83c =  56.422759
                   Q83s =  -2.312923  Q84c = -11.303584  Q84s =   2.402256
                   Q85c = -42.833528  Q85s =   0.760260  Q86c =  20.752691
                   Q86s =  -3.495383  Q87c =  40.295219  Q87s =  -2.312325
                   Q88c =  10.720523  Q88s =  -6.671384
|Q9| = 361.484339  Q90  =  17.324708  Q91c =-134.930039  Q91s =  -1.235759
                   Q92c =  32.753681  Q92s =   0.906063  Q93c =  70.909099
                   Q93s =  -0.412015  Q94c = 205.552014  Q94s =  -5.003332
                   Q95c = -68.886726  Q95s =   2.120290  Q96c = 120.013464
                   Q96s = -12.039456  Q97c =  17.817447  Q97s =  -1.669174
                   Q98c = -95.864824  Q98s =  -8.084398  Q99c =-185.854075
                   Q99s =  19.212424
|QA| =  3.681E+03  QA0  =  2.023E+02  QA1c = -4.544E+01  QA1s =  2.513E+01
                   QA2c = -1.275E+02  QA2s =  1.343E+01  QA3c = -4.125E+02
                   QA3s =  3.363E+01  QA4c =  2.622E+01  QA4s =  1.963E+01
                   QA5c = -5.484E+02  QA5s =  7.736E+01  QA6c =  1.322E+03
                   QA6s = -2.432E+01  QA7c =  6.087E+02  QA7s =  6.807E+01
                   QA8c =  1.501E+03  QA8s = -2.171E+01  QA9c = -8.352E+02
                   QA9s =  1.024E+02  QAAc =  2.812E+03  QAAs = -1.169E+02

H          x =  1.385146  y = -0.015869  z = -2.033403 angstrom
           Maximum rank = 10   Radius =  0.325 angstrom
                   Q00  =   0.147115
|Q1| =   0.086036  Q10  =   0.070801  Q11c =  -0.048880  Q11s =   0.000367
|Q2| =   0.187546  Q20  =   0.094124  Q21c =  -0.112577  Q21s =   0.001845
                   Q22c =   0.116764  Q22s =  -0.001866
|Q3| =   0.186995  Q30  =  -0.051030  Q31c =   0.135343  Q31s =  -0.001781
                   Q32c =  -0.113485  Q32s =   0.001827  Q33c =   0.034032
                   Q33s =  -0.001408
|Q4| =   0.182345  Q40  =  -0.069476  Q41c =  -0.023113  Q41s =  -0.001590
                   Q42c =  -0.044218  Q42s =   0.001685  Q43c =   0.118759
                   Q43s =  -0.004468  Q44c =  -0.108623  Q44s =   0.002293
|Q5| =   0.808494  Q50  =   0.086036  Q51c =  -0.212890  Q51s =   0.008799
                   Q52c =   0.387685  Q52s =  -0.013888  Q53c =  -0.501652
                   Q53s =   0.015897  Q54c =   0.438489  Q54s =  -0.018857
                   Q55c =  -0.076347  Q55s =   0.001784
|Q6| =   1.569217  Q60  =   0.191377  Q61c =   0.125804  Q61s =   0.006000
                   Q62c =  -0.707352  Q62s =   0.047848  Q63c =   1.081542
                   Q63s =  -0.027239  Q64c =  -0.773988  Q64s =   0.017342
                   Q65c =   0.111092  Q65s =  -0.012642  Q66c =   0.352467
                   Q66s =  -0.027420
|Q7| =   4.418743  Q70  =  -0.285073  Q71c =   0.648006  Q71s =  -0.128278
                   Q72c =  -0.578239  Q72s =  -0.032625  Q73c =  -2.345966
                   Q73s =   0.041235  Q74c =  -0.033166  Q74s =   0.202773
                   Q75c =   2.311993  Q75s =  -0.144088  Q76c =  -2.587789
                   Q76s =   0.144600  Q77c =   1.014290  Q77s =  -0.111089
|Q8| =  35.583465  Q80  =   5.730915  Q81c =  -0.586443  Q81s =   0.139853
                   Q82c =  10.049423  Q82s =  -0.473049  Q83c =   2.281211
                   Q83s =   0.116230  Q84c =   5.127111  Q84s =  -1.519419
                   Q85c = -25.816454  Q85s =   1.570778  Q86c =  19.299312
                   Q86s =  -0.794304  Q87c =  -7.440106  Q87s =   0.576265
                   Q88c =   0.457972  Q88s =   0.010024
|Q9| = 232.311774  Q90  = -59.118166  Q91c =  42.560221  Q91s =   3.257904
                   Q92c = -11.020518  Q92s =   1.140970  Q93c =  44.396580
                   Q93s =  -1.654460  Q94c = -38.549642  Q94s =   5.946132
                   Q95c = 172.672613  Q95s =  -8.617442  Q96c =-121.128888
                   Q96s =   1.321930  Q97c =   2.658646  Q97s =   0.752149
                   Q98c =  17.357397  Q98s =  -1.905197  Q99c = -12.207293
                   Q99s =   2.868765
|QA| =  1.385E+03  QA0  =  5.934E+00  QA1c = -6.247E+02  QA1s = -2.219E+01
                   QA2c = -4.601E+02  QA2s =  1.744E+01  QA3c = -8.234E+01
                   QA3s =  1.049E+01  QA4c =  2.965E+02  QA4s = -1.864E+00
                   QA5c = -6.392E+02  QA5s =  1.089E+01  QA6c =  4.483E+02
                   QA6s =  2.294E+01  QA7c =  5.382E+02  QA7s = -5.028E+01
                   QA8c = -5.217E+02  QA8s =  3.173E+01  QA9c =  1.784E+02
                   QA9s = -3.085E+01  QAAc = -1.077E+02  QAAs =  1.758E+01

H          x = -1.385302  y = -0.006204  z = -2.033249 angstrom
           Maximum rank = 10   Radius =  0.325 angstrom
                   Q00  =   0.146681
|Q1| =   0.086357  Q10  =   0.070676  Q11c =   0.049619  Q11s =   0.000683
|Q2| =   0.187100  Q20  =   0.094231  Q21c =   0.113005  Q21s =   0.000557
                   Q22c =   0.115557  Q22s =  -0.001719
|Q3| =   0.186444  Q30  =  -0.050104  Q31c =  -0.134199  Q31s =  -0.001085
                   Q32c =  -0.115150  Q32s =  -0.002343  Q33c =  -0.031106
                   Q33s =   0.002808
|Q4| =   0.183105  Q40  =  -0.064542  Q41c =   0.020277  Q41s =  -0.002363
                   Q42c =  -0.047712  Q42s =   0.000755  Q43c =  -0.111919
                   Q43s =   0.008068  Q44c =  -0.118605  Q44s =  -0.003126
|Q5| =   0.800467  Q50  =   0.084746  Q51c =   0.193292  Q51s =  -0.005789
                   Q52c =   0.400769  Q52s =   0.012225  Q53c =   0.503628
                   Q53s =   0.009490  Q54c =   0.412485  Q54s =  -0.020775
                   Q55c =   0.105138  Q55s =   0.006632
|Q6| =   1.557402  Q60  =   0.160467  Q61c =  -0.141020  Q61s =   0.009244
                   Q62c =  -0.673690  Q62s =   0.025398  Q63c =  -1.133622
                   Q63s =  -0.076421  Q64c =  -0.739068  Q64s =  -0.034816
                   Q65c =  -0.029685  Q65s =   0.015184  Q66c =   0.290110
                   Q66s =  -0.040350
|Q7| =   4.546007  Q70  =  -0.543371  Q71c =  -0.455902  Q71s =   0.043517
                   Q72c =  -0.574966  Q72s =  -0.057697  Q73c =   2.248694
                   Q73s =   0.100312  Q74c =   0.116783  Q74s =   0.196296
                   Q75c =  -2.470904  Q75s =   0.010816  Q76c =  -2.775425
                   Q76s =   0.161999  Q77c =  -0.930189  Q77s =   0.091951
|Q8| =  35.141070  Q80  =   6.922400  Q81c =   1.654652  Q81s =   0.109628
                   Q82c =   9.270337  Q82s =   1.011511  Q83c =  -0.809037
                   Q83s =   0.488049  Q84c =   5.051432  Q84s =  -0.410000
                   Q85c =  24.907250  Q85s =   0.995677  Q86c =  19.614855
                   Q86s =   0.275702  Q87c =   7.944780  Q87s =  -0.373879
                   Q88c =   0.869513  Q88s =   0.699150
|Q9| = 223.889124  Q90  = -51.672444  Q91c = -48.252828  Q91s =   6.970246
                   Q92c =  -6.781965  Q92s =  -5.121350  Q93c = -52.272520
                   Q93s = -16.553340  Q94c = -46.397084  Q94s =  -1.536539
                   Q95c =-161.016447  Q95s =  -3.685401  Q96c =-116.397780
                   Q96s = -10.082668  Q97c =  -4.489346  Q97s =  -0.896568
                   Q98c =  12.037123  Q98s =  -4.251168  Q99c =   6.365449
                   Q99s =  -5.590355
|QA| =  1.327E+03  QA0  = -6.627E+01  QA1c =  5.512E+02  QA1s = -6.930E+01
                   QA2c = -4.881E+02  QA2s = -1.071E+02  QA3c =  7.793E+01
                   QA3s =  1.001E+02  QA4c =  4.018E+02  QA4s =  7.333E+01
                   QA5c =  5.741E+02  QA5s = -5.612E+01  QA6c =  3.542E+02
                   QA6s =  3.092E+01  QA7c = -5.319E+02  QA7s =  1.830E+01
                   QA8c = -4.995E+02  QA8s = -8.299E+00  QA9c = -1.224E+02
                   QA9s =  2.355E+01  QAAc = -8.173E+01  QAAs = -3.942E+00

H          x = -0.000009  y =  0.000008  z =  1.965234 angstrom
           Maximum rank = 10   Radius =  0.325 angstrom
                   Q00  =   0.167496
|Q1| =   0.080115  Q10  =  -0.080114  Q11c =  -0.000485  Q11s =   0.000041
|Q2| =   0.165664  Q20  =   0.154339  Q21c =  -0.000521  Q21s =   0.000885
                   Q22c =   0.060184  Q22s =  -0.000848
|Q3| =   0.165120  Q30  =   0.164726  Q31c =   0.000378  Q31s =   0.000414
                   Q32c =   0.011228  Q32s =  -0.000801  Q33c =   0.001615
                   Q33s =   0.000571
|Q4| =   0.154347  Q40  =  -0.005452  Q41c =  -0.000294  Q41s =  -0.002039
                   Q42c =  -0.147861  Q42s =   0.003167  Q43c =   0.006011
                   Q43s =  -0.002092  Q44c =  -0.043187  Q44s =   0.003232
|Q5| =   0.560971  Q50  =  -0.412963  Q51c =  -0.011104  Q51s =  -0.000832
                   Q52c =  -0.378481  Q52s =   0.006738  Q53c =   0.008582
                   Q53s =  -0.011219  Q54c =   0.013135  Q54s =   0.016248
                   Q55c =   0.001902  Q55s =  -0.009616
|Q6| =   1.042328  Q60  =  -0.835994  Q61c =  -0.039099  Q61s =   0.016623
                   Q62c =  -0.456935  Q62s =  -0.034453  Q63c =  -0.021604
                   Q63s =   0.001591  Q64c =   0.383474  Q64s =   0.006241
                   Q65c =  -0.021560  Q65s =  -0.034423  Q66c =   0.162975
                   Q66s =   0.002963
|Q7| =   1.679950  Q70  =  -0.130050  Q71c =  -0.063438  Q71s =   0.009477
                   Q72c =   0.347623  Q72s =  -0.249339  Q73c =  -0.141827
                   Q73s =   0.144070  Q74c =   1.538542  Q74s =  -0.284336
                   Q75c =  -0.248111  Q75s =   0.083156  Q76c =   0.237473
                   Q76s =  -0.004779  Q77c =  -0.022199  Q77s =   0.063083
|Q8| =  14.597586  Q80  =   7.796386  Q81c =   0.028782  Q81s =  -0.461663
                   Q82c =   6.980815  Q82s =  -0.664999  Q83c =  -0.078855
                   Q83s =   0.446013  Q84c =   9.616505  Q84s =  -1.034667
                   Q85c =  -1.085040  Q85s =   1.441234  Q86c =  -2.243979
                   Q86s =   0.244271  Q87c =   0.273991  Q87s =   0.146508
                   Q88c =  -0.832700  Q88s =  -0.159898
|Q9| = 118.186588  Q90  =  66.766339  Q91c =   1.199584  Q91s =  -3.446887
                   Q92c =  53.049004  Q92s =   2.113097  Q93c =   4.583811
                   Q93s =   0.130074  Q94c =  67.947989  Q94s =   5.988417
                   Q95c =  -0.568174  Q95s =   7.047402  Q96c = -41.813067
                   Q96s =   3.430847  Q97c =   7.110267  Q97s =  -5.418140
                   Q98c =  10.679383  Q98s =   0.542879  Q99c =   0.125220
                   Q99s =  -0.401584
|QA| = 720.727084  QA0  = 326.073447  QA1c =  11.361130  QA1s =  -9.947684
                   QA2c = 120.695542  QA2s =  39.579021  QA3c =  46.903058
                   QA3s =  -1.523486  QA4c = 225.947206  QA4s =  90.482025
                   QA5c =  22.557450  QA5s =   0.365983  QA6c =-496.756589
                   QA6s =  -2.528359  QA7c =  70.181816  QA7s = -74.957344
                   QA8c = 271.490415  QA8s =  28.349064  QA9c =   0.984084
                   QA9s =   0.031209  QAAc = -54.344418  QAAs =  -5.364103

C          x =  2.478117  y = -0.021908  z =  0.567842 angstrom
           Maximum rank = 10   Radius =  0.650 angstrom
                   Q00  =   0.025094
|Q1| =   0.157473  Q10  =  -0.039811  Q11c =  -0.152328  Q11s =   0.003022
|Q2| =   0.314179  Q20  =  -0.110049  Q21c =   0.175002  Q21s =  -0.001302
                   Q22c =   0.236535  Q22s =  -0.004642
|Q3| =   2.209820  Q30  =   1.691386  Q31c =  -0.247296  Q31s =   0.130467
                   Q32c =   0.491773  Q32s =  -0.066645  Q33c =  -1.300361
                   Q33s =   0.084386
|Q4| =   2.616643  Q40  =   1.199993  Q41c =   1.614833  Q41s =   0.078990
                   Q42c =   0.300603  Q42s =   0.119056  Q43c =   1.246530
                   Q43s =  -0.111495  Q44c =  -1.049983  Q44s =   0.140145
|Q5| =   3.572853  Q50  =   1.551357  Q51c =  -1.838484  Q51s =   0.047668
                   Q52c =  -1.551481  Q52s =  -0.118682  Q53c =  -0.743170
                   Q53s =  -0.010673  Q54c =   0.763107  Q54s =   0.007200
                   Q55c =   1.844563  Q55s =  -0.133727
|Q6| =  16.348747  Q60  = -10.053203  Q61c =   4.950331  Q61s =  -1.840079
                   Q62c =  -6.755361  Q62s =   1.140458  Q63c =   5.965819
                   Q63s =  -1.004428  Q64c =  -2.413186  Q64s =   0.986342
                   Q65c =   5.037392  Q65s =  -0.776778  Q66c =  -4.646437
                   Q66s =   0.650483
|Q7| =  55.281391  Q70  = -26.985816  Q71c = -29.526820  Q71s =  -3.768362
                   Q72c = -10.096171  Q72s =  -2.723986  Q73c =  -3.555825
                   Q73s =   1.463008  Q74c =  21.618404  Q74s =  -1.524283
                   Q75c =   6.609679  Q75s =   2.133834  Q76c =  16.284253
                   Q76s =  -2.958443  Q77c = -22.575787  Q77s =   4.013950
|Q8| =  49.024477  Q80  =  15.753433  Q81c =  18.291385  Q81s =   2.720985
                   Q82c =  -0.186674  Q82s =   6.593259  Q83c =  30.978804
                   Q83s =  -0.416454  Q84c =   4.529610  Q84s =   3.530956
                   Q85c =  11.246626  Q85s =   0.436920  Q86c =   9.270834
                   Q86s =  -2.899729  Q87c = -23.229116  Q87s =   3.847244
                   Q88c =   1.086116  Q88s =  -0.540722
|Q9| = 549.073015  Q90  = 121.685178  Q91c =  -7.901798  Q91s =  63.991147
                   Q92c = 295.578574  Q92s = -33.494270  Q93c =-133.761435
                   Q93s =  78.435254  Q94c = 274.698131  Q94s = -57.958848
                   Q95c =-169.700488  Q95s =  52.227009  Q96c =  90.647606
                   Q96s = -50.104087  Q97c =-207.883468  Q97s =  27.982740
                   Q98c = -39.334939  Q98s =  -2.232302  Q99c =  57.178640
                   Q99s =  -9.592441
|QA| =  3.007E+03  QA0  =  1.503E+03  QA1c =  4.224E+02  QA1s =  4.254E+02
                   QA2c =  1.290E+03  QA2s =  4.829E+00  QA3c = -1.237E+02
                   QA3s =  1.948E+01  QA4c = -9.876E+02  QA4s =  9.103E+00
                   QA5c = -4.398E+02  QA5s = -2.088E+02  QA6c = -7.327E+02
                   QA6s =  5.373E+01  QA7c =  1.993E+02  QA7s = -2.163E+02
                   QA8c = -5.559E+02  QA8s =  2.454E+02  QA9c =  1.322E+03
                   QA9s = -2.741E+02  QAAc = -8.111E+02  QAAs =  2.352E+02

H          x =  2.490592  y =  0.005438  z =  1.658095 angstrom
           Maximum rank = 10   Radius =  0.325 angstrom
                   Q00  =   0.105959
|Q1| =   0.106740  Q10  =  -0.102078  Q11c =  -0.031139  Q11s =  -0.001960
|Q2| =   0.163825  Q20  =   0.151912  Q21c =   0.011989  Q21s =   0.007981
                   Q22c =   0.059593  Q22s =  -0.001557
|Q3| =   0.170180  Q30  =   0.132121  Q31c =   0.094174  Q31s =   0.008614
                   Q32c =   0.050512  Q32s =   0.002489  Q33c =   0.002010
                   Q33s =   0.000689
|Q4| =   0.157706  Q40  =  -0.097580  Q41c =   0.098925  Q41s =  -0.012055
                   Q42c =  -0.043568  Q42s =   0.005561  Q43c =  -0.044190
                   Q43s =  -0.003352  Q44c =  -0.039038  Q44s =   0.000922
|Q5| =   0.577294  Q50  =  -0.444855  Q51c =  -0.152165  Q51s =  -0.055976
                   Q52c =  -0.233859  Q52s =  -0.013112  Q53c =  -0.209210
                   Q53s =  -0.015911  Q54c =  -0.098415  Q54s =  -0.003003
                   Q55c =   0.022264  Q55s =  -0.003374
|Q6| =   0.955468  Q60  =  -0.339341  Q61c =  -0.602554  Q61s =  -0.041068
                   Q62c =  -0.295655  Q62s =  -0.072347  Q63c =  -0.463831
                   Q63s =  -0.023024  Q64c =  -0.090470  Q64s =  -0.013790
                   Q65c =   0.195645  Q65s =   0.009873  Q66c =   0.278579
                   Q66s =  -0.018416
|Q7| =   2.220916  Q70  =   1.274199  Q71c =  -0.224785  Q71s =   0.282950
                   Q72c =   0.564416  Q72s =  -0.073995  Q73c =  -0.176380
                   Q73s =   0.052680  Q74c =   0.254045  Q74s =   0.023763
                   Q75c =   1.177057  Q75s =   0.124206  Q76c =   1.158988
                   Q76s =  -0.028208  Q77c =   0.100101  Q77s =   0.017473
|Q8| =  12.971796  Q80  =   6.010341  Q81c =   4.375351  Q81s =   1.334332
                   Q82c =   3.542783  Q82s =   0.358834  Q83c =   0.869110
                   Q83s =   0.515794  Q84c =   2.098591  Q84s =   0.325106
                   Q85c =   6.800547  Q85s =   0.704831  Q86c =   5.694493
                   Q86s =   0.010795  Q87c =  -1.309168  Q87s =  -0.044585
                   Q88c =  -3.463939  Q88s =   0.348595
|Q9| =  85.323991  Q90  =  20.836708  Q91c =  41.674321  Q91s =   5.593603
                   Q92c =  27.277402  Q92s =   2.699924  Q93c = -11.158127
                   Q93s =   3.532897  Q94c =   1.896898  Q94s =   2.095654
                   Q95c =  35.945461  Q95s =   2.680361  Q96c =  36.086835
                   Q96s =  -0.084590  Q97c = -16.345934  Q97s =  -2.167005
                   Q98c = -35.972174  Q98s =   2.835153  Q99c =  -2.449679
                   Q99s =  -0.455134
|QA| = 557.132672  QA0  = -68.395428  QA1c = 256.171563  QA1s =  10.462618
                   QA2c = 260.896784  QA2s =  18.962035  QA3c = -55.178273
                   QA3s =  11.957880  QA4c =-124.400279  QA4s =  20.701908
                   QA5c = 106.525896  QA5s =  -2.519649  QA6c = 144.378595
                   QA6s =  -5.574762  QA7c =-153.323288  QA7s = -30.174771
                   QA8c =-296.986185  QA8s =  15.011323  QA9c =  -4.401133
                   QA9s =   2.649497  QAAc =  85.039560  QAAs = -11.578114

H          x =  2.967029  y = -0.935354  z =  0.220666 angstrom
           Maximum rank = 10   Radius =  0.325 angstrom
                   Q00  =   0.109263
|Q1| =   0.105459  Q10  =   0.016272  Q11c =  -0.072853  Q11s =   0.074493
|Q2| =   0.161334  Q20  =  -0.075347  Q21c =  -0.007336  Q21s =   0.091153
                   Q22c =  -0.044038  Q22s =  -0.100247
|Q3| =   0.172700  Q30  =   0.049434  Q31c =  -0.068079  Q31s =   0.067990
                   Q32c =   0.023969  Q32s =   0.061123  Q33c =  -0.098400
                   Q33s =  -0.064273
|Q4| =   0.132213  Q40  =   0.018353  Q41c =   0.019916  Q41s =   0.053677
                   Q42c =   0.032911  Q42s =  -0.003445  Q43c =  -0.067314
                   Q43s =   0.076816  Q44c =  -0.041051  Q44s =  -0.025563
|Q5| =   0.515871  Q50  =   0.170292  Q51c =  -0.134500  Q51s =   0.033951
                   Q52c =   0.147755  Q52s =   0.212292  Q53c =  -0.062853
                   Q53s =  -0.192158  Q54c =  -0.111924  Q54s =   0.254087
                   Q55c =   0.069356  Q55s =  -0.167955
|Q6| =   0.943209  Q60  =   0.275143  Q61c =   0.269487  Q61s =  -0.331971
                   Q62c =  -0.094522  Q62s =   0.177564  Q63c =   0.182743
                   Q63s =   0.254522  Q64c =  -0.304141  Q64s =  -0.028627
                   Q65c =  -0.080941  Q65s =   0.289217  Q66c =   0.003450
                   Q66s =  -0.555824
|Q7| =   2.724985  Q70  =  -0.446312  Q71c =   0.584753  Q71s =  -0.742505
                   Q72c =   0.469331  Q72s =   0.198012  Q73c =   0.500653
                   Q73s =  -0.429846  Q74c =  -0.125988  Q74s =   1.368599
                   Q75c =   0.248046  Q75s =   0.748342  Q76c =  -1.185509
                   Q76s =   0.116780  Q77c =  -0.860849  Q77s =  -0.983660
|Q8| =  15.207550  Q80  =  -2.165461  Q81c =  -3.970495  Q81s =   0.720611
                   Q82c =  -3.439725  Q82s =  -2.957189  Q83c =   3.258610
                   Q83s =  -0.994443  Q84c =   1.836031  Q84s =  -4.421018
                   Q85c =   4.717193  Q85s =   4.546095  Q86c =   5.015034
                   Q86s =   2.199680  Q87c =  -6.127329  Q87s =   3.984036
                   Q88c =  -4.612301  Q88s =   2.756379
|Q9| =  82.240846  Q90  =  23.043364  Q91c =  18.458332  Q91s =  15.642589
                   Q92c = -14.393732  Q92s =  20.405910  Q93c = -27.860302
                   Q93s =  16.046614  Q94c =  -2.145656  Q94s = -16.854324
                   Q95c =  -8.918844  Q95s = -25.738459  Q96c =  26.152954
                   Q96s = -12.508227  Q97c =  21.846877  Q97s = -13.220483
                   Q98c =  -5.802630  Q98s =  30.449856  Q99c =   7.747274
                   Q99s =  21.114402
|QA| = 431.031086  QA0  =-129.546665  QA1c =  15.707676  QA1s = -45.729506
                   QA2c = 251.785490  QA2s = -88.761753  QA3c =  20.331116
                   QA3s =  25.689538  QA4c =  39.194046  QA4s = 160.154809
                   QA5c = -28.395885  QA5s =  -6.521149  QA6c = -82.678406
                   QA6s =  13.751975  QA7c = -50.093567  QA7s = -71.023938
                   QA8c =-111.591287  QA8s = -47.586781  QA9c =  58.250118
                   QA9s =  24.263839  QAAc =  29.396380  QAAs =-179.285773

H          x =  3.001428  y =  0.853576  z =  0.176370 angstrom
           Maximum rank = 10   Radius =  0.325 angstrom
                   Q00  =   0.109362
|Q1| =   0.105421  Q10  =   0.019895  Q11c =  -0.075530  Q11s =  -0.070802
|Q2| =   0.161208  Q20  =  -0.067087  Q21c =  -0.015691  Q21s =  -0.098642
                   Q22c =  -0.031096  Q22s =   0.102683
|Q3| =   0.172189  Q30  =   0.056419  Q31c =  -0.065228  Q31s =  -0.057184
                   Q32c =   0.018598  Q32s =  -0.073064  Q33c =  -0.085925
                   Q33s =   0.076642
|Q4| =   0.134936  Q40  =   0.027887  Q41c =   0.016776  Q41s =  -0.048012
                   Q42c =   0.046001  Q42s =  -0.003667  Q43c =  -0.079052
                   Q43s =  -0.069005  Q44c =  -0.031869  Q44s =   0.026216
|Q5| =   0.514251  Q50  =   0.167336  Q51c =  -0.099617  Q51s =   0.023904
                   Q52c =   0.107683  Q52s =  -0.242391  Q53c =   0.013720
                   Q53s =   0.197046  Q54c =  -0.177928  Q54s =  -0.228299
                   Q55c =   0.119093  Q55s =   0.136497
|Q6| =   0.912487  Q60  =   0.202662  Q61c =   0.273966  Q61s =   0.338708
                   Q62c =  -0.123815  Q62s =  -0.081041  Q63c =   0.155762
                   Q63s =  -0.317396  Q64c =  -0.217762  Q64s =   0.079479
                   Q65c =  -0.181779  Q65s =  -0.260400  Q66c =   0.168144
                   Q66s =   0.521555
|Q7| =   2.782250  Q70  =  -0.546528  Q71c =   0.731856  Q71s =   0.670048
                   Q72c =   0.293775  Q72s =  -0.158372  Q73c =   0.692613
                   Q73s =   0.313037  Q74c =  -0.343067  Q74s =  -1.183025
                   Q75c =   0.237609  Q75s =  -0.971946  Q76c =  -1.291773
                   Q76s =   0.220351  Q77c =  -0.525176  Q77s =   1.121217
|Q8| =  15.713518  Q80  =  -2.402662  Q81c =  -4.588710  Q81s =  -1.308904
                   Q82c =  -2.791047  Q82s =   3.507298  Q83c =   2.615287
                   Q83s =   0.702946  Q84c =   3.678238  Q84s =   4.546162
                   Q85c =   3.424756  Q85s =  -4.247609  Q86c =   5.275665
                   Q86s =  -4.056379  Q87c =  -6.816743  Q87s =  -2.593237
                   Q88c =  -5.209632  Q88s =  -1.535995
|Q9| =  87.242866  Q90  =  28.828139  Q91c =  19.648830  Q91s = -15.751788
                   Q92c = -13.820646  Q92s = -21.782765  Q93c = -31.133284
                   Q93s = -13.707282  Q94c =  -4.241400  Q94s =  15.099290
                   Q95c =  -4.319667  Q95s =  33.161386  Q96c =  22.516537
                   Q96s =  10.815847  Q97c =  29.684747  Q97s =   7.696163
                   Q98c =  -9.305505  Q98s = -25.975430  Q99c =   1.103735
                   Q99s = -25.142589
|QA| = 468.875857  QA0  =-135.926629  QA1c =  27.722041  QA1s =  80.189590
                   QA2c = 280.595699  QA2s =  62.216879  QA3c =  38.593661
                   QA3s =   2.306469  QA4c =   5.332140  QA4s =-187.628793
                   QA5c = -31.684537  QA5s = -12.526298  QA6c =-112.925282
                   QA6s =  13.144524  QA7c = -55.191436  QA7s =  57.361862
                   QA8c = -88.904583  QA8s = 100.760981  QA9c =  39.424719
                   QA9s = -14.719792  QAAc = 113.398931  QAAs = 147.403100

H          x = -2.857359  y =  1.066461  z =  0.490764 angstrom
           Maximum rank = 10   Radius =  0.325 angstrom
                   Q00  =   0.108226
|Q1| =   0.105744  Q10  =  -0.005176  Q11c =   0.064297  Q11s =  -0.083790
|Q2| =   0.161421  Q20  =  -0.105283  Q21c =  -0.022388  Q21s =  -0.027930
                   Q22c =  -0.082710  Q22s =  -0.082765
|Q3| =   0.172962  Q30  =  -0.007652  Q31c =   0.067205  Q31s =  -0.099973
                   Q32c =   0.009516  Q32s =  -0.009994  Q33c =   0.121757
                   Q33s =   0.018191
|Q4| =   0.121284  Q40  =  -0.033878  Q41c =  -0.029430  Q41s =  -0.037054
                   Q42c =  -0.035711  Q42s =  -0.010259  Q43c =   0.026596
                   Q43s =  -0.052382  Q44c =  -0.079494  Q44s =  -0.013110
|Q5| =   0.515776  Q50  =  -0.009723  Q51c =   0.183763  Q51s =  -0.291828
                   Q52c =   0.107083  Q52s =  -0.091693  Q53c =   0.267701
                   Q53s =   0.008413  Q54c =   0.095836  Q54s =   0.108658
                   Q55c =   0.120871  Q55s =   0.140670
|Q6| =   1.015013  Q60  =   0.450746  Q61c =  -0.009055  Q61s =  -0.131071
                   Q62c =   0.090668  Q62s =   0.449596  Q63c =   0.227750
                   Q63s =   0.128948  Q64c =  -0.393920  Q64s =   0.261788
                   Q65c =  -0.122495  Q65s =   0.081989  Q66c =  -0.415167
                   Q66s =  -0.336403
|Q7| =   2.621878  Q70  =   0.085457  Q71c =  -0.275900  Q71s =   0.127326
                   Q72c =   1.027059  Q72s =  -0.179667  Q73c =   0.320659
                   Q73s =  -0.529855  Q74c =  -0.012310  Q74s =   1.166631
                   Q75c =   0.594154  Q75s =  -0.542253  Q76c =  -0.776844
                   Q76s =  -0.004939  Q77c =   1.608824  Q77s =   0.322252
|Q8| =  14.308353  Q80  =   0.527760  Q81c =   3.642347  Q81s =   0.058916
                   Q82c =  -0.471915  Q82s =  -1.370917  Q83c =  -0.885708
                   Q83s =   5.907262  Q84c =   1.287542  Q84s =   2.687308
                   Q85c =  -6.946703  Q85s =  -2.272344  Q86c =   0.390536
                   Q86s =   2.731420  Q87c =   4.222906  Q87s =  -4.595772
                   Q88c =  -4.834956  Q88s =   4.599380
|Q9| =  78.003534  Q90  =  20.189986  Q91c =  -9.099150  Q91s =   3.851310
                   Q92c = -13.601881  Q92s =  31.830174  Q93c =  17.165438
                   Q93s =  -2.507687  Q94c = -28.106722  Q94s = -17.981090
                   Q95c = -13.349973  Q95s =   2.180692  Q96c =  23.459389
                   Q96s = -31.545139  Q97c =  -8.638129  Q97s =  -1.726430
                   Q98c =   2.735006  Q98s =  27.741590  Q99c =  -3.189864
                   Q99s = -19.328845
|QA| = 502.864486  QA0  =-190.613456  QA1c =-102.241835  QA1s = 158.530698
                   QA2c =  42.510175  QA2s =-170.473365  QA3c =-160.982623
                   QA3s =-119.446033  QA4c =  31.509433  QA4s = 116.804159
                   QA5c =  73.308105  QA5s =-123.889665  QA6c =  29.692955
                   QA6s =   8.226567  QA7c = 205.883880  QA7s =  84.382367
                   QA8c = -36.155647  QA8s =  28.943078  QA9c = -13.561968
                   QA9s =  58.658285  QAAc =-117.676274  QAAs = -66.848612

H          x = -3.082679  y = -0.625694  z = -0.042341 angstrom
           Maximum rank = 10   Radius =  0.325 angstrom
                   Q00  =   0.110083
|Q1| =   0.104956  Q10  =   0.038156  Q11c =   0.081507  Q11s =   0.054006
|Q2| =   0.161700  Q20  =  -0.012499  Q21c =   0.054650  Q21s =   0.117136
                   Q22c =   0.024854  Q22s =   0.093088
|Q3| =   0.171122  Q30  =   0.074338  Q31c =   0.025592  Q31s =   0.003115
                   Q32c =  -0.024884  Q32s =  -0.112390  Q33c =   0.021907
                   Q33s =  -0.096753
|Q4| =   0.150163  Q40  =   0.054402  Q41c =  -0.027772  Q41s =  -0.025091
                   Q42c =   0.081752  Q42s =  -0.052984  Q43c =   0.091043
                   Q43s =   0.016332  Q44c =  -0.010962  Q44s =  -0.004718
|Q5| =   0.524726  Q50  =   0.008638  Q51c =  -0.098065  Q51s =  -0.163180
                   Q52c =  -0.099792  Q52s =  -0.132928  Q53c =  -0.274923
                   Q53s =   0.021881  Q54c =  -0.294441  Q54s =   0.070074
                   Q55c =  -0.185152  Q55s =   0.097165
|Q6| =   0.896275  Q60  =  -0.144726  Q61c =  -0.112548  Q61s =  -0.176106
                   Q62c =  -0.094131  Q62s =   0.302434  Q63c =   0.060176
                   Q63s =   0.336642  Q64c =   0.200941  Q64s =  -0.166933
                   Q65c =   0.397789  Q65s =  -0.176431  Q66c =   0.506092
                   Q66s =   0.087575
|Q7| =   2.692432  Q70  =  -0.545783  Q71c =  -0.379217  Q71s =   0.526443
                   Q72c =   0.275717  Q72s =   0.795513  Q73c =  -0.234919
                   Q73s =   0.134628  Q74c =   0.238862  Q74s =   0.113822
                   Q75c =   0.458805  Q75s =   1.755850  Q76c =  -0.528440
                   Q76s =   0.976470  Q77c =  -0.052841  Q77s =  -1.071977
|Q8| =  15.943281  Q80  =   0.203117  Q81c =   5.285687  Q81s =   1.281833
                   Q82c =  -1.002059  Q82s =  -1.783496  Q83c =  -0.638668
                   Q83s =  -4.442777  Q84c =   5.065397  Q84s =   1.210772
                   Q85c =  -3.277508  Q85s =  -2.448815  Q86c =   0.340688
                   Q86s =  -9.157042  Q87c =   2.968992  Q87s =  -0.637219
                   Q88c =  -7.783361  Q88s =   1.613094
|Q9| = 101.905644  Q90  =  30.076342  Q91c = -30.319641  Q91s =  -8.835809
                   Q92c = -17.659935  Q92s = -13.252473  Q93c =  31.393813
                   Q93s =  21.370694  Q94c = -25.186713  Q94s =  15.274747
                   Q95c = -18.153087  Q95s = -30.911192  Q96c =  11.003053
                   Q96s =  28.813724  Q97c = -24.800163  Q97s =  27.283249
                   Q98c =   0.654969  Q98s =  -9.726913  Q99c =  26.721533
                   Q99s =  35.784268
|QA| = 595.069884  QA0  =-224.613668  QA1c =-107.785871  QA1s = -55.336818
                   QA2c = 231.971716  QA2s =  64.014352  QA3c =-146.900444
                   QA3s =   6.906728  QA4c =-152.457787  QA4s =-144.923199
                   QA5c = 175.899527  QA5s = 145.547653  QA6c = -10.178001
                   QA6s = 103.856927  QA7c =  92.642608  QA7s = -84.757912
                   QA8c =  34.475494  QA8s =  51.238060  QA9c = -24.051028
                   QA9s = -73.008370  QAAc = 258.304992  QAAs = -99.847022

H          x = -2.518128  y = -0.282594  z =  1.610671 angstrom
           Maximum rank = 10   Radius =  0.325 angstrom
                   Q00  =   0.106206
|Q1| =   0.106682  Q10  =  -0.097693  Q11c =   0.033980  Q11s =   0.026125
|Q2| =   0.163261  Q20  =   0.126851  Q21c =  -0.019647  Q21s =  -0.091276
                   Q22c =   0.042566  Q22s =  -0.005816
|Q3| =   0.170228  Q30  =   0.091204  Q31c =  -0.092579  Q31s =  -0.098453
                   Q32c =   0.027437  Q32s =   0.039820  Q33c =   0.001873
                   Q33s =  -0.007341
|Q4| =   0.159532  Q40  =  -0.039970  Q41c =  -0.076416  Q41s =   0.101890
                   Q42c =   0.014947  Q42s =   0.046178  Q43c =   0.057982
                   Q43s =   0.032887  Q44c =  -0.028153  Q44s =  -0.006309
|Q5| =   0.563332  Q50  =  -0.099117  Q51c =   0.113352  Q51s =   0.459276
                   Q52c =   0.044185  Q52s =  -0.183025  Q53c =   0.134000
                   Q53s =   0.147778  Q54c =  -0.046364  Q54s =  -0.070636
                   Q55c =  -0.022047  Q55s =   0.029418
|Q6| =   0.929599  Q60  =  -0.022049  Q61c =   0.299689  Q61s =   0.337617
                   Q62c =  -0.076780  Q62s =  -0.662583  Q63c =   0.094356
                   Q63s =   0.267926  Q64c =  -0.054322  Q64s =  -0.132197
                   Q65c =  -0.246584  Q65s =  -0.075093  Q66c =   0.211268
                   Q66s =  -0.052602
|Q7| =   2.469250  Q70  =  -0.440308  Q71c =  -0.075594  Q71s =  -1.388242
                   Q72c =  -1.110652  Q72s =  -0.405250  Q73c =  -0.009102
                   Q73s =   0.068942  Q74c =  -0.247384  Q74s =   0.275925
                   Q75c =  -1.023136  Q75s =  -0.834216  Q76c =   0.636595
                   Q76s =   0.414200  Q77c =  -0.125518  Q77s =  -0.308476
|Q8| =  13.262396  Q80  =  -1.922962  Q81c =  -3.249314  Q81s =  -5.834060
                   Q82c =  -4.570274  Q82s =   3.041018  Q83c =   2.111214
                   Q83s =  -0.773433  Q84c =  -1.455393  Q84s =   2.170275
                   Q85c =  -4.378480  Q85s =  -4.850724  Q86c =   2.170792
                   Q86s =   4.287515  Q87c =   2.809489  Q87s =  -1.256100
                   Q88c =  -3.060020  Q88s =   0.974531
|Q9| =  82.838210  Q90  = -15.892089  Q91c = -29.979503  Q91s = -16.913233
                   Q92c =  -5.796500  Q92s =  24.453740  Q93c =  31.808358
                   Q93s =  -1.856919  Q94c = -19.947844  Q94s =   2.135485
                   Q95c = -15.930201  Q95s = -18.713229  Q96c =  18.322769
                   Q96s =  26.011582  Q97c =  29.300108  Q97s =  -0.626712
                   Q98c = -25.391089  Q98s =  -5.904870  Q99c =   8.154121
                   Q99s =  12.420341
|QA| = 525.916271  QA0  =-149.163940  QA1c = -91.084474  QA1s =  28.622491
                   QA2c = 178.259809  QA2s = 124.366819  QA3c = 213.796609
                   QA3s = -50.651387  QA4c =-181.804438  QA4s = -50.717607
                   QA5c =  23.594076  QA5s =   4.550245  QA6c = 171.594306
                   QA6s =  33.168998  QA7c = 147.468519  QA7s =  85.121797
                   QA8c =-125.818383  QA8s =-145.907697  QA9c = -24.159601
                   QA9s =  85.315803  QAAc =  78.105912  QAAs = -53.683161

Total multipoles referred to origin at
           x =   0.000000,  y =    0.000000,  z =    0.000000 angstrom
                   Q00  =   0.999993
|Q1| =   0.454402  Q10  =   0.454319  Q11c =  -0.000170  Q11s =   0.008690
|Q2| =  15.429335  Q20  =   0.514246  Q21c =   0.016877  Q21s =   0.076332
                   Q22c =  15.417450  Q22s =  -0.309934
|Q3| =  13.893796  Q30  = -11.836612  Q31c =  -0.440995  Q31s =  -2.700830
                   Q32c =   6.401464  Q32s =  -1.710161  Q33c =  -0.629028
                   Q33s =  -1.069656
|Q4| = 239.038415  Q40  = 143.976361  Q41c =   7.654471  Q41s = -18.694535
                   Q42c =  54.286767  Q42s =  34.402884  Q43c =  19.419587
                   Q43s =  16.859032  Q44c = 175.233041  Q44s =  22.439199
|Q5| =  1.368E+03  Q50  =  4.763E+02  Q51c =  1.564E+02  Q51s =  6.502E+01
                   Q52c = -9.129E+02  Q52s =  3.904E+02  Q53c =  5.813E+01
                   Q53s = -2.192E+02  Q54c =  6.609E+02  Q54s = -1.947E+02
                   Q55c = -1.563E+02  Q55s = -2.841E+02
|Q6| =  1.282E+04  Q60  = -5.993E+03  Q61c =  2.084E+01  Q61s =  1.422E+03
                   Q62c =  7.702E+03  Q62s = -5.770E+02  Q63c = -3.543E+02
                   Q63s = -3.072E+03  Q64c =  5.030E+03  Q64s =  1.190E+03
                   Q65c =  1.686E+03  Q65s =  8.709E+02  Q66c = -3.556E+03
                   Q66s =  3.773E+03
|Q7| =  5.974E+04  Q70  =  1.104E+04  Q71c = -1.158E+04  Q71s =  1.267E+03
                   Q72c = -1.509E+04  Q72s = -2.133E+04  Q73c =  3.697E+03
                   Q73s = -1.450E+03  Q74c = -4.135E+03  Q74s =  3.086E+04
                   Q75c =  1.173E+04  Q75s = -4.750E+03  Q76c =  2.528E+04
                   Q76s = -6.732E+03  Q77c = -1.418E+04  Q77s = -2.445E+04
|Q8| =  7.477E+05  Q80  =  2.656E+05  Q81c = -3.657E+04  Q81s = -5.707E+04
                   Q82c = -2.871E+05  Q82s = -3.606E+04  Q83c =  4.059E+04
                   Q83s =  1.520E+05  Q84c =  1.259E+05  Q84s =  4.744E+04
                   Q85c = -2.961E+04  Q85s = -1.730E+05  Q86c =  3.755E+05
                   Q86s = -2.057E+04  Q87c =  6.890E+04  Q87s =  6.627E+03
                   Q88c = -3.361E+05  Q88s =  2.596E+05
|Q9| =  3.190E+06  Q90  =  7.082E+05  Q91c =  4.917E+05  Q91s = -1.731E+05
                   Q92c = -4.728E+05  Q92s =  7.597E+05  Q93c = -2.135E+05
                   Q93s =  4.457E+05  Q94c = -6.259E+05  Q94s = -1.261E+06
                   Q95c = -2.150E+05  Q95s = -4.951E+05  Q96c =  5.012E+05
                   Q96s =  1.294E+06  Q97c =  8.883E+05  Q97s =  9.596E+04
                   Q98c =  1.059E+06  Q98s =  3.775E+04  Q99c = -7.584E+05
                   Q99s = -1.288E+06
|QA| =  3.094E+07  QA0  = -6.494E+06  QA1c =  2.435E+06  QA1s =  1.672E+06
                   QA2c =  7.631E+06  QA2s =  2.632E+06  QA3c = -2.786E+06
                   QA3s = -4.487E+06  QA4c = -2.135E+06  QA4s = -4.897E+06
                   QA5c =  2.433E+06  QA5s =  6.196E+06  QA6c = -4.038E+06
                   QA6s =  5.814E+06  QA7c = -3.853E+04  QA7s = -5.958E+06
                   QA8c =  1.912E+07  QA8s = -3.538E+06  QA9c =  9.076E+05
                   QA9s = -1.528E+06  QAAc = -1.216E+07  QAAs =  1.123E+07

Finished at 04:14:55 on 25 Jan 2024 

  DMA results are available in the Python driver through the commands:
  variable('DMA DISTRIBUTED MULTIPOLES')
  variable('DMA TOTAL MULTIPOLES')


    Psi4 stopped on: Thursday, 25 January 2024 04:14AM
    Psi4 wall time for execution: 0:01:10.81

*** Psi4 exiting successfully. Buy a developer a beer!
