
    -----------------------------------------------------------------------
          Psi4: An Open-Source Ab Initio Electronic Structure Package
                               Psi4 1.9 release

                         Git: Rev {} zzzzzzz 


    D. G. A. Smith, L. A. Burns, A. C. Simmonett, R. M. Parrish,
    M. C. Schieber, R. Galvelis, P. Kraus, H. Kruse, R. Di Remigio,
    A. Alenaizan, A. M. James, S. Lehtola, J. P. Misiewicz, M. Scheurer,
    R. A. Shaw, J. B. Schriber, Y. Xie, Z. L. Glick, D. A. Sirianni,
    J. S. O'Brien, J. M. Waldrop, A. Kumar, E. G. Hohenstein,
    B. P. Pritchard, B. R. Brooks, H. F. Schaefer III, A. Yu. Sokolov,
    K. Patkowski, A. E. DePrince III, U. Bozkaya, R. A. King,
    F. A. Evangelista, J. M. Turney, T. D. Crawford, C. D. Sherrill,
    J. Chem. Phys. 152(18) 184108 (2020). https://doi.org/10.1063/5.0006002

                            Additional Code Authors
    E. T. Seidl, C. L. Janssen, E. F. Valeev, M. L. Leininger,
    J. F. Gonthier, R. M. Richard, H. R. McAlexander, M. Saitow, X. Wang,
    P. Verma, M. H. Lechner, A. Jiang, S. Behnle, A. G. Heide,
    M. F. Herbst, and D. L. Poole

             Previous Authors, Complete List of Code Contributors,
                       and Citations for Specific Modules
    https://github.com/psi4/psi4/blob/master/codemeta.json
    https://github.com/psi4/psi4/graphs/contributors
    http://psicode.org/psi4manual/master/introduction.html#citing-psifour

    -----------------------------------------------------------------------


    Psi4 started on: Monday, 22 January 2024 09:21AM

    Process ID: 350305
    Host:       d-16-5-1
    PSIDATADIR: /home/gridsan/tfroembgen/.conda/envs/psi4test/share/psi4
    Memory:     500.0 MiB
    Threads:    12
    
  ==> Input File <==

--------------------------------------------------------------------------
memory 32 GB # how much memory is available ! Depends on the nodes/cores !

molecule dimer {
# monomer A
-1 1    # Charge and multiplicity
B -1.977592e-04  2.742729e-04 -2.999966
F  1.123153e-16  1.430594e-17 -1.587181
F  1.147860e+00  6.757812e-01 -3.471107
F  1.191806e-02 -1.332011e+00 -3.470905
F -1.159666e+00  6.560735e-01 -3.470826
--
# monomer B
0 1     # Charge and multiplicity
C   1.22531237526482      0.70753866091955      0.00613762728373
C   1.22532433589282     -0.70753852257020     -0.00619318228664
C   -0.00000567409046      1.41496628609039     -0.00672680580738
C   2.45644923379077      1.41832825917820      0.00902448468363
C   0.00001130712078     -1.41497612663474      0.00347275151708
C   -1.22530046906674      0.70754574598412      0.00838914760619
C   2.45643823516184     -1.41832293188077     -0.00843833914343
C   -0.00000085313587      2.83680140328112     -0.00913035594137
C   3.68182717731192      0.70931832800114     -0.00808954934571
C   2.45512052870677      2.83422403348893     -0.00819210630633
C   3.68182158506039     -0.70933346742900      0.00798293467272
C   -1.22531311884624     -0.70752714354401     -0.00512042085974
C   1.22670006104402      3.54346985599427      0.00816696660346
C   0.00000526469929     -2.83678176723568      0.00832091913869
C   -2.45643555300670      1.41831729028492      0.00842454345199
C   2.45512389762097     -2.83422965658853      0.00783102630520
C   -1.22671388474763      3.54346943575023      0.00827029982280
C   4.91451777504333      1.42717324448953     -0.00160886631602
C   3.69315067131765      3.54279566454522     -0.00155906667985
C   -2.45643712022637     -1.41831290883911     -0.00846337726810
C   1.22670532178455     -3.54347386990643     -0.00780316414624
C   -2.45512491866593      2.83421703463423     -0.00818572995999
C   4.91452486062398     -1.42718653794377      0.00136387641845
C   1.22142509354026      4.97013443726031      0.00150231067809
C   4.89300870916237      2.82518837202648     -0.00039219795739
C   -1.22669652864725     -3.54347062507680     -0.00753595973677
C   -3.68181849668397      0.70932533873199     -0.00807686886569
C   3.69314758099218     -3.54280096939050      0.00148176697923
C   -1.22143177215231      4.97012866986289      0.00168580605083
C   6.13477145276790      0.68054831910577     -0.00083909176631
C   3.65678936045204      4.97295361556775     -0.00065042889723
C   -2.45512642789169     -2.83421472106065      0.00758666850712
C   -3.68181869921921     -0.70932533146830      0.00810055625144
C   4.89301309775526     -2.82519973363176      0.00021895393805
C   -0.00000059327114      5.65044773803267      0.00045449734393
C   6.13477559217374     -0.68055448207492      0.00042622874941
C   2.47813196269732      5.65357712333155      0.00063835075260
C   1.22142288457925     -4.97012668293268     -0.00129718634452
C   -3.69316190412301      3.54279732619245     -0.00139355922051
C   -1.22142804110313     -4.97011793159564     -0.00140994817719
C   -4.91452132810043      1.42717581899491     -0.00153192130862
C   3.65678749952045     -4.97295485423912      0.00080007163680
C   -2.47813805026426      5.65357479452875      0.00092287576113
C   -3.69314125872231     -3.54278984697859      0.00136564082345
C   -4.91451200321153     -1.42718062802730      0.00139857359209
C   -0.00000552908399     -5.65043791501335      0.00005899322272
C   -4.89302000425900      2.82518897091939     -0.00040227981744
C   2.47812647313991     -5.65357317188818     -0.00029052915548
C   -3.65679823041642      4.97295655404175     -0.00047374852278
C   -4.89299899901461     -2.82519139505969      0.00006491824035
C   -2.47812801824129     -5.65356579800621     -0.00056571680280
C   -6.13477002348955      0.68054913825639     -0.00086464346868
C   -3.65678835334731     -4.97294365097028      0.00058578382008
C   -6.13476456307132     -0.68055354348201      0.00040575295444
H   5.83528897565761      3.36927626695423      0.00396712770529
H   7.07385965258860      1.22821762089947     -0.00037744837300
H   4.60066374401555      5.51238117445323     -0.00014522814529
H   5.83528386714679     -3.36930568472863     -0.00423551337640
H   -0.00001167146422      6.73853104613662     -0.00389474766392
H   7.07386165167227     -1.22822657074368     -0.00008250934481
H   2.47331421164041      6.74068466339473      0.00017162982210
H   4.60066897122302     -5.51237575717576      0.00039007446835
H   -2.47331820069565      6.74068209160650      0.00047297644710
H   -0.00000978838621     -6.73852780445195      0.00458867820736
H   -5.83530143450167      3.36927132229595      0.00410314985360
H   2.47330840367253     -6.74068500242887      0.00027980126949
H   -4.60067436136587      5.51237839860371      0.00002010017831
H   -5.83527902699321     -3.36928859177951     -0.00451481925734
H   -2.47329986759855     -6.74067870613986     -0.00016951527498
H   -7.07385728692578      1.22822084484047     -0.00046143985387
H   -4.60067330624313     -5.51236229778631      0.00021776644566
H   -7.07385645456741     -1.22822025997701     -0.00017736581114

    units angstrom      # Angstroms are the default
    no_reorient         # Geometry fixed, default
    symmetry c1         # C1 symmetry, default
}

set {
    scf_type DF         # Density fitting, faster than exact integrals
    freeze_core True    # Freeze core electrons
    basis jun-cc-pVDZ   # Jun-cc-pVDZ basis set, recommended for sSAPT0 in https://doi.org/10.1063/1.4867135
}

energy('ssapt0')        # Compute sSAPT0 energy, includes also SAPT0
--------------------------------------------------------------------------

  Memory set to  29.802 GiB by Python driver.

Scratch directory: /state/partition1/slurm_tmp/24790925.4294967291.0/
   => Loading Basis Set <=

    Name: JUN-CC-PVDZ
    Role: ORBITAL
    Keyword: BASIS
    atoms 1     entry B          line   130 file /home/gridsan/tfroembgen/.conda/envs/psi4test/share/psi4/basis/jun-cc-pvdz.gbs 
    atoms 2-5   entry F          line   266 file /home/gridsan/tfroembgen/.conda/envs/psi4test/share/psi4/basis/jun-cc-pvdz.gbs 
    atoms 6-59  entry C          line   164 file /home/gridsan/tfroembgen/.conda/envs/psi4test/share/psi4/basis/jun-cc-pvdz.gbs 
    atoms 60-77 entry H          line    36 file /home/gridsan/tfroembgen/.conda/envs/psi4test/share/psi4/basis/jun-cc-pvdz.gbs 

   => Loading Basis Set <=

    Name: JUN-CC-PVDZ
    Role: ORBITAL
    Keyword: BASIS
    atoms 1     entry B          line   130 file /home/gridsan/tfroembgen/.conda/envs/psi4test/share/psi4/basis/jun-cc-pvdz.gbs 
    atoms 2-5   entry F          line   266 file /home/gridsan/tfroembgen/.conda/envs/psi4test/share/psi4/basis/jun-cc-pvdz.gbs 
    atoms 6-59  entry C          line   164 file /home/gridsan/tfroembgen/.conda/envs/psi4test/share/psi4/basis/jun-cc-pvdz.gbs 
    atoms 60-77 entry H          line    36 file /home/gridsan/tfroembgen/.conda/envs/psi4test/share/psi4/basis/jun-cc-pvdz.gbs 


  //>>>>>>>>>>>>>>>>>>>>>>>>>>>>>>>>>>>//
  //              Dimer HF             //
  //<<<<<<<<<<<<<<<<<<<<<<<<<<<<<<<<<<<//

   => Libint2 <=

    Primary   basis highest AM E, G, H:  7, 7, 4
    Auxiliary basis highest AM E, G, H:  7, 7, 5
    Onebody   basis highest AM E, G, H:  7, 7, 5
    Solid Harmonics ordering:            gaussian

*** tstart() called on d-16-5-1
*** at Mon Jan 22 09:21:08 2024

   => Loading Basis Set <=

    Name: JUN-CC-PVDZ
    Role: ORBITAL
    Keyword: BASIS
    atoms 1     entry B          line   130 file /home/gridsan/tfroembgen/.conda/envs/psi4test/share/psi4/basis/jun-cc-pvdz.gbs 
    atoms 2-5   entry F          line   266 file /home/gridsan/tfroembgen/.conda/envs/psi4test/share/psi4/basis/jun-cc-pvdz.gbs 
    atoms 6-59  entry C          line   164 file /home/gridsan/tfroembgen/.conda/envs/psi4test/share/psi4/basis/jun-cc-pvdz.gbs 
    atoms 60-77 entry H          line    36 file /home/gridsan/tfroembgen/.conda/envs/psi4test/share/psi4/basis/jun-cc-pvdz.gbs 


         ---------------------------------------------------------
                                   SCF
               by Justin Turney, Rob Parrish, Andy Simmonett
                          and Daniel G. A. Smith
                              RHF Reference
                       12 Threads,  30517 MiB Core
         ---------------------------------------------------------

  ==> Geometry <==

    Molecular point group: c1
    Full point group: C1

    Geometry (in Angstrom), charge = -1, multiplicity = 1:

       Center              X                  Y                   Z               Mass       
    ------------   -----------------  -----------------  -----------------  -----------------
         B           -0.000198161052     0.000273808717    -2.653404785174    11.009305360000
         F           -0.000000401852    -0.000000464183    -1.240619785174    18.998403162730
         F            1.147859598148     0.675780735817    -3.124545785174    18.998403162730
         F            0.011917658148    -1.332011464183    -3.124343785174    18.998403162730
         F           -1.159666401852     0.656073035817    -3.124264785174    18.998403162730
         C            1.225311973413     0.707538196736     0.352698842109    12.000000000000
         C            1.225323934041    -0.707538986754     0.340368032539    12.000000000000
         C           -0.000006075942     1.414965821907     0.339834409018    12.000000000000
         C            2.456448831939     1.418327794995     0.355585699509    12.000000000000
         C            0.000010905269    -1.414976590818     0.350033966343    12.000000000000
         C           -1.225300870919     0.707545281801     0.354950362432    12.000000000000
         C            2.456437833310    -1.418323396064     0.338122875682    12.000000000000
         C           -0.000001254988     2.836800939098     0.337430858884    12.000000000000
         C            3.681826775460     0.709317863818     0.338471665480    12.000000000000
         C            2.455120126855     2.834223569306     0.338369108519    12.000000000000
         C            3.681821183209    -0.709333931612     0.354544149498    12.000000000000
         C           -1.225313520698    -0.707527607727     0.341440793966    12.000000000000
         C            1.226699659192     3.543469391811     0.354728181429    12.000000000000
         C            0.000004862847    -2.836782231419     0.354882133964    12.000000000000
         C           -2.456435954859     1.418316826102     0.354985758278    12.000000000000
         C            2.455123495769    -2.834230120772     0.354392241131    12.000000000000
         C           -1.226714286599     3.543468971567     0.354831514648    12.000000000000
         C            4.914517373191     1.427172780306     0.344952348510    12.000000000000
         C            3.693150269466     3.542795200362     0.345002148146    12.000000000000
         C           -2.456437522078    -1.418313373022     0.338097837558    12.000000000000
         C            1.226704919933    -3.543474334090     0.338758050679    12.000000000000
         C           -2.455125320518     2.834216570451     0.338375484866    12.000000000000
         C            4.914524458772    -1.427187002127     0.347925091244    12.000000000000
         C            1.221424691688     4.970133973077     0.348063525504    12.000000000000
         C            4.893008307311     2.825187907843     0.346169016868    12.000000000000
         C           -1.226696930499    -3.543471089260     0.339025255089    12.000000000000
         C           -3.681818898536     0.709324874549     0.338484345960    12.000000000000
         C            3.693147179140    -3.542801433574     0.348042981805    12.000000000000
         C           -1.221432174004     4.970128205680     0.348247020876    12.000000000000
         C            6.134771050916     0.680547854922     0.345722123059    12.000000000000
         C            3.656788958600     4.972953151384     0.345910785928    12.000000000000
         C           -2.455126829744    -2.834215185244     0.354147883333    12.000000000000
         C           -3.681819101071    -0.709325795652     0.354661771077    12.000000000000
         C            4.893012695903    -2.825200197815     0.346780168764    12.000000000000
         C           -0.000000995123     5.650447273849     0.347015712170    12.000000000000
         C            6.134775190322    -0.680554946258     0.346987443575    12.000000000000
         C            2.478131560845     5.653576659148     0.347199565578    12.000000000000
         C            1.221422482727    -4.970127147116     0.345264028481    12.000000000000
         C           -3.693162305975     3.542796862009     0.345167655605    12.000000000000
         C           -1.221428442955    -4.970118395779     0.345151266648    12.000000000000
         C           -4.914521729952     1.427175354812     0.345029293517    12.000000000000
         C            3.656787097669    -4.972955318422     0.347361286462    12.000000000000
         C           -2.478138452116     5.653574330345     0.347484090587    12.000000000000
         C           -3.693141660574    -3.542790311162     0.347926855649    12.000000000000
         C           -4.914512405063    -1.427181092211     0.347959788418    12.000000000000
         C           -0.000005930936    -5.650438379197     0.346620208048    12.000000000000
         C           -4.893020406111     2.825188506736     0.346158935008    12.000000000000
         C            2.478126071288    -5.653573636072     0.346270685670    12.000000000000
         C           -3.656798632268     4.972956089858     0.346087466303    12.000000000000
         C           -4.892999400866    -2.825191859243     0.346626133066    12.000000000000
         C           -2.478128420093    -5.653566262190     0.345995498023    12.000000000000
         C           -6.134770425341     0.680548674073     0.345696571357    12.000000000000
         C           -3.656788755199    -4.972944115154     0.347146998646    12.000000000000
         C           -6.134764964923    -0.680554007665     0.346966967780    12.000000000000
         H            5.835288573806     3.369275802771     0.350528342531     1.007825032230
         H            7.073859250737     1.228217156716     0.346183766453     1.007825032230
         H            4.600663342164     5.512380710270     0.346415986680     1.007825032230
         H            5.835283465295    -3.369306148912     0.342325701449     1.007825032230
         H           -0.000012073316     6.738530581953     0.342666467162     1.007825032230
         H            7.073861249820    -1.228227034927     0.346478705481     1.007825032230
         H            2.473313809789     6.740684199211     0.346732844648     1.007825032230
         H            4.600668569371    -5.512376221359     0.346951289294     1.007825032230
         H           -2.473318602548     6.740681627423     0.347034191273     1.007825032230
         H           -0.000010190238    -6.738528268635     0.351149893033     1.007825032230
         H           -5.835301836354     3.369270858113     0.350664364679     1.007825032230
         H            2.473308001821    -6.740685466612     0.346841016095     1.007825032230
         H           -4.600674763218     5.512377934420     0.346581315004     1.007825032230
         H           -5.835279428845    -3.369289055963     0.342046395568     1.007825032230
         H           -2.473300269450    -6.740679170323     0.346391699551     1.007825032230
         H           -7.073857688778     1.228220380657     0.346099774972     1.007825032230
         H           -4.600673708095    -5.512362761970     0.346778981271     1.007825032230
         H           -7.073856856419    -1.228220724160     0.346383849015     1.007825032230

  Running in c1 symmetry.

  Rotational constants: A =      0.00201  B =      0.00201  C =      0.00110 [cm^-1]
  Rotational constants: A =     60.20285  B =     60.19446  C =     33.02251 [MHz]
  Nuclear repulsion = 8046.238609531577822

  Charge       = -1
  Multiplicity = 1
  Electrons    = 384
  Nalpha       = 192
  Nbeta        = 192

  ==> Algorithm <==

  SCF Algorithm Type is DF.
  DIIS enabled.
  MOM disabled.
  Fractional occupation disabled.
  Guess Type is SAD.
  Energy threshold   = 1.00e-08
  Density threshold  = 1.00e-08
  Integral threshold = 1.00e-12

  ==> Primary Basis <==

  Basis Set: JUN-CC-PVDZ
    Blend: JUN-CC-PVDZ
    Number of shells: 526
    Number of basis functions: 1152
    Number of Cartesian functions: 1211
    Spherical Harmonics?: true
    Max angular momentum: 2

   => Loading Basis Set <=

    Name: (JUN-CC-PVDZ AUX)
    Role: JKFIT
    Keyword: DF_BASIS_SCF
    atoms 1     entry B          line    90 file /home/gridsan/tfroembgen/.conda/envs/psi4test/share/psi4/basis/jun-cc-pvdz-jkfit.gbs 
    atoms 2-5   entry F          line   314 file /home/gridsan/tfroembgen/.conda/envs/psi4test/share/psi4/basis/jun-cc-pvdz-jkfit.gbs 
    atoms 6-59  entry C          line   146 file /home/gridsan/tfroembgen/.conda/envs/psi4test/share/psi4/basis/jun-cc-pvdz-jkfit.gbs 
    atoms 60-77 entry H          line    70 file /home/gridsan/tfroembgen/.conda/envs/psi4test/share/psi4/basis/jun-cc-pvdz-jkfit.gbs 

  ==> Integral Setup <==

  ==> DiskDFJK: Density-Fitted J/K Matrices <==

    J tasked:                  Yes
    K tasked:                  Yes
    wK tasked:                  No
    OpenMP threads:             12
    Integrals threads:          12
    Memory [MiB]:            22888
    Algorithm:                Core
    Integral Cache:           SAVE
    Schwarz Cutoff:          1E-12
    Fitting Condition:       1E-10

   => Auxiliary Basis Set <=

  Basis Set: (JUN-CC-PVDZ AUX)
    Blend: JUN-CC-PVDZ-JKFIT
    Number of shells: 1755
    Number of basis functions: 5075
    Number of Cartesian functions: 5819
    Spherical Harmonics?: true
    Max angular momentum: 3

  Minimum eigenvalue in the overlap matrix is 7.5529842016E-10.
  Reciprocal condition number of the overlap matrix is 3.1174650592E-11.
    Using canonical orthogonalization.
  Overall, 14 of 1152 possible MOs eliminated.


  ==> Pre-Iterations <==

  SCF Guess: Superposition of Atomic Densities via on-the-fly atomic UHF (no occupation information).

   -------------------------
    Irrep   Nso     Nmo    
   -------------------------
     A       1152    1138 
   -------------------------
    Total    1152    1138
   -------------------------

  ==> Iterations <==

                           Total Energy        Delta E     RMS |[F,P]|

   @DF-RHF iter SAD: -2484.08315491939720   -2.48408e+03   0.00000e+00 
   @DF-RHF iter   1: -2477.46314259963719    6.62001e+00   1.11158e-03 ADIIS/DIIS
   @DF-RHF iter   2: -2478.36378886101920   -9.00646e-01   5.02749e-04 ADIIS/DIIS
   @DF-RHF iter   3: -2478.51590354101290   -1.52115e-01   1.66908e-04 ADIIS/DIIS
   @DF-RHF iter   4: -2478.53425363914766   -1.83501e-02   8.43251e-05 DIIS
   @DF-RHF iter   5: -2478.53989571092234   -5.64207e-03   1.91322e-05 DIIS
   @DF-RHF iter   6: -2478.54024197646368   -3.46266e-04   5.33984e-06 DIIS
   @DF-RHF iter   7: -2478.54031828161078   -7.63051e-05   2.81313e-06 DIIS
   @DF-RHF iter   8: -2478.54034134960375   -2.30680e-05   1.25106e-06 DIIS
   @DF-RHF iter   9: -2478.54034962284777   -8.27324e-06   3.58349e-07 DIIS
   @DF-RHF iter  10: -2478.54035007358061   -4.50733e-07   1.30743e-07 DIIS
   @DF-RHF iter  11: -2478.54035011381711   -4.02365e-08   5.30445e-08 DIIS
   @DF-RHF iter  12: -2478.54035012312943   -9.31232e-09   2.39276e-08 DIIS
   @DF-RHF iter  13: -2478.54035012508984   -1.96042e-09   1.23728e-08 DIIS
   @DF-RHF iter  14: -2478.54035012572058   -6.30735e-10   9.23654e-09 DIIS
  Energy and wave function converged.


  ==> Post-Iterations <==

    Orbital Energies [Eh]
    ---------------------

    Doubly Occupied:                                                      

       1A    -26.109153     2A    -26.098435     3A    -26.098352  
       4A    -26.098277     5A    -11.174457     6A    -11.174440  
       7A    -11.174439     8A    -11.174382     9A    -11.174367  
      10A    -11.174364    11A    -11.174258    12A    -11.174251  
      13A    -11.174249    14A    -11.174188    15A    -11.174181  
      16A    -11.174179    17A    -11.172868    18A    -11.172864  
      19A    -11.172862    20A    -11.172857    21A    -11.172854  
      22A    -11.172852    23A    -11.171510    24A    -11.171507  
      25A    -11.171505    26A    -11.171502    27A    -11.171500  
      28A    -11.171499    29A    -11.168588    30A    -11.168550  
      31A    -11.168544    32A    -11.168383    33A    -11.168379  
      34A    -11.168301    35A    -11.167715    36A    -11.167592  
      37A    -11.167583    38A    -11.167394    39A    -11.167380  
      40A    -11.167374    41A    -11.167303    42A    -11.167301  
      43A    -11.167195    44A    -11.166849    45A    -11.166837  
      46A    -11.166833    47A    -11.166378    48A    -11.166330  
      49A    -11.166326    50A    -11.166100    51A    -11.166085  
      52A    -11.166062    53A    -11.160709    54A    -11.160291  
      55A    -11.160234    56A    -11.158918    57A    -11.158849  
      58A    -11.158409    59A     -7.577511    60A     -1.471857  
      61A     -1.414432    62A     -1.382501    63A     -1.382350  
      64A     -1.150775    65A     -1.131396    66A     -1.131392  
      67A     -1.103178    68A     -1.103173    69A     -1.089604  
      70A     -1.073296    71A     -1.063181    72A     -1.047099  
      73A     -1.047081    74A     -1.029196    75A     -1.029191  
      76A     -0.994665    77A     -0.994653    78A     -0.991359  
      79A     -0.982541    80A     -0.982538    81A     -0.953990  
      82A     -0.934897    83A     -0.934056    84A     -0.933833  
      85A     -0.933777    86A     -0.929836    87A     -0.899886  
      88A     -0.899845    89A     -0.877849    90A     -0.877795  
      91A     -0.810394    92A     -0.810363    93A     -0.803510  
      94A     -0.796238    95A     -0.796183    96A     -0.795187  
      97A     -0.795134    98A     -0.777536    99A     -0.756040  
     100A     -0.733529   101A     -0.728181   102A     -0.727292  
     103A     -0.727286   104A     -0.711361   105A     -0.711351  
     106A     -0.677144   107A     -0.657890   108A     -0.650282  
     109A     -0.649051   110A     -0.649027   111A     -0.646293  
     112A     -0.646281   113A     -0.624178   114A     -0.614588  
     115A     -0.614573   116A     -0.610531   117A     -0.610505  
     118A     -0.582643   119A     -0.578777   120A     -0.578753  
     121A     -0.577989   122A     -0.566729   123A     -0.565878  
     124A     -0.565869   125A     -0.562967   126A     -0.555600  
     127A     -0.555597   128A     -0.541968   129A     -0.541955  
     130A     -0.539987   131A     -0.526793   132A     -0.515563  
     133A     -0.515530   134A     -0.514837   135A     -0.513606  
     136A     -0.513593   137A     -0.507689   138A     -0.507661  
     139A     -0.504221   140A     -0.497272   141A     -0.497200  
     142A     -0.485458   143A     -0.485441   144A     -0.480174  
     145A     -0.480145   146A     -0.479878   147A     -0.479872  
     148A     -0.471713   149A     -0.471517   150A     -0.471498  
     151A     -0.462119   152A     -0.456450   153A     -0.456436  
     154A     -0.452646   155A     -0.452633   156A     -0.450234  
     157A     -0.450196   158A     -0.444414   159A     -0.437888  
     160A     -0.437875   161A     -0.426127   162A     -0.426045  
     163A     -0.417730   164A     -0.415333   165A     -0.412599  
     166A     -0.409517   167A     -0.402833   168A     -0.402239  
     169A     -0.398546   170A     -0.395711   171A     -0.395685  
     172A     -0.370994   173A     -0.370949   174A     -0.362249  
     175A     -0.362163   176A     -0.356303   177A     -0.356297  
     178A     -0.317500   179A     -0.317473   180A     -0.294888  
     181A     -0.292932   182A     -0.292927   183A     -0.264666  
     184A     -0.246170   185A     -0.231163   186A     -0.231119  
     187A     -0.227714   188A     -0.213990   189A     -0.196888  
     190A     -0.196841   191A     -0.133206   192A     -0.133188  

    Virtual:                                                              

     193A      0.096410   194A      0.096478   195A      0.109620  
     196A      0.109629   197A      0.110879   198A      0.112056  
     199A      0.112060   200A      0.118760   201A      0.122877  
     202A      0.133913   203A      0.133915   204A      0.148628  
     205A      0.148630   206A      0.153064   207A      0.153499  
     208A      0.153531   209A      0.156092   210A      0.157856  
     211A      0.157869   212A      0.158943   213A      0.158960  
     214A      0.162557   215A      0.162560   216A      0.164063  
     217A      0.166937   218A      0.168461   219A      0.169863  
     220A      0.171740   221A      0.179549   222A      0.179556  
     223A      0.180888   224A      0.184802   225A      0.189856  
     226A      0.189860   227A      0.192600   228A      0.192606  
     229A      0.193265   230A      0.193287   231A      0.198899  
     232A      0.201040   233A      0.201817   234A      0.204977  
     235A      0.204999   236A      0.208694   237A      0.209362  
     238A      0.215953   239A      0.215956   240A      0.219347  
     241A      0.219360   242A      0.221897   243A      0.221900  
     244A      0.225387   245A      0.225389   246A      0.231271  
     247A      0.237237   248A      0.242922   249A      0.242953  
     250A      0.246260   251A      0.253661   252A      0.253668  
     253A      0.254059   254A      0.256521   255A      0.256541  
     256A      0.259778   257A      0.263173   258A      0.263208  
     259A      0.267269   260A      0.267283   261A      0.267864  
     262A      0.270070   263A      0.270079   264A      0.274524  
     265A      0.275159   266A      0.276398   267A      0.276412  
     268A      0.277693   269A      0.277710   270A      0.278978  
     271A      0.280158   272A      0.281956   273A      0.281985  
     274A      0.282222   275A      0.284998   276A      0.292484  
     277A      0.294027   278A      0.294043   279A      0.295115  
     280A      0.295126   281A      0.297360   282A      0.298876  
     283A      0.298882   284A      0.304022   285A      0.306761  
     286A      0.307845   287A      0.307854   288A      0.311573  
     289A      0.311578   290A      0.314601   291A      0.315621  
     292A      0.322196   293A      0.322240   294A      0.325678  
     295A      0.325688   296A      0.328170   297A      0.329216  
     298A      0.329221   299A      0.335994   300A      0.336024  
     301A      0.339658   302A      0.339716   303A      0.344584  
     304A      0.344590   305A      0.347581   306A      0.347583  
     307A      0.352200   308A      0.358489   309A      0.358505  
     310A      0.360796   311A      0.362781   312A      0.362817  
     313A      0.365237   314A      0.365261   315A      0.367363  
     316A      0.367408   317A      0.368512   318A      0.370942  
     319A      0.374530   320A      0.374554   321A      0.376698  
     322A      0.381028   323A      0.381055   324A      0.382026  
     325A      0.384092   326A      0.384124   327A      0.385087  
     328A      0.387404   329A      0.387408   330A      0.387512  
     331A      0.392809   332A      0.394469   333A      0.395144  
     334A      0.395292   335A      0.395311   336A      0.402132  
     337A      0.404307   338A      0.404505   339A      0.404622  
     340A      0.411213   341A      0.412385   342A      0.412412  
     343A      0.414076   344A      0.414917   345A      0.416399  
     346A      0.416415   347A      0.423400   348A      0.425537  
     349A      0.425543   350A      0.427923   351A      0.427987  
     352A      0.428865   353A      0.435529   354A      0.441129  
     355A      0.441155   356A      0.447870   357A      0.447903  
     358A      0.449261   359A      0.452287   360A      0.452322  
     361A      0.453016   362A      0.456574   363A      0.461304  
     364A      0.461421   365A      0.462779   366A      0.462788  
     367A      0.465809   368A      0.465829   369A      0.466913  
     370A      0.469486   371A      0.472584   372A      0.472641  
     373A      0.473150   374A      0.476067   375A      0.476095  
     376A      0.480107   377A      0.480140   378A      0.480521  
     379A      0.482060   380A      0.482130   381A      0.483298  
     382A      0.483414   383A      0.490754   384A      0.490774  
     385A      0.494676   386A      0.496794   387A      0.496844  
     388A      0.497224   389A      0.499610   390A      0.499703  
     391A      0.502993   392A      0.504246   393A      0.504277  
     394A      0.507207   395A      0.508934   396A      0.509040  
     397A      0.513903   398A      0.514841   399A      0.515548  
     400A      0.515736   401A      0.517811   402A      0.519601  
     403A      0.519628   404A      0.519826   405A      0.526154  
     406A      0.526173   407A      0.529624   408A      0.530574  
     409A      0.530584   410A      0.532940   411A      0.533012  
     412A      0.535616   413A      0.535754   414A      0.540813  
     415A      0.540816   416A      0.544386   417A      0.547993  
     418A      0.548150   419A      0.548175   420A      0.551645  
     421A      0.551713   422A      0.551982   423A      0.554701  
     424A      0.554770   425A      0.555157   426A      0.557701  
     427A      0.558249   428A      0.558293   429A      0.570098  
     430A      0.570162   431A      0.572281   432A      0.574295  
     433A      0.574337   434A      0.576720   435A      0.576740  
     436A      0.578631   437A      0.586389   438A      0.586428  
     439A      0.587962   440A      0.588679   441A      0.594178  
     442A      0.594209   443A      0.596353   444A      0.596460  
     445A      0.609394   446A      0.611145   447A      0.611169  
     448A      0.616256   449A      0.616388   450A      0.618989  
     451A      0.619628   452A      0.624949   453A      0.625007  
     454A      0.625631   455A      0.625695   456A      0.629483  
     457A      0.629508   458A      0.631526   459A      0.634015  
     460A      0.634157   461A      0.636644   462A      0.637067  
     463A      0.637849   464A      0.637900   465A      0.641255  
     466A      0.642452   467A      0.648950   468A      0.648969  
     469A      0.653008   470A      0.655247   471A      0.663836  
     472A      0.664239   473A      0.671934   474A      0.672011  
     475A      0.677259   476A      0.679663   477A      0.683115  
     478A      0.683154   479A      0.691910   480A      0.699235  
     481A      0.699295   482A      0.702730   483A      0.702813  
     484A      0.708763   485A      0.708810   486A      0.720587  
     487A      0.733045   488A      0.733216   489A      0.735611  
     490A      0.737431   491A      0.737455   492A      0.742193  
     493A      0.746488   494A      0.746540   495A      0.753839  
     496A      0.761749   497A      0.761777   498A      0.768895  
     499A      0.800704   500A      0.800720   501A      0.809952  
     502A      0.819902   503A      0.819970   504A      0.821537  
     505A      0.822572   506A      0.824405   507A      0.829003  
     508A      0.829019   509A      0.836323   510A      0.836376  
     511A      0.845976   512A      0.846000   513A      0.857541  
     514A      0.859314   515A      0.866344   516A      0.866539  
     517A      0.875557   518A      0.883731   519A      0.885579  
     520A      0.885633   521A      0.898438   522A      0.898779  
     523A      0.903131   524A      0.903262   525A      0.906512  
     526A      0.906716   527A      0.909024   528A      0.909629  
     529A      0.910752   530A      0.910766   531A      0.918070  
     532A      0.926299   533A      0.938432   534A      0.938437  
     535A      0.946710   536A      0.948740   537A      0.948803  
     538A      0.952233   539A      0.956134   540A      0.956333  
     541A      0.958506   542A      0.958631   543A      0.969673  
     544A      0.969762   545A      0.973488   546A      0.973524  
     547A      0.980462   548A      0.980531   549A      0.987564  
     550A      0.987629   551A      0.988316   552A      0.992609  
     553A      0.993334   554A      0.995295   555A      0.995371  
     556A      0.996905   557A      1.000142   558A      1.001637  
     559A      1.001725   560A      1.005316   561A      1.008847  
     562A      1.008941   563A      1.016135   564A      1.017498  
     565A      1.018891   566A      1.018979   567A      1.025810  
     568A      1.025975   569A      1.028696   570A      1.028832  
     571A      1.033980   572A      1.034005   573A      1.035932  
     574A      1.046575   575A      1.049274   576A      1.052119  
     577A      1.052189   578A      1.055406   579A      1.055736  
     580A      1.058207   581A      1.062626   582A      1.064576  
     583A      1.072070   584A      1.072122   585A      1.076393  
     586A      1.082956   587A      1.083028   588A      1.084443  
     589A      1.092871   590A      1.094813   591A      1.094815  
     592A      1.098831   593A      1.098864   594A      1.100502  
     595A      1.114051   596A      1.114097   597A      1.118392  
     598A      1.118919   599A      1.122564   600A      1.122593  
     601A      1.124876   602A      1.124896   603A      1.127991  
     604A      1.129178   605A      1.129206   606A      1.134999  
     607A      1.137109   608A      1.137173   609A      1.140354  
     610A      1.141091   611A      1.141326   612A      1.142494  
     613A      1.144705   614A      1.145159   615A      1.152878  
     616A      1.152916   617A      1.161760   618A      1.161920  
     619A      1.163605   620A      1.165536   621A      1.169034  
     622A      1.169761   623A      1.169827   624A      1.178056  
     625A      1.182076   626A      1.182109   627A      1.184543  
     628A      1.184583   629A      1.186697   630A      1.186758  
     631A      1.197209   632A      1.197276   633A      1.197979  
     634A      1.198020   635A      1.199953   636A      1.200019  
     637A      1.200388   638A      1.210612   639A      1.212025  
     640A      1.217376   641A      1.223953   642A      1.224264  
     643A      1.225060   644A      1.225144   645A      1.225727  
     646A      1.229880   647A      1.234192   648A      1.235828  
     649A      1.235958   650A      1.239618   651A      1.240311  
     652A      1.240420   653A      1.246817   654A      1.262161  
     655A      1.262923   656A      1.262947   657A      1.274566  
     658A      1.274685   659A      1.276609   660A      1.279331  
     661A      1.279479   662A      1.285213   663A      1.286526  
     664A      1.286659   665A      1.302613   666A      1.303286  
     667A      1.303297   668A      1.306307   669A      1.306950  
     670A      1.307006   671A      1.319563   672A      1.319573  
     673A      1.321086   674A      1.330425   675A      1.334316  
     676A      1.334634   677A      1.342732   678A      1.342904  
     679A      1.343388   680A      1.343449   681A      1.347881  
     682A      1.347985   683A      1.351278   684A      1.351336  
     685A      1.355834   686A      1.358862   687A      1.362300  
     688A      1.378689   689A      1.381173   690A      1.381916  
     691A      1.384889   692A      1.388588   693A      1.388598  
     694A      1.391324   695A      1.394939   696A      1.395019  
     697A      1.408072   698A      1.408100   699A      1.410207  
     700A      1.410216   701A      1.411917   702A      1.411993  
     703A      1.414436   704A      1.417895   705A      1.423284  
     706A      1.423341   707A      1.423668   708A      1.429328  
     709A      1.439363   710A      1.442605   711A      1.442659  
     712A      1.444687   713A      1.444705   714A      1.447676  
     715A      1.447692   716A      1.460132   717A      1.462765  
     718A      1.462795   719A      1.470168   720A      1.470242  
     721A      1.476864   722A      1.479143   723A      1.487720  
     724A      1.487756   725A      1.496041   726A      1.496064  
     727A      1.502153   728A      1.506051   729A      1.506068  
     730A      1.507666   731A      1.516324   732A      1.516381  
     733A      1.517183   734A      1.520511   735A      1.520928  
     736A      1.520953   737A      1.524278   738A      1.531410  
     739A      1.532053   740A      1.532087   741A      1.534964  
     742A      1.552023   743A      1.552090   744A      1.558990  
     745A      1.559060   746A      1.580561   747A      1.580814  
     748A      1.600754   749A      1.600854   750A      1.606467  
     751A      1.620832   752A      1.620885   753A      1.635171  
     754A      1.638986   755A      1.664517   756A      1.678127  
     757A      1.678885   758A      1.678960   759A      1.691204  
     760A      1.691564   761A      1.706469   762A      1.708884  
     763A      1.709209   764A      1.713388   765A      1.713462  
     766A      1.717352   767A      1.724909   768A      1.724927  
     769A      1.729923   770A      1.731334   771A      1.731577  
     772A      1.732066   773A      1.735558   774A      1.741134  
     775A      1.741349   776A      1.746162   777A      1.746206  
     778A      1.751519   779A      1.751671   780A      1.752427  
     781A      1.760448   782A      1.761226   783A      1.761340  
     784A      1.764158   785A      1.767691   786A      1.767728  
     787A      1.770163   788A      1.776888   789A      1.780156  
     790A      1.780409   791A      1.780441   792A      1.785457  
     793A      1.785512   794A      1.790155   795A      1.795608  
     796A      1.795610   797A      1.802809   798A      1.802850  
     799A      1.827130   800A      1.837186   801A      1.838560  
     802A      1.840937   803A      1.843212   804A      1.843225  
     805A      1.845933   806A      1.861314   807A      1.861340  
     808A      1.877311   809A      1.877324   810A      1.898631  
     811A      1.898646   812A      1.900318   813A      1.904215  
     814A      1.904246   815A      1.915432   816A      1.915514  
     817A      1.927434   818A      1.929028   819A      1.935788  
     820A      1.937543   821A      1.942460   822A      1.942464  
     823A      1.949519   824A      1.951552   825A      1.951591  
     826A      1.956596   827A      1.958084   828A      1.958166  
     829A      1.970839   830A      1.980175   831A      1.980377  
     832A      1.982426   833A      1.990897   834A      1.991058  
     835A      1.993676   836A      1.993824   837A      2.002855  
     838A      2.002967   839A      2.005070   840A      2.005180  
     841A      2.005455   842A      2.011451   843A      2.011519  
     844A      2.017878   845A      2.023155   846A      2.023385  
     847A      2.023518   848A      2.026535   849A      2.026597  
     850A      2.038925   851A      2.039024   852A      2.043566  
     853A      2.047661   854A      2.047691   855A      2.058674  
     856A      2.058839   857A      2.070246   858A      2.077084  
     859A      2.082011   860A      2.082341   861A      2.082642  
     862A      2.086314   863A      2.092799   864A      2.093100  
     865A      2.096459   866A      2.097113   867A      2.097445  
     868A      2.097635   869A      2.103738   870A      2.113478  
     871A      2.114115   872A      2.116077   873A      2.117193  
     874A      2.120244   875A      2.120655   876A      2.129368  
     877A      2.129530   878A      2.135463   879A      2.149026  
     880A      2.149420   881A      2.149684   882A      2.149840  
     883A      2.159197   884A      2.160963   885A      2.161179  
     886A      2.162490   887A      2.165532   888A      2.165598  
     889A      2.176836   890A      2.177067   891A      2.177347  
     892A      2.178795   893A      2.183114   894A      2.183637  
     895A      2.188036   896A      2.188145   897A      2.188279  
     898A      2.188531   899A      2.190940   900A      2.190984  
     901A      2.195728   902A      2.195788   903A      2.196423  
     904A      2.200367   905A      2.200400   906A      2.205338  
     907A      2.205393   908A      2.211337   909A      2.211430  
     910A      2.211556   911A      2.219277   912A      2.220330  
     913A      2.220510   914A      2.226809   915A      2.226877  
     916A      2.236950   917A      2.237100   918A      2.238137  
     919A      2.244864   920A      2.244907   921A      2.251960  
     922A      2.251992   923A      2.262052   924A      2.264429  
     925A      2.264576   926A      2.265348   927A      2.270283  
     928A      2.270395   929A      2.275155   930A      2.280269  
     931A      2.292757   932A      2.304311   933A      2.304351  
     934A      2.304741   935A      2.305477   936A      2.307599  
     937A      2.307617   938A      2.312421   939A      2.319124  
     940A      2.319620   941A      2.321936   942A      2.326670  
     943A      2.326917   944A      2.329330   945A      2.333387  
     946A      2.333535   947A      2.339775   948A      2.339917  
     949A      2.346149   950A      2.346299   951A      2.354060  
     952A      2.354065   953A      2.356652   954A      2.357155  
     955A      2.357432   956A      2.360929   957A      2.384259  
     958A      2.390420   959A      2.398129   960A      2.399878  
     961A      2.412075   962A      2.412590   963A      2.421103  
     964A      2.424111   965A      2.424814   966A      2.433005  
     967A      2.433423   968A      2.441328   969A      2.441872  
     970A      2.447282   971A      2.457336   972A      2.457629  
     973A      2.465247   974A      2.487017   975A      2.499747  
     976A      2.508790   977A      2.508824   978A      2.509881  
     979A      2.515664   980A      2.515780   981A      2.519458  
     982A      2.547548   983A      2.547894   984A      2.556057  
     985A      2.571860   986A      2.571914   987A      2.588534  
     988A      2.597516   989A      2.598264   990A      2.608078  
     991A      2.617177   992A      2.624713   993A      2.633393  
     994A      2.633443   995A      2.634616   996A      2.634661  
     997A      2.642496   998A      2.644918   999A      2.649569  
    1000A      2.649587  1001A      2.657145  1002A      2.657346  
    1003A      2.659179  1004A      2.659187  1005A      2.672435  
    1006A      2.676538  1007A      2.677971  1008A      2.678173  
    1009A      2.689708  1010A      2.692297  1011A      2.716961  
    1012A      2.717473  1013A      2.723077  1014A      2.723311  
    1015A      2.725982  1016A      2.726165  1017A      2.733160  
    1018A      2.739896  1019A      2.740123  1020A      2.740226  
    1021A      2.768049  1022A      2.773525  1023A      2.774283  
    1024A      2.778591  1025A      2.788642  1026A      2.788715  
    1027A      2.800057  1028A      2.800136  1029A      2.808432  
    1030A      2.808511  1031A      2.810463  1032A      2.810655  
    1033A      2.814399  1034A      2.843337  1035A      2.843812  
    1036A      2.865257  1037A      2.883254  1038A      2.883295  
    1039A      2.908544  1040A      2.916008  1041A      2.916735  
    1042A      2.920361  1043A      2.943616  1044A      2.943734  
    1045A      2.946557  1046A      2.949758  1047A      2.950555  
    1048A      2.950635  1049A      3.001319  1050A      3.001327  
    1051A      3.005710  1052A      3.022686  1053A      3.022724  
    1054A      3.043313  1055A      3.043402  1056A      3.047350  
    1057A      3.085925  1058A      3.086081  1059A      3.092952  
    1060A      3.099173  1061A      3.139497  1062A      3.154078  
    1063A      3.154100  1064A      3.157500  1065A      3.157615  
    1066A      3.179542  1067A      3.179659  1068A      3.203772  
    1069A      3.204119  1070A      3.210418  1071A      3.219960  
    1072A      3.220143  1073A      3.221694  1074A      3.232315  
    1075A      3.232342  1076A      3.234637  1077A      3.234685  
    1078A      3.237484  1079A      3.244147  1080A      3.244335  
    1081A      3.253585  1082A      3.254087  1083A      3.273478  
    1084A      3.292345  1085A      3.310924  1086A      3.326790  
    1087A      3.352499  1088A      3.363563  1089A      3.364261  
    1090A      3.375785  1091A      3.379406  1092A      3.380093  
    1093A      3.508810  1094A      3.509073  1095A      3.512223  
    1096A      3.578114  1097A      3.580006  1098A      3.606914  
    1099A      3.672440  1100A      3.677916  1101A      3.679303  
    1102A      3.688409  1103A      3.717968  1104A      3.719530  
    1105A      3.760849  1106A      3.782245  1107A      3.858317  
    1108A      3.880724  1109A      3.881438  1110A      3.954866  
    1111A      3.954893  1112A      3.998125  1113A      3.998165  
    1114A      4.067034  1115A      4.100721  1116A      4.141335  
    1117A      4.147468  1118A      4.148940  1119A      4.174117  
    1120A      4.188816  1121A      4.188899  1122A      4.201254  
    1123A      4.201696  1124A      4.255216  1125A      4.257823  
    1126A      4.288514  1127A      4.330601  1128A      4.377507  
    1129A      4.378245  1130A      4.439805  1131A      4.443664  
    1132A      4.445313  1133A      4.635522  1134A      4.646410  
    1135A      4.646458  1136A      4.735524  1137A      4.755139  
    1138A      4.755508  

    Final Occupation by Irrep:
              A 
    DOCC [   192 ]
    NA   [   192 ]
    NB   [   192 ]

  @DF-RHF Final Energy: -2478.54035012572058

   => Energetics <=

    Nuclear Repulsion Energy =           8046.2386095315778221
    One-Electron Energy =              -19451.5162173604330746
    Two-Electron Energy =                8926.7372577031346736
    Total Energy =                      -2478.5403501257205789

Computation Completed


Properties will be evaluated at   0.000000,   0.000000,   0.000000 [a0]

Properties computed using the SCF density matrix


 Multipole Moments:

 ------------------------------------------------------------------------------------
     Multipole            Electronic (a.u.)      Nuclear  (a.u.)        Total (a.u.)
 ------------------------------------------------------------------------------------

 L = 1.  Multiply by 2.5417464519 to convert [e a0] to [Debye]
 Dipole X            :         -0.0004031            0.0000481           -0.0003551
 Dipole Y            :          0.0007526           -0.0001453            0.0006073
 Dipole Z            :        -15.0608974           18.3911561            3.3302587
 Magnitude           :                                                    3.3302588

 ------------------------------------------------------------------------------------

*** tstop() called on d-16-5-1 at Mon Jan 22 09:27:53 2024
Module time:
	user time   =    3784.96 seconds =      63.08 minutes
	system time =     100.63 seconds =       1.68 minutes
	total time  =        405 seconds =       6.75 minutes
Total time:
	user time   =    3784.96 seconds =      63.08 minutes
	system time =     100.63 seconds =       1.68 minutes
	total time  =        405 seconds =       6.75 minutes

  //>>>>>>>>>>>>>>>>>>>>>>>>>>>>>>>>>>>//
  //            Monomer A HF           //
  //<<<<<<<<<<<<<<<<<<<<<<<<<<<<<<<<<<<//

   => Libint2 <=

    Primary   basis highest AM E, G, H:  7, 7, 4
    Auxiliary basis highest AM E, G, H:  7, 7, 5
    Onebody   basis highest AM E, G, H:  7, 7, 5
    Solid Harmonics ordering:            gaussian

*** tstart() called on d-16-5-1
*** at Mon Jan 22 09:27:53 2024

   => Loading Basis Set <=

    Name: JUN-CC-PVDZ
    Role: ORBITAL
    Keyword: BASIS
    atoms 1     entry B          line   130 file /home/gridsan/tfroembgen/.conda/envs/psi4test/share/psi4/basis/jun-cc-pvdz.gbs 
    atoms 2-5   entry F          line   266 file /home/gridsan/tfroembgen/.conda/envs/psi4test/share/psi4/basis/jun-cc-pvdz.gbs 
    atoms 6-59  entry C          line   164 file /home/gridsan/tfroembgen/.conda/envs/psi4test/share/psi4/basis/jun-cc-pvdz.gbs 
    atoms 60-77 entry H          line    36 file /home/gridsan/tfroembgen/.conda/envs/psi4test/share/psi4/basis/jun-cc-pvdz.gbs 


         ---------------------------------------------------------
                                   SCF
               by Justin Turney, Rob Parrish, Andy Simmonett
                          and Daniel G. A. Smith
                              RHF Reference
                       12 Threads,  30517 MiB Core
         ---------------------------------------------------------

  ==> Geometry <==

    Molecular point group: c1
    Full point group: C1

    Geometry (in Angstrom), charge = -1, multiplicity = 1:

       Center              X                  Y                   Z               Mass       
    ------------   -----------------  -----------------  -----------------  -----------------
         B           -0.000198161052     0.000273808717    -2.653404785174    11.009305360000
         F           -0.000000401852    -0.000000464183    -1.240619785174    18.998403162730
         F            1.147859598148     0.675780735817    -3.124545785174    18.998403162730
         F            0.011917658148    -1.332011464183    -3.124343785174    18.998403162730
         F           -1.159666401852     0.656073035817    -3.124264785174    18.998403162730
      Gh(C)           1.225311973413     0.707538196736     0.352698842109    12.000000000000
      Gh(C)           1.225323934041    -0.707538986754     0.340368032539    12.000000000000
      Gh(C)          -0.000006075942     1.414965821907     0.339834409018    12.000000000000
      Gh(C)           2.456448831939     1.418327794995     0.355585699509    12.000000000000
      Gh(C)           0.000010905269    -1.414976590818     0.350033966343    12.000000000000
      Gh(C)          -1.225300870919     0.707545281801     0.354950362432    12.000000000000
      Gh(C)           2.456437833310    -1.418323396064     0.338122875682    12.000000000000
      Gh(C)          -0.000001254988     2.836800939098     0.337430858884    12.000000000000
      Gh(C)           3.681826775460     0.709317863818     0.338471665480    12.000000000000
      Gh(C)           2.455120126855     2.834223569306     0.338369108519    12.000000000000
      Gh(C)           3.681821183209    -0.709333931612     0.354544149498    12.000000000000
      Gh(C)          -1.225313520698    -0.707527607727     0.341440793966    12.000000000000
      Gh(C)           1.226699659192     3.543469391811     0.354728181429    12.000000000000
      Gh(C)           0.000004862847    -2.836782231419     0.354882133964    12.000000000000
      Gh(C)          -2.456435954859     1.418316826102     0.354985758278    12.000000000000
      Gh(C)           2.455123495769    -2.834230120772     0.354392241131    12.000000000000
      Gh(C)          -1.226714286599     3.543468971567     0.354831514648    12.000000000000
      Gh(C)           4.914517373191     1.427172780306     0.344952348510    12.000000000000
      Gh(C)           3.693150269466     3.542795200362     0.345002148146    12.000000000000
      Gh(C)          -2.456437522078    -1.418313373022     0.338097837558    12.000000000000
      Gh(C)           1.226704919933    -3.543474334090     0.338758050679    12.000000000000
      Gh(C)          -2.455125320518     2.834216570451     0.338375484866    12.000000000000
      Gh(C)           4.914524458772    -1.427187002127     0.347925091244    12.000000000000
      Gh(C)           1.221424691688     4.970133973077     0.348063525504    12.000000000000
      Gh(C)           4.893008307311     2.825187907843     0.346169016868    12.000000000000
      Gh(C)          -1.226696930499    -3.543471089260     0.339025255089    12.000000000000
      Gh(C)          -3.681818898536     0.709324874549     0.338484345960    12.000000000000
      Gh(C)           3.693147179140    -3.542801433574     0.348042981805    12.000000000000
      Gh(C)          -1.221432174004     4.970128205680     0.348247020876    12.000000000000
      Gh(C)           6.134771050916     0.680547854922     0.345722123059    12.000000000000
      Gh(C)           3.656788958600     4.972953151384     0.345910785928    12.000000000000
      Gh(C)          -2.455126829744    -2.834215185244     0.354147883333    12.000000000000
      Gh(C)          -3.681819101071    -0.709325795652     0.354661771077    12.000000000000
      Gh(C)           4.893012695903    -2.825200197815     0.346780168764    12.000000000000
      Gh(C)          -0.000000995123     5.650447273849     0.347015712170    12.000000000000
      Gh(C)           6.134775190322    -0.680554946258     0.346987443575    12.000000000000
      Gh(C)           2.478131560845     5.653576659148     0.347199565578    12.000000000000
      Gh(C)           1.221422482727    -4.970127147116     0.345264028481    12.000000000000
      Gh(C)          -3.693162305975     3.542796862009     0.345167655605    12.000000000000
      Gh(C)          -1.221428442955    -4.970118395779     0.345151266648    12.000000000000
      Gh(C)          -4.914521729952     1.427175354812     0.345029293517    12.000000000000
      Gh(C)           3.656787097669    -4.972955318422     0.347361286462    12.000000000000
      Gh(C)          -2.478138452116     5.653574330345     0.347484090587    12.000000000000
      Gh(C)          -3.693141660574    -3.542790311162     0.347926855649    12.000000000000
      Gh(C)          -4.914512405063    -1.427181092211     0.347959788418    12.000000000000
      Gh(C)          -0.000005930936    -5.650438379197     0.346620208048    12.000000000000
      Gh(C)          -4.893020406111     2.825188506736     0.346158935008    12.000000000000
      Gh(C)           2.478126071288    -5.653573636072     0.346270685670    12.000000000000
      Gh(C)          -3.656798632268     4.972956089858     0.346087466303    12.000000000000
      Gh(C)          -4.892999400866    -2.825191859243     0.346626133066    12.000000000000
      Gh(C)          -2.478128420093    -5.653566262190     0.345995498023    12.000000000000
      Gh(C)          -6.134770425341     0.680548674073     0.345696571357    12.000000000000
      Gh(C)          -3.656788755199    -4.972944115154     0.347146998646    12.000000000000
      Gh(C)          -6.134764964923    -0.680554007665     0.346966967780    12.000000000000
      Gh(H)           5.835288573806     3.369275802771     0.350528342531     1.007825032230
      Gh(H)           7.073859250737     1.228217156716     0.346183766453     1.007825032230
      Gh(H)           4.600663342164     5.512380710270     0.346415986680     1.007825032230
      Gh(H)           5.835283465295    -3.369306148912     0.342325701449     1.007825032230
      Gh(H)          -0.000012073316     6.738530581953     0.342666467162     1.007825032230
      Gh(H)           7.073861249820    -1.228227034927     0.346478705481     1.007825032230
      Gh(H)           2.473313809789     6.740684199211     0.346732844648     1.007825032230
      Gh(H)           4.600668569371    -5.512376221359     0.346951289294     1.007825032230
      Gh(H)          -2.473318602548     6.740681627423     0.347034191273     1.007825032230
      Gh(H)          -0.000010190238    -6.738528268635     0.351149893033     1.007825032230
      Gh(H)          -5.835301836354     3.369270858113     0.350664364679     1.007825032230
      Gh(H)           2.473308001821    -6.740685466612     0.346841016095     1.007825032230
      Gh(H)          -4.600674763218     5.512377934420     0.346581315004     1.007825032230
      Gh(H)          -5.835279428845    -3.369289055963     0.342046395568     1.007825032230
      Gh(H)          -2.473300269450    -6.740679170323     0.346391699551     1.007825032230
      Gh(H)          -7.073857688778     1.228220380657     0.346099774972     1.007825032230
      Gh(H)          -4.600673708095    -5.512362761970     0.346778981271     1.007825032230
      Gh(H)          -7.073856856419    -1.228220724160     0.346383849015     1.007825032230

  Running in c1 symmetry.

  Rotational constants: A =      0.00201  B =      0.00201  C =      0.00110 [cm^-1]
  Rotational constants: A =     60.20285  B =     60.19446  C =     33.02251 [MHz]
  Nuclear repulsion =  178.879455044809106

  Charge       = -1
  Multiplicity = 1
  Electrons    = 42
  Nalpha       = 21
  Nbeta        = 21

  ==> Algorithm <==

  SCF Algorithm Type is DF.
  DIIS enabled.
  MOM disabled.
  Fractional occupation disabled.
  Guess Type is SAD.
  Energy threshold   = 1.00e-08
  Density threshold  = 1.00e-08
  Integral threshold = 1.00e-12

  ==> Primary Basis <==

  Basis Set: JUN-CC-PVDZ
    Blend: JUN-CC-PVDZ
    Number of shells: 526
    Number of basis functions: 1152
    Number of Cartesian functions: 1211
    Spherical Harmonics?: true
    Max angular momentum: 2

   => Loading Basis Set <=

    Name: (JUN-CC-PVDZ AUX)
    Role: JKFIT
    Keyword: DF_BASIS_SCF
    atoms 1     entry B          line    90 file /home/gridsan/tfroembgen/.conda/envs/psi4test/share/psi4/basis/jun-cc-pvdz-jkfit.gbs 
    atoms 2-5   entry F          line   314 file /home/gridsan/tfroembgen/.conda/envs/psi4test/share/psi4/basis/jun-cc-pvdz-jkfit.gbs 
    atoms 6-59  entry C          line   146 file /home/gridsan/tfroembgen/.conda/envs/psi4test/share/psi4/basis/jun-cc-pvdz-jkfit.gbs 
    atoms 60-77 entry H          line    70 file /home/gridsan/tfroembgen/.conda/envs/psi4test/share/psi4/basis/jun-cc-pvdz-jkfit.gbs 

  ==> Integral Setup <==

  ==> DiskDFJK: Density-Fitted J/K Matrices <==

    J tasked:                  Yes
    K tasked:                  Yes
    wK tasked:                  No
    OpenMP threads:             12
    Integrals threads:          12
    Memory [MiB]:            22888
    Algorithm:                Core
    Integral Cache:           LOAD
    Schwarz Cutoff:          1E-12
    Fitting Condition:       1E-10

   => Auxiliary Basis Set <=

  Basis Set: (JUN-CC-PVDZ AUX)
    Blend: JUN-CC-PVDZ-JKFIT
    Number of shells: 1755
    Number of basis functions: 5075
    Number of Cartesian functions: 5819
    Spherical Harmonics?: true
    Max angular momentum: 3

  Minimum eigenvalue in the overlap matrix is 7.5529842016E-10.
  Reciprocal condition number of the overlap matrix is 3.1174650592E-11.
    Using canonical orthogonalization.
  Overall, 14 of 1152 possible MOs eliminated.


  ==> Pre-Iterations <==

  SCF Guess: Superposition of Atomic Densities via on-the-fly atomic UHF (no occupation information).

   -------------------------
    Irrep   Nso     Nmo    
   -------------------------
     A       1152    1138 
   -------------------------
    Total    1152    1138
   -------------------------

  ==> Iterations <==

                           Total Energy        Delta E     RMS |[F,P]|

   @DF-RHF iter SAD:  -421.23046129450967   -4.21230e+02   0.00000e+00 
   @DF-RHF iter   1:  -422.65329613696912   -1.42283e+00   5.30890e-04 ADIIS/DIIS
   @DF-RHF iter   2:  -422.73626337933729   -8.29672e-02   3.24099e-04 ADIIS/DIIS
   @DF-RHF iter   3:  -422.77464592839698   -3.83825e-02   1.75607e-05 DIIS
   @DF-RHF iter   4:  -422.77500960276325   -3.63674e-04   2.82647e-06 DIIS
   @DF-RHF iter   5:  -422.77501845404680   -8.85128e-06   7.55666e-07 DIIS
   @DF-RHF iter   6:  -422.77501908751509   -6.33468e-07   1.79050e-07 DIIS
   @DF-RHF iter   7:  -422.77501911371962   -2.62045e-08   6.45606e-08 DIIS
   @DF-RHF iter   8:  -422.77501911562655   -1.90693e-09   7.81386e-09 DIIS
  Energy and wave function converged.


  ==> Post-Iterations <==

    Orbital Energies [Eh]
    ---------------------

    Doubly Occupied:                                                      

       1A    -26.067692     2A    -26.066866     3A    -26.066773  
       4A    -26.066688     5A     -7.537881     6A     -1.410103  
       7A     -1.350720     8A     -1.350559     9A     -1.350091  
      10A     -0.601438    11A     -0.527690    12A     -0.527656  
      13A     -0.527603    14A     -0.446481    15A     -0.446439  
      16A     -0.407983    17A     -0.407834    18A     -0.407749  
      19A     -0.384502    20A     -0.384197    21A     -0.384135  

    Virtual:                                                              

      22A      0.093466    23A      0.094079    24A      0.094085  
      25A      0.100306    26A      0.100310    27A      0.111410  
      28A      0.112030    29A      0.127398    30A      0.127399  
      31A      0.128722    32A      0.138106    33A      0.138111  
      34A      0.145239    35A      0.145247    36A      0.148089  
      37A      0.150704    38A      0.150713    39A      0.152786  
      40A      0.152799    41A      0.163027    42A      0.163030  
      43A      0.164404    44A      0.166457    45A      0.166681  
      46A      0.172342    47A      0.173577    48A      0.179779  
      49A      0.180157    50A      0.182890    51A      0.184613  
      52A      0.184619    53A      0.191029    54A      0.191035  
      55A      0.191684    56A      0.191707    57A      0.197443  
      58A      0.197477    59A      0.204028    60A      0.204038  
      61A      0.204624    62A      0.206475    63A      0.206487  
      64A      0.208834    65A      0.208840    66A      0.211868  
      67A      0.215313    68A      0.215315    69A      0.218269  
      70A      0.218283    71A      0.221610    72A      0.225011  
      73A      0.225017    74A      0.226755    75A      0.228099  
      76A      0.235836    77A      0.235855    78A      0.236134  
      79A      0.239636    80A      0.239654    81A      0.240306  
      82A      0.240308    83A      0.244611    84A      0.247386  
      85A      0.247391    86A      0.248294    87A      0.252429  
      88A      0.252899    89A      0.259718    90A      0.260879  
      91A      0.260896    92A      0.262018    93A      0.266388  
      94A      0.271389    95A      0.271392    96A      0.273158  
      97A      0.276318    98A      0.279788    99A      0.279811  
     100A      0.281764   101A      0.281780   102A      0.284351  
     103A      0.284362   104A      0.286137   105A      0.286147  
     106A      0.290351   107A      0.290354   108A      0.290574  
     109A      0.296153   110A      0.299465   111A      0.302764  
     112A      0.302779   113A      0.306881   114A      0.306890  
     115A      0.314057   116A      0.314116   117A      0.314160  
     118A      0.314788   119A      0.315710   120A      0.315728  
     121A      0.318548   122A      0.323505   123A      0.328661  
     124A      0.328677   125A      0.329237   126A      0.329244  
     127A      0.332003   128A      0.332011   129A      0.333262  
     130A      0.341172   131A      0.341196   132A      0.342852  
     133A      0.344597   134A      0.344625   135A      0.350619  
     136A      0.350651   137A      0.350995   138A      0.355249  
     139A      0.356455   140A      0.356474   141A      0.357689  
     142A      0.359698   143A      0.359705   144A      0.362732  
     145A      0.362741   146A      0.366702   147A      0.376510  
     148A      0.376844   149A      0.385086   150A      0.389257  
     151A      0.389277   152A      0.391651   153A      0.391722  
     154A      0.391985   155A      0.396221   156A      0.396270  
     157A      0.398360   158A      0.405186   159A      0.405189  
     160A      0.405339   161A      0.411525   162A      0.411935  
     163A      0.411957   164A      0.414162   165A      0.414204  
     166A      0.415181   167A      0.417980   168A      0.425376  
     169A      0.431126   170A      0.431309   171A      0.434185  
     172A      0.434196   173A      0.437982   174A      0.441446  
     175A      0.442799   176A      0.442836   177A      0.444405  
     178A      0.446415   179A      0.446475   180A      0.447955  
     181A      0.448024   182A      0.449706   183A      0.450180  
     184A      0.450278   185A      0.456514   186A      0.461719  
     187A      0.461888   188A      0.463516   189A      0.466278  
     190A      0.466369   191A      0.467327   192A      0.468863  
     193A      0.468952   194A      0.473321   195A      0.473355  
     196A      0.482420   197A      0.482485   198A      0.487178  
     199A      0.487273   200A      0.493100   201A      0.493132  
     202A      0.493519   203A      0.502888   204A      0.504719  
     205A      0.504741   206A      0.505047   207A      0.507787  
     208A      0.508606   209A      0.513560   210A      0.513597  
     211A      0.519548   212A      0.520300   213A      0.520344  
     214A      0.520620   215A      0.520663   216A      0.522018  
     217A      0.523470   218A      0.523526   219A      0.528118  
     220A      0.529103   221A      0.529182   222A      0.533012  
     223A      0.534258   224A      0.534355   225A      0.537239  
     226A      0.539752   227A      0.539778   228A      0.540467  
     229A      0.553413   230A      0.553607   231A      0.554958  
     232A      0.555763   233A      0.555959   234A      0.560805  
     235A      0.566270   236A      0.566276   237A      0.567525  
     238A      0.568753   239A      0.568845   240A      0.569916  
     241A      0.570620   242A      0.570698   243A      0.575911  
     244A      0.575960   245A      0.581126   246A      0.587385  
     247A      0.589523   248A      0.589577   249A      0.597677  
     250A      0.597696   251A      0.598741   252A      0.601646  
     253A      0.603554   254A      0.603640   255A      0.604860  
     256A      0.608660   257A      0.608718   258A      0.610080  
     259A      0.612800   260A      0.613819   261A      0.613912  
     262A      0.617619   263A      0.617652   264A      0.618423  
     265A      0.621350   266A      0.624510   267A      0.638737  
     268A      0.638817   269A      0.640417   270A      0.644905  
     271A      0.644928   272A      0.648620   273A      0.648731  
     274A      0.650053   275A      0.650513   276A      0.650620  
     277A      0.658111   278A      0.660198   279A      0.660827  
     280A      0.663953   281A      0.663964   282A      0.673513  
     283A      0.673561   284A      0.679777   285A      0.679797  
     286A      0.682242   287A      0.682276   288A      0.686421  
     289A      0.693360   290A      0.693434   291A      0.693585  
     292A      0.697825   293A      0.697839   294A      0.699268  
     295A      0.699279   296A      0.701963   297A      0.710829  
     298A      0.710876   299A      0.715506   300A      0.720792  
     301A      0.722948   302A      0.725118   303A      0.725170  
     304A      0.725444   305A      0.725463   306A      0.726780  
     307A      0.731321   308A      0.733108   309A      0.741974  
     310A      0.743720   311A      0.743744   312A      0.748879  
     313A      0.752079   314A      0.752608   315A      0.752701  
     316A      0.757206   317A      0.757234   318A      0.758777  
     319A      0.762121   320A      0.762145   321A      0.767963  
     322A      0.767977   323A      0.773529   324A      0.775742  
     325A      0.783673   326A      0.783804   327A      0.785306  
     328A      0.789770   329A      0.789808   330A      0.791554  
     331A      0.791969   332A      0.798464   333A      0.798507  
     334A      0.799296   335A      0.799334   336A      0.814622  
     337A      0.814707   338A      0.818148   339A      0.818265  
     340A      0.828349   341A      0.830673   342A      0.830804  
     343A      0.833923   344A      0.833994   345A      0.834534  
     346A      0.840993   347A      0.841813   348A      0.845977  
     349A      0.845996   350A      0.857205   351A      0.857345  
     352A      0.858802   353A      0.862853   354A      0.862878  
     355A      0.868424   356A      0.868481   357A      0.875998  
     358A      0.879975   359A      0.880755   360A      0.880797  
     361A      0.882222   362A      0.883991   363A      0.884060  
     364A      0.888664   365A      0.889004   366A      0.892879  
     367A      0.892891   368A      0.896627   369A      0.898857  
     370A      0.906475   371A      0.906483   372A      0.907895  
     373A      0.907902   374A      0.919343   375A      0.919359  
     376A      0.922737   377A      0.935799   378A      0.940914  
     379A      0.940923   380A      0.958739   381A      0.964507  
     382A      0.971178   383A      0.971325   384A      0.971368  
     385A      0.978931   386A      0.978937   387A      0.988847  
     388A      0.988885   389A      0.990710   390A      0.991590  
     391A      0.991629   392A      0.992971   393A      0.993099  
     394A      1.000876   395A      1.003595   396A      1.003710  
     397A      1.034973   398A      1.044616   399A      1.044633  
     400A      1.052279   401A      1.052337   402A      1.058844  
     403A      1.060377   404A      1.060408   405A      1.065051  
     406A      1.069524   407A      1.073546   408A      1.073568  
     409A      1.091690   410A      1.091714   411A      1.107109  
     412A      1.110926   413A      1.130350   414A      1.144955  
     415A      1.144974   416A      1.153180   417A      1.154194  
     418A      1.154229   419A      1.157580   420A      1.157609  
     421A      1.170842   422A      1.170870   423A      1.174148  
     424A      1.186817   425A      1.186840   426A      1.189351  
     427A      1.208750   428A      1.249927   429A      1.259091  
     430A      1.259190   431A      1.260899   432A      1.260921  
     433A      1.267611   434A      1.267627   435A      1.293894  
     436A      1.293923   437A      1.297740   438A      1.317313  
     439A      1.317321   440A      1.323963   441A      1.332163  
     442A      1.336288   443A      1.392095   444A      1.402003  
     445A      1.402032   446A      1.402558   447A      1.402617  
     448A      1.409728   449A      1.417778   450A      1.417805  
     451A      1.430095   452A      1.441887   453A      1.449001  
     454A      1.449099   455A      1.450856   456A      1.471350  
     457A      1.471438   458A      1.532499   459A      1.558790  
     460A      1.558952   461A      1.569244   462A      1.569289  
     463A      1.578299   464A      1.579461   465A      1.579826  
     466A      1.591083   467A      1.591669   468A      1.641136  
     469A      1.644442   470A      1.656111   471A      1.657001  
     472A      1.657226   473A      1.665294   474A      1.665550  
     475A      1.678819   476A      1.686410   477A      1.686520  
     478A      1.702671   479A      1.741748   480A      1.742577  
     481A      1.749711   482A      1.762092   483A      1.770833  
     484A      1.770895   485A      1.782061   486A      1.792413  
     487A      1.792802   488A      1.803355   489A      1.817269  
     490A      1.817424   491A      1.831539   492A      1.837463  
     493A      1.838236   494A      1.840342   495A      1.840986  
     496A      1.841498   497A      1.848448   498A      1.849011  
     499A      1.860610   500A      1.865397   501A      1.869484  
     502A      1.869524   503A      1.879580   504A      1.881010  
     505A      1.887272   506A      1.890013   507A      1.890644  
     508A      1.914148   509A      1.914853   510A      1.917151  
     511A      1.921858   512A      1.922918   513A      1.923243  
     514A      1.929018   515A      1.929217   516A      1.934164  
     517A      1.934964   518A      1.935057   519A      1.937097  
     520A      1.940908   521A      1.941265   522A      1.942982  
     523A      1.943135   524A      1.945644   525A      1.970515  
     526A      1.972028   527A      1.977746   528A      1.982080  
     529A      1.982451   530A      1.983694   531A      1.983998  
     532A      1.987660   533A      1.988432   534A      1.995295  
     535A      1.997060   536A      1.997419   537A      2.009624  
     538A      2.009785   539A      2.015701   540A      2.019399  
     541A      2.019986   542A      2.022372   543A      2.022850  
     544A      2.025113   545A      2.033809   546A      2.034049  
     547A      2.036196   548A      2.038421   549A      2.049577  
     550A      2.049599   551A      2.058557   552A      2.058583  
     553A      2.068064   554A      2.074365   555A      2.074405  
     556A      2.078133   557A      2.078489   558A      2.084562  
     559A      2.089148   560A      2.089434   561A      2.091204  
     562A      2.092217   563A      2.092417   564A      2.093037  
     565A      2.098251   566A      2.100887   567A      2.110632  
     568A      2.110824   569A      2.116778   570A      2.116888  
     571A      2.130965   572A      2.131005   573A      2.157429  
     574A      2.157709   575A      2.164513   576A      2.169324  
     577A      2.171617   578A      2.171765   579A      2.172999  
     580A      2.178642   581A      2.181577   582A      2.181675  
     583A      2.185852   584A      2.194294   585A      2.194582  
     586A      2.195156   587A      2.197658   588A      2.207000  
     589A      2.213086   590A      2.213187   591A      2.225390  
     592A      2.225414   593A      2.228852   594A      2.229022  
     595A      2.231581   596A      2.232127   597A      2.232256  
     598A      2.232529   599A      2.236554   600A      2.236681  
     601A      2.239068   602A      2.243814   603A      2.243956  
     604A      2.244342   605A      2.247459   606A      2.247564  
     607A      2.247593   608A      2.247954   609A      2.252605  
     610A      2.253908   611A      2.253926   612A      2.257015  
     613A      2.259896   614A      2.260053   615A      2.265780  
     616A      2.265869   617A      2.265937   618A      2.268844  
     619A      2.268884   620A      2.270892   621A      2.270927  
     622A      2.277284   623A      2.278282   624A      2.278432  
     625A      2.282941   626A      2.286788   627A      2.287052  
     628A      2.291645   629A      2.291774   630A      2.294534  
     631A      2.294738   632A      2.296060   633A      2.302401  
     634A      2.319148   635A      2.325725   636A      2.325760  
     637A      2.325871   638A      2.338350   639A      2.338396  
     640A      2.342337   641A      2.348956   642A      2.351345  
     643A      2.351541   644A      2.353222   645A      2.353251  
     646A      2.366912   647A      2.366999   648A      2.371432  
     649A      2.371589   650A      2.372252   651A      2.372946  
     652A      2.373061   653A      2.379948   654A      2.379969  
     655A      2.384025   656A      2.384070   657A      2.391340  
     658A      2.393712   659A      2.393769   660A      2.399854  
     661A      2.399935   662A      2.408697   663A      2.419553  
     664A      2.426052   665A      2.426112   666A      2.429216  
     667A      2.447257   668A      2.450351   669A      2.450500  
     670A      2.451765   671A      2.451786   672A      2.454220  
     673A      2.461225   674A      2.461396   675A      2.462306  
     676A      2.469289   677A      2.469325   678A      2.472183  
     679A      2.474735   680A      2.475357   681A      2.475472  
     682A      2.475853   683A      2.482062   684A      2.483211  
     685A      2.483372   686A      2.496268   687A      2.499469  
     688A      2.499739   689A      2.502328   690A      2.508953  
     691A      2.509122   692A      2.511466   693A      2.518426  
     694A      2.518473   695A      2.521585   696A      2.534298  
     697A      2.534426   698A      2.541527   699A      2.541538  
     700A      2.547350   701A      2.559987   702A      2.560113  
     703A      2.565844   704A      2.565978   705A      2.568330  
     706A      2.573634   707A      2.577208   708A      2.577253  
     709A      2.583208   710A      2.587332   711A      2.590577  
     712A      2.590683   713A      2.598032   714A      2.598048  
     715A      2.607231   716A      2.607370   717A      2.607621  
     718A      2.608987   719A      2.609235   720A      2.618348  
     721A      2.621272   722A      2.636444   723A      2.637560  
     724A      2.642105   725A      2.645618   726A      2.645759  
     727A      2.651710   728A      2.651777   729A      2.659416  
     730A      2.662382   731A      2.662521   732A      2.667193  
     733A      2.669941   734A      2.673439   735A      2.673479  
     736A      2.679275   737A      2.679362   738A      2.700985  
     739A      2.701037   740A      2.715475   741A      2.719760  
     742A      2.719790   743A      2.725582   744A      2.726589  
     745A      2.726634   746A      2.728282   747A      2.737391  
     748A      2.737435   749A      2.743039   750A      2.747621  
     751A      2.747782   752A      2.748059   753A      2.751637  
     754A      2.752051   755A      2.772015   756A      2.772343  
     757A      2.773619   758A      2.777913   759A      2.778195  
     760A      2.786329   761A      2.786790   762A      2.796436  
     763A      2.796501   764A      2.800573   765A      2.801812  
     766A      2.807883   767A      2.808019   768A      2.814599  
     769A      2.814927   770A      2.820187   771A      2.820276  
     772A      2.820520   773A      2.834358   774A      2.840810  
     775A      2.841329   776A      2.844323   777A      2.851195  
     778A      2.851479   779A      2.851763   780A      2.856720  
     781A      2.856838   782A      2.864720   783A      2.887922  
[...]
     727A      1.456141   728A      1.460858   729A      1.460907  
     730A      1.465821   731A      1.465898   732A      1.488331  
     733A      1.488390   734A      1.509330   735A      1.509496  
     736A      1.520496   737A      1.523445   738A      1.523588  
     739A      1.534031   740A      1.552492   741A      1.575921  
     742A      1.578207   743A      1.578357   744A      1.594243  
     745A      1.594717   746A      1.604848   747A      1.607230  
     748A      1.607455   749A      1.611991   750A      1.612083  
     751A      1.613539   752A      1.626481   753A      1.628265  
     754A      1.628528   755A      1.642225   756A      1.642467  
     757A      1.643743   758A      1.645124   759A      1.645666  
     760A      1.645900   761A      1.649344   762A      1.661864  
     763A      1.661892   764A      1.667900   765A      1.674135  
     766A      1.674165   767A      1.677388   768A      1.679869  
     769A      1.680529   770A      1.680701   771A      1.682428  
     772A      1.682480   773A      1.690599   774A      1.690706  
     775A      1.694481   776A      1.696619   777A      1.700408  
     778A      1.702500   779A      1.702563   780A      1.708324  
     781A      1.708438   782A      1.716202   783A      1.716295  
     784A      1.742002   785A      1.751867   786A      1.752922  
     787A      1.761216   788A      1.761660   789A      1.761707  
     790A      1.761845   791A      1.765964   792A      1.766035  
     793A      1.785209   794A      1.785271   795A      1.796866  
     796A      1.796893   797A      1.817866   798A      1.819100  
     799A      1.819128   800A      1.822765   801A      1.822773  
     802A      1.826352   803A      1.841538   804A      1.841580  
     805A      1.842634   806A      1.844155   807A      1.854999  
     808A      1.862471   809A      1.862483   810A      1.865832  
     811A      1.866129   812A      1.869508   813A      1.869802  
     814A      1.869846   815A      1.879327   816A      1.879364  
     817A      1.897245   818A      1.898000   819A      1.898053  
     820A      1.900756   821A      1.900875   822A      1.902166  
     823A      1.910617   824A      1.910738   825A      1.917176  
     826A      1.917266   827A      1.919677   828A      1.919914  
     829A      1.920025   830A      1.929646   831A      1.929689  
     832A      1.941396   833A      1.943329   834A      1.945192  
     835A      1.945257   836A      1.946170   837A      1.947836  
     838A      1.947854   839A      1.957270   840A      1.957312  
     841A      1.958265   842A      1.968049   843A      1.968310  
     844A      1.988515   845A      1.988735   846A      1.992853  
     847A      1.997332   848A      1.999237   849A      1.999294  
     850A      2.005178   851A      2.009033   852A      2.012111  
     853A      2.012693   854A      2.017085   855A      2.017445  
     856A      2.028787   857A      2.030100   858A      2.032340  
     859A      2.032554   860A      2.032976   861A      2.048831  
     862A      2.050255   863A      2.050522   864A      2.054345  
     865A      2.056780   866A      2.056883   867A      2.065411  
     868A      2.065576   869A      2.071284   870A      2.078895  
     871A      2.079128   872A      2.079175   873A      2.079297  
     874A      2.085438   875A      2.093133   876A      2.093197  
     877A      2.093338   878A      2.096723   879A      2.098313  
     880A      2.099964   881A      2.103202   882A      2.103280  
     883A      2.110314   884A      2.110415   885A      2.110486  
     886A      2.112644   887A      2.114764   888A      2.114859  
     889A      2.117889   890A      2.118025   891A      2.120864  
     892A      2.122450   893A      2.122588   894A      2.133138  
     895A      2.133322   896A      2.134777   897A      2.137840  
     898A      2.138133   899A      2.140072   900A      2.141571  
     901A      2.141611   902A      2.158918   903A      2.158998  
     904A      2.166067   905A      2.166133   906A      2.169098  
     907A      2.169293   908A      2.173899   909A      2.180544  
     910A      2.180741   911A      2.188611   912A      2.192885  
     913A      2.194879   914A      2.194978   915A      2.197823  
     916A      2.206439   917A      2.219927   918A      2.221381  
     919A      2.221439   920A      2.224565   921A      2.229848  
     922A      2.237369   923A      2.237449   924A      2.244140  
     925A      2.244481   926A      2.245413   927A      2.245624  
     928A      2.248651   929A      2.249388   930A      2.251918  
     931A      2.251961   932A      2.268019   933A      2.268081  
     934A      2.272743   935A      2.272785   936A      2.274091  
     937A      2.274238   938A      2.281222   939A      2.301113  
     940A      2.306897   941A      2.318650   942A      2.318998  
     943A      2.331849   944A      2.341054   945A      2.342986  
     946A      2.345722   947A      2.346020   948A      2.352249  
     949A      2.352802   950A      2.357766   951A      2.369688  
     952A      2.369836   953A      2.374439   954A      2.374689  
     955A      2.376867   956A      2.377231   957A      2.406287  
     958A      2.416951   959A      2.424315   960A      2.424560  
     961A      2.424589   962A      2.436640   963A      2.460968  
     964A      2.461477   965A      2.470818   966A      2.486201  
     967A      2.486282   968A      2.494314   969A      2.494583  
     970A      2.503058   971A      2.523640   972A      2.531303  
     973A      2.546103   974A      2.550215   975A      2.550248  
     976A      2.555136   977A      2.555174   978A      2.555215  
     979A      2.562896   980A      2.563132   981A      2.563135  
     982A      2.573362   983A      2.573388   984A      2.577508  
     985A      2.577869   986A      2.590355   987A      2.590486  
     988A      2.591585   989A      2.592236   990A      2.609792  
     991A      2.611997   992A      2.632458   993A      2.632915  
     994A      2.637730   995A      2.637915   996A      2.643463  
     997A      2.643570   998A      2.656037   999A      2.656099  
    1000A      2.657318  1001A      2.662192  1002A      2.684402  
    1003A      2.687604  1004A      2.688453  1005A      2.699157  
    1006A      2.705921  1007A      2.705954  1008A      2.713250  
    1009A      2.713274  1010A      2.722570  1011A      2.722682  
    1012A      2.724974  1013A      2.725136  1014A      2.758796  
    1015A      2.759241  1016A      2.777542  1017A      2.794905  
    1018A      2.795014  1019A      2.820231  1020A      2.827412  
    1021A      2.829793  1022A      2.832774  1023A      2.856520  
    1024A      2.858683  1025A      2.859694  1026A      2.859889  
    1027A      2.862909  1028A      2.863015  1029A      2.884912  
    1030A      2.885459  1031A      2.922128  1032A      2.922141  
    1033A      2.922392  1034A      2.940406  1035A      2.940442  
    1036A      2.960061  1037A      2.960136  1038A      2.964197  
    1039A      2.972145  1040A      3.012617  1041A      3.014122  
    1042A      3.014151  1043A      3.051945  1044A      3.064825  
    1045A      3.064845  1046A      3.071281  1047A      3.075661  
    1048A      3.075736  1049A      3.120516  1050A      3.120899  
    1051A      3.133748  1052A      3.135330  1053A      3.135563  
    1054A      3.138128  1055A      3.149459  1056A      3.149474  
    1057A      3.150284  1058A      3.150307  1059A      3.154297  
    1060A      3.164605  1061A      3.165243  1062A      3.168561  
    1063A      3.169388  1064A      3.191995  1065A      3.211303  
    1066A      3.226645  1067A      3.250687  1068A      3.278989  
    1069A      3.279602  1070A      3.281147  1071A      3.293903  
    1072A      3.294573  1073A      3.421333  1074A      3.421558  
    1075A      3.453845  1076A      3.488282  1077A      3.490278  
    1078A      3.567718  1079A      3.592126  1080A      3.593575  
    1081A      3.598611  1082A      3.631270  1083A      3.632891  
    1084A      3.673372  1085A      3.691995  1086A      3.771252  
    1087A      3.793480  1088A      3.794066  1089A      3.871781  
    1090A      3.871821  1091A      3.915343  1092A      3.915360  
    1093A      3.977482  1094A      4.012246  1095A      4.067819  
    1096A      4.078331  1097A      4.228421  1098A      4.395991  
    1099A      4.396103  1100A      4.501371  1101A      4.735844  
    1102A      5.759006  1103A      5.768827  1104A      5.772820  
    1105A      5.772842  1106A      5.790608  1107A      5.790669  
    1108A      5.826852  1109A      5.827298  1110A      5.860415  
    1111A      5.949669  1112A      5.950332  1113A      6.032466  
    1114A      6.058704  1115A      6.059222  1116A      6.216192  
    1117A      6.341395  1118A      6.341732  1119A      6.397303  
    1120A      6.397626  1121A      6.402158  1122A      7.327287  
    1123A      7.332814  1124A      7.332887  1125A      7.418894  
    1126A      7.419159  1127A      7.471407  1128A      7.621490  
    1129A      7.621623  1130A      7.746563  1131A      7.746694  
    1132A      7.747347  1133A      8.082174  1134A     12.865304  
    1135A     42.953090  1136A     42.953151  1137A     42.967925  
    1138A     42.994217  

    Final Occupation by Irrep:
              A 
    DOCC [   171 ]
    NA   [   171 ]
    NB   [   171 ]

  @DF-RHF Final Energy: -2055.89444154362718

   => Energetics <=

    Nuclear Repulsion Energy =           6452.5568002797772351
    One-Electron Energy =              -15636.5000184600066859
    Two-Electron Energy =                7128.0487766366022697
    Total Energy =                      -2055.8944415436271811

Computation Completed


Properties will be evaluated at   0.000000,   0.000000,   0.000000 [a0]

Properties computed using the SCF density matrix


 Multipole Moments:

 ------------------------------------------------------------------------------------
     Multipole            Electronic (a.u.)      Nuclear  (a.u.)        Total (a.u.)
 ------------------------------------------------------------------------------------

 L = 1.  Multiply by 2.5417464519 to convert [e a0] to [Debye]
 Dipole X            :          0.0000172            0.0000419            0.0000591
 Dipole Y            :          0.0000617           -0.0000426            0.0000192
 Dipole Z            :       -223.9773555          223.9763344           -0.0010211
 Magnitude           :                                                    0.0010230

 ------------------------------------------------------------------------------------

*** tstop() called on d-16-5-1 at Mon Jan 22 09:38:27 2024
Module time:
	user time   =    2626.16 seconds =      43.77 minutes
	system time =      41.14 seconds =       0.69 minutes
	total time  =        269 seconds =       4.48 minutes
Total time:
	user time   =    7645.10 seconds =     127.42 minutes
	system time =     165.75 seconds =       2.76 minutes
	total time  =       1039 seconds =      17.32 minutes
  Constructing Basis Sets for SAPT...

   => Loading Basis Set <=

    Name: (JUN-CC-PVDZ AUX)
    Role: RIFIT
    Keyword: DF_BASIS_SAPT
    atoms 1     entry B          line    56 file /home/gridsan/tfroembgen/.conda/envs/psi4test/share/psi4/basis/jun-cc-pvdz-ri.gbs 
    atoms 2-5   entry F          line   232 file /home/gridsan/tfroembgen/.conda/envs/psi4test/share/psi4/basis/jun-cc-pvdz-ri.gbs 
    atoms 6-59  entry C          line   100 file /home/gridsan/tfroembgen/.conda/envs/psi4test/share/psi4/basis/jun-cc-pvdz-ri.gbs 
    atoms 60-77 entry H          line    30 file /home/gridsan/tfroembgen/.conda/envs/psi4test/share/psi4/basis/jun-cc-pvdz-ri.gbs 

   => Loading Basis Set <=

    Name: (JUN-CC-PVDZ AUX)
    Role: JKFIT
    Keyword: DF_BASIS_ELST
    atoms 1     entry B          line    90 file /home/gridsan/tfroembgen/.conda/envs/psi4test/share/psi4/basis/jun-cc-pvdz-jkfit.gbs 
    atoms 2-5   entry F          line   314 file /home/gridsan/tfroembgen/.conda/envs/psi4test/share/psi4/basis/jun-cc-pvdz-jkfit.gbs 
    atoms 6-59  entry C          line   146 file /home/gridsan/tfroembgen/.conda/envs/psi4test/share/psi4/basis/jun-cc-pvdz-jkfit.gbs 
    atoms 60-77 entry H          line    70 file /home/gridsan/tfroembgen/.conda/envs/psi4test/share/psi4/basis/jun-cc-pvdz-jkfit.gbs 


  //>>>>>>>>>>>>>>>>>>>>>>>>>>>>>>>>>>>//
  //               SSAPT0              //
  //<<<<<<<<<<<<<<<<<<<<<<<<<<<<<<<<<<<//


*** tstart() called on d-16-5-1
*** at Mon Jan 22 09:38:28 2024

        SAPT0  
    Ed Hohenstein
     6 June 2009

      Orbital Information
  --------------------------
    NSO        =      1152
    NMO        =      1138
    NRI        =      4087
    NRI (Elst) =      5075
    NOCC A     =        21
    NOCC B     =       171
    FOCC A     =         5
    FOCC B     =        54
    NVIR A     =      1117
    NVIR B     =       967

    Elst10,r            =    -0.090972005874 [Eh]
    Exch10              =     0.251356686562 [Eh]
    Exch10 (S^2)        =     0.245077235784 [Eh]

    Iter     Energy [mEh]          dE [mEh]         Residual      Time [s]
       1     -40.77196313      40.771963125      51.505813898           415
       2     -47.91956635       7.147603228      22.231054028           596
       3     -51.56260614       3.643039784       3.291112110           643
       4     -51.49202027      -0.070585868       0.999370636           668
       5     -51.43953990      -0.052480374       0.219099158           707
       6     -51.43959844       0.000058549       0.063500828           730
       7     -51.44267245       0.003074004       0.012171054           743
       8     -51.44236203      -0.000310418       0.002701086           756
       9     -51.44234648      -0.000015552       0.000402543           770
      10     -51.44235638       0.000009904       0.000068426           898
      11     -51.44235498      -0.000001405       0.000016119          1029
      12     -51.44235506       0.000000083       0.000004061          1051
      13     -51.44235510       0.000000040       0.000001210          1065
      14     -51.44235510       0.000000003       0.000000207          1173

    CHF Iterations converged


    Iter     Energy [mEh]          dE [mEh]         Residual      Time [s]
       1     -86.55158064      86.551580644     107.771898626           269
       2     -77.84656130      -8.705019343      22.619384358           550
       3     -83.25595309       5.409391792       8.546368367           566
       4     -84.63947243       1.383519332       1.712511534           582
       5     -84.53210285      -0.107369577       0.590763269           600
       6     -84.47280803      -0.059294822       0.213197171           616
       7     -84.48462384       0.011815811       0.096135367           632
       8     -84.49193981       0.007315977       0.040280471           647
       9     -84.48988944      -0.002050373       0.025797617           663
      10     -84.48853974      -0.001349704       0.015142434           680
      11     -84.48943385       0.000894112       0.009805402           698
      12     -84.48957541       0.000141563       0.005607537           712
      13     -84.48937055      -0.000204858       0.001850605           729
      14     -84.48932668      -0.000043874       0.000683860           746
      15     -84.48934651       0.000019827       0.000181726           762
      16     -84.48934918       0.000002669       0.000075067           778
      17     -84.48934774      -0.000001440       0.000033550           795
      18     -84.48934704      -0.000000697       0.000013925           812
      19     -84.48934721       0.000000171       0.000005269           831
      20     -84.48934733       0.000000122       0.000002909           849
      21     -84.48934731      -0.000000022       0.000001911           866
      22     -84.48934726      -0.000000045       0.000000992           885

    CHF Iterations converged

    Ind20,r (A<-B)      =    -0.051442355103 [Eh]
    Ind20,r (B<-A)      =    -0.084489347265 [Eh]
    Ind20,r             =    -0.135931702368 [Eh]
    Exch-Ind20,r (A<-B) =     0.043847493437 [Eh]
    Exch-Ind20,r (B<-A) =     0.057232636275 [Eh]
    Exch-Ind20,r        =     0.101080129712 [Eh]
    Disp20              =    -0.053234143619 [Eh]
    Disp20 (SS)         =    -0.026617071809 [Eh]
    Disp20 (OS)         =    -0.026617071809 [Eh]
    Exch-Disp20         =     0.017128162003 [Eh]
    Exch-Disp20 (SS)    =     0.008872655151 [Eh]
    Exch-Disp20 (OS)    =     0.008255506852 [Eh]

    SAPT Results 
  --------------------------------------------------------------------------------------------------------
    Electrostatics                -90.97200587 [mEh]     -57.08579553 [kcal/mol]    -238.84696852 [kJ/mol]
      Elst10,r                    -90.97200587 [mEh]     -57.08579553 [kcal/mol]    -238.84696852 [kJ/mol]

    Exchange                      251.35668656 [mEh]     157.72870211 [kcal/mol]     659.93688965 [kJ/mol]
      Exch10                      251.35668656 [mEh]     157.72870211 [kcal/mol]     659.93688965 [kJ/mol]
      Exch10(S^2)                 245.07723578 [mEh]     153.78828726 [kcal/mol]     643.45019390 [kJ/mol]

    Induction                     -31.27414715 [mEh]     -19.62482362 [kcal/mol]     -82.11026204 [kJ/mol]
      Ind20,r                    -135.93170237 [mEh]     -85.29843102 [kcal/mol]    -356.88863540 [kJ/mol]
      Exch-Ind20,r                101.08012971 [mEh]      63.42873900 [kcal/mol]     265.38584400 [kJ/mol]
      delta HF,r (2)                3.57742550 [mEh]       2.24486839 [kcal/mol]       9.39252936 [kJ/mol]

    Dispersion                    -36.10598162 [mEh]     -22.65684552 [kcal/mol]     -94.79624167 [kJ/mol]
      Disp20                      -53.23414362 [mEh]     -33.40492945 [kcal/mol]    -139.76622482 [kJ/mol]
      Exch-Disp20                  17.12816200 [mEh]      10.74808393 [kcal/mol]      44.96998314 [kJ/mol]
      Disp20 (SS)                 -26.61707181 [mEh]     -16.70246472 [kcal/mol]     -69.88311241 [kJ/mol]
      Disp20 (OS)                 -26.61707181 [mEh]     -16.70246472 [kcal/mol]     -69.88311241 [kJ/mol]
      Exch-Disp20 (SS)              8.87265515 [mEh]       5.56767517 [kcal/mol]      23.29515289 [kJ/mol]
      Exch-Disp20 (OS)              8.25550685 [mEh]       5.18040876 [kcal/mol]      21.67483025 [kJ/mol]

  Total HF                        129.11053353 [mEh]      81.01808296 [kcal/mol]     338.97965909 [kJ/mol]
  Total SAPT0                      93.00455192 [mEh]      58.36123743 [kcal/mol]     244.18341742 [kJ/mol]

  Special recipe for scaled SAPT0 (see Manual):
    Electrostatics sSAPT0         -90.97200587 [mEh]     -57.08579553 [kcal/mol]    -238.84696852 [kJ/mol]
    Exchange sSAPT0               251.35668656 [mEh]     157.72870211 [kcal/mol]     659.93688965 [kJ/mol]
    Induction sSAPT0              -23.30364183 [mEh]     -14.62325602 [kcal/mol]     -61.18370318 [kJ/mol]
    Dispersion sSAPT0             -34.75536892 [mEh]     -21.80932326 [kcal/mol]     -91.25020853 [kJ/mol]
  Total sSAPT0                    102.32566994 [mEh]      64.21032730 [kcal/mol]     268.65600942 [kJ/mol]
  --------------------------------------------------------------------------------------------------------

*** tstop() called on d-16-5-1 at Mon Jan 22 10:47:43 2024
Module time:
	user time   =    7047.91 seconds =     117.47 minutes
	system time =     664.80 seconds =      11.08 minutes
	total time  =       4155 seconds =      69.25 minutes
Total time:
	user time   =   14694.43 seconds =     244.91 minutes
	system time =     830.58 seconds =      13.84 minutes
	total time  =       5195 seconds =      86.58 minutes

    Psi4 stopped on: Monday, 22 January 2024 10:47AM
    Psi4 wall time for execution: 1:26:36.35

*** Psi4 exiting successfully. Buy a developer a beer!
