
    -----------------------------------------------------------------------
          Psi4: An Open-Source Ab Initio Electronic Structure Package
                               Psi4 1.9 release

                         Git: Rev {} zzzzzzz 


    D. G. A. Smith, L. A. Burns, A. C. Simmonett, R. M. Parrish,
    M. C. Schieber, R. Galvelis, P. Kraus, H. Kruse, R. Di Remigio,
    A. Alenaizan, A. M. James, S. Lehtola, J. P. Misiewicz, M. Scheurer,
    R. A. Shaw, J. B. Schriber, Y. Xie, Z. L. Glick, D. A. Sirianni,
    J. S. O'Brien, J. M. Waldrop, A. Kumar, E. G. Hohenstein,
    B. P. Pritchard, B. R. Brooks, H. F. Schaefer III, A. Yu. Sokolov,
    K. Patkowski, A. E. DePrince III, U. Bozkaya, R. A. King,
    F. A. Evangelista, J. M. Turney, T. D. Crawford, C. D. Sherrill,
    J. Chem. Phys. 152(18) 184108 (2020). https://doi.org/10.1063/5.0006002

                            Additional Code Authors
    E. T. Seidl, C. L. Janssen, E. F. Valeev, M. L. Leininger,
    J. F. Gonthier, R. M. Richard, H. R. McAlexander, M. Saitow, X. Wang,
    P. Verma, M. H. Lechner, A. Jiang, S. Behnle, A. G. Heide,
    M. F. Herbst, and D. L. Poole

             Previous Authors, Complete List of Code Contributors,
                       and Citations for Specific Modules
    https://github.com/psi4/psi4/blob/master/codemeta.json
    https://github.com/psi4/psi4/graphs/contributors
    http://psicode.org/psi4manual/master/introduction.html#citing-psifour

    -----------------------------------------------------------------------


    Psi4 started on: Monday, 22 January 2024 08:20PM

    Process ID: 1893055
    Host:       d-6-11-4
    PSIDATADIR: /home/gridsan/tfroembgen/.conda/envs/psi4test/share/psi4
    Memory:     500.0 MiB
    Threads:    12
    
  ==> Input File <==

--------------------------------------------------------------------------
memory 32 GB # how much memory is available ! Depends on the nodes/cores !

molecule dimer {
# monomer A
+1 1    # Charge and multiplicity
C  0.680067 1.417258 -5.215929
C -0.680504 1.419286 -5.215545
N -1.085635 1.420284 -3.897221
C  0.000108 1.423560 -3.115820
C -2.477365 1.469690 -3.429242
N  1.085222 1.420284 -3.897221
H  1.385146 1.409430 -6.033368
H -1.385302 1.419096 -6.033214
H -0.000009 1.425307 -2.034731
C  2.478117 1.403392 -3.432123
H  2.490592 1.430737 -2.341870
H  2.967028 0.489946 -3.779299
H  3.001428 2.278875 -3.823595
H -2.857359 2.491761 -3.509201
H -3.082679 0.799606 -4.042306
H -2.518128 1.142706 -2.389294
--
# monomer B
0 1     # Charge and multiplicity
C   1.22531237526482      0.70753866091955      0.00613762728373
C   1.22532433589282     -0.70753852257020     -0.00619318228664
C   -0.00000567409046      1.41496628609039     -0.00672680580738
C   2.45644923379077      1.41832825917820      0.00902448468363
C   0.00001130712078     -1.41497612663474      0.00347275151708
C   -1.22530046906674      0.70754574598412      0.00838914760619
C   2.45643823516184     -1.41832293188077     -0.00843833914343
C   -0.00000085313587      2.83680140328112     -0.00913035594137
C   3.68182717731192      0.70931832800114     -0.00808954934571
C   2.45512052870677      2.83422403348893     -0.00819210630633
C   3.68182158506039     -0.70933346742900      0.00798293467272
C   -1.22531311884624     -0.70752714354401     -0.00512042085974
C   1.22670006104402      3.54346985599427      0.00816696660346
C   0.00000526469929     -2.83678176723568      0.00832091913869
C   -2.45643555300670      1.41831729028492      0.00842454345199
C   2.45512389762097     -2.83422965658853      0.00783102630520
C   -1.22671388474763      3.54346943575023      0.00827029982280
C   4.91451777504333      1.42717324448953     -0.00160886631602
C   3.69315067131765      3.54279566454522     -0.00155906667985
C   -2.45643712022637     -1.41831290883911     -0.00846337726810
C   1.22670532178455     -3.54347386990643     -0.00780316414624
C   -2.45512491866593      2.83421703463423     -0.00818572995999
C   4.91452486062398     -1.42718653794377      0.00136387641845
C   1.22142509354026      4.97013443726031      0.00150231067809
C   4.89300870916237      2.82518837202648     -0.00039219795739
C   -1.22669652864725     -3.54347062507680     -0.00753595973677
C   -3.68181849668397      0.70932533873199     -0.00807686886569
C   3.69314758099218     -3.54280096939050      0.00148176697923
C   -1.22143177215231      4.97012866986289      0.00168580605083
C   6.13477145276790      0.68054831910577     -0.00083909176631
C   3.65678936045204      4.97295361556775     -0.00065042889723
C   -2.45512642789169     -2.83421472106065      0.00758666850712
C   -3.68181869921921     -0.70932533146830      0.00810055625144
C   4.89301309775526     -2.82519973363176      0.00021895393805
C   -0.00000059327114      5.65044773803267      0.00045449734393
C   6.13477559217374     -0.68055448207492      0.00042622874941
C   2.47813196269732      5.65357712333155      0.00063835075260
C   1.22142288457925     -4.97012668293268     -0.00129718634452
C   -3.69316190412301      3.54279732619245     -0.00139355922051
C   -1.22142804110313     -4.97011793159564     -0.00140994817719
C   -4.91452132810043      1.42717581899491     -0.00153192130862
C   3.65678749952045     -4.97295485423912      0.00080007163680
C   -2.47813805026426      5.65357479452875      0.00092287576113
C   -3.69314125872231     -3.54278984697859      0.00136564082345
C   -4.91451200321153     -1.42718062802730      0.00139857359209
C   -0.00000552908399     -5.65043791501335      0.00005899322272
C   -4.89302000425900      2.82518897091939     -0.00040227981744
C   2.47812647313991     -5.65357317188818     -0.00029052915548
C   -3.65679823041642      4.97295655404175     -0.00047374852278
C   -4.89299899901461     -2.82519139505969      0.00006491824035
C   -2.47812801824129     -5.65356579800621     -0.00056571680280
C   -6.13477002348955      0.68054913825639     -0.00086464346868
C   -3.65678835334731     -4.97294365097028      0.00058578382008
C   -6.13476456307132     -0.68055354348201      0.00040575295444
H   5.83528897565761      3.36927626695423      0.00396712770529
H   7.07385965258860      1.22821762089947     -0.00037744837300
H   4.60066374401555      5.51238117445323     -0.00014522814529
H   5.83528386714679     -3.36930568472863     -0.00423551337640
H   -0.00001167146422      6.73853104613662     -0.00389474766392
H   7.07386165167227     -1.22822657074368     -0.00008250934481
H   2.47331421164041      6.74068466339473      0.00017162982210
H   4.60066897122302     -5.51237575717576      0.00039007446835
H   -2.47331820069565      6.74068209160650      0.00047297644710
H   -0.00000978838621     -6.73852780445195      0.00458867820736
H   -5.83530143450167      3.36927132229595      0.00410314985360
H   2.47330840367253     -6.74068500242887      0.00027980126949
H   -4.60067436136587      5.51237839860371      0.00002010017831
H   -5.83527902699321     -3.36928859177951     -0.00451481925734
H   -2.47329986759855     -6.74067870613986     -0.00016951527498
H   -7.07385728692578      1.22822084484047     -0.00046143985387
H   -4.60067330624313     -5.51236229778631      0.00021776644566
H   -7.07385645456741     -1.22822025997701     -0.00017736581114

    units angstrom      # Angstroms are the default
    no_reorient         # Geometry fixed, default
    symmetry c1         # C1 symmetry, default
}

set {
    scf_type DF         # Density fitting, faster than exact integrals
    freeze_core True    # Freeze core electrons
    basis jun-cc-pVDZ   # Jun-cc-pVDZ basis set, recommended for sSAPT0 in https://doi.org/10.1063/1.4867135
}

energy('ssapt0')        # Compute sSAPT0 energy, includes also SAPT0
--------------------------------------------------------------------------

  Memory set to  29.802 GiB by Python driver.

Scratch directory: /state/partition1/slurm_tmp/24798293.4294967291.0/
   => Loading Basis Set <=

    Name: JUN-CC-PVDZ
    Role: ORBITAL
    Keyword: BASIS
    atoms 1-2, 4-5, 10, 17-70 entry C          line   164 file /home/gridsan/tfroembgen/.conda/envs/psi4test/share/psi4/basis/jun-cc-pvdz.gbs 
    atoms 3, 6                entry N          line   198 file /home/gridsan/tfroembgen/.conda/envs/psi4test/share/psi4/basis/jun-cc-pvdz.gbs 
    atoms 7-9, 11-16, 71-88   entry H          line    36 file /home/gridsan/tfroembgen/.conda/envs/psi4test/share/psi4/basis/jun-cc-pvdz.gbs 

   => Loading Basis Set <=

    Name: JUN-CC-PVDZ
    Role: ORBITAL
    Keyword: BASIS
    atoms 1-2, 4-5, 10, 17-70 entry C          line   164 file /home/gridsan/tfroembgen/.conda/envs/psi4test/share/psi4/basis/jun-cc-pvdz.gbs 
    atoms 3, 6                entry N          line   198 file /home/gridsan/tfroembgen/.conda/envs/psi4test/share/psi4/basis/jun-cc-pvdz.gbs 
    atoms 7-9, 11-16, 71-88   entry H          line    36 file /home/gridsan/tfroembgen/.conda/envs/psi4test/share/psi4/basis/jun-cc-pvdz.gbs 


  //>>>>>>>>>>>>>>>>>>>>>>>>>>>>>>>>>>>//
  //              Dimer HF             //
  //<<<<<<<<<<<<<<<<<<<<<<<<<<<<<<<<<<<//

   => Libint2 <=

    Primary   basis highest AM E, G, H:  7, 7, 4
    Auxiliary basis highest AM E, G, H:  7, 7, 5
    Onebody   basis highest AM E, G, H:  7, 7, 5
    Solid Harmonics ordering:            gaussian

*** tstart() called on d-6-11-4
*** at Mon Jan 22 20:20:13 2024

   => Loading Basis Set <=

    Name: JUN-CC-PVDZ
    Role: ORBITAL
    Keyword: BASIS
    atoms 1-2, 4-5, 10, 17-70 entry C          line   164 file /home/gridsan/tfroembgen/.conda/envs/psi4test/share/psi4/basis/jun-cc-pvdz.gbs 
    atoms 3, 6                entry N          line   198 file /home/gridsan/tfroembgen/.conda/envs/psi4test/share/psi4/basis/jun-cc-pvdz.gbs 
    atoms 7-9, 11-16, 71-88   entry H          line    36 file /home/gridsan/tfroembgen/.conda/envs/psi4test/share/psi4/basis/jun-cc-pvdz.gbs 


         ---------------------------------------------------------
                                   SCF
               by Justin Turney, Rob Parrish, Andy Simmonett
                          and Daniel G. A. Smith
                              RHF Reference
                       12 Threads,  30517 MiB Core
         ---------------------------------------------------------

  ==> Geometry <==

    Molecular point group: c1
    Full point group: C1

    Geometry (in Angstrom), charge = 1, multiplicity = 1:

       Center              X                  Y                   Z               Mass       
    ------------   -----------------  -----------------  -----------------  -----------------
         C            0.680066520158     1.235968212970    -4.707155812817    12.000000000000
         C           -0.680504479842     1.237996212970    -4.706771812817    12.000000000000
         N           -1.085635479842     1.238994212970    -3.388447812817    14.003074004430
         C            0.000107520158     1.242270212970    -2.607046812817    12.000000000000
         C           -2.477365479842     1.288400212970    -2.920468812817    12.000000000000
         N            1.085221520158     1.238994212970    -3.388447812817    14.003074004430
         H            1.385145520158     1.228140212970    -5.524594812817     1.007825032230
         H           -1.385302479842     1.237806212970    -5.524440812817     1.007825032230
         H           -0.000009479842     1.244017212970    -1.525957812817     1.007825032230
         C            2.478116520158     1.222102212970    -2.923349812817    12.000000000000
         H            2.490591520158     1.249447212970    -1.833096812817     1.007825032230
         H            2.967027520158     0.308656212970    -3.270525812817     1.007825032230
         H            3.001427520158     2.097585212970    -3.314821812817     1.007825032230
         H           -2.857359479842     2.310471212970    -3.000427812817     1.007825032230
         H           -3.082679479842     0.618316212970    -3.533532812817     1.007825032230
         H           -2.518128479842     0.961416212970    -1.880520812817     1.007825032230
         C            1.225311895423     0.526248873889     0.514910814466    12.000000000000
         C            1.225323856051    -0.888828309601     0.502580004896    12.000000000000
         C           -0.000006153932     1.233676499060     0.502046381375    12.000000000000
         C            2.456448753949     1.237038472148     0.517797671866    12.000000000000
         C            0.000010827279    -1.596265913665     0.512245938700    12.000000000000
         C           -1.225300948908     0.526255958954     0.517162334789    12.000000000000
         C            2.456437755320    -1.599612718911     0.500334848039    12.000000000000
         C           -0.000001332978     2.655511616251     0.499642831241    12.000000000000
         C            3.681826697470     0.528028540971     0.500683637837    12.000000000000
         C            2.455120048865     2.652934246459     0.500581080876    12.000000000000
         C            3.681821105219    -0.890623254459     0.516756121855    12.000000000000
         C           -1.225313598688    -0.888816930574     0.503652766323    12.000000000000
         C            1.226699581202     3.362180068964     0.516940153786    12.000000000000
         C            0.000004784858    -3.018071554266     0.517094106321    12.000000000000
         C           -2.456436032848     1.237027503255     0.517197730635    12.000000000000
         C            2.455123417779    -3.015519443619     0.516604213488    12.000000000000
         C           -1.226714364589     3.362179648720     0.517043487005    12.000000000000
         C            4.914517295202     1.245883457459     0.507164320867    12.000000000000
         C            3.693150191476     3.361505877515     0.507214120503    12.000000000000
         C           -2.456437600068    -1.599602695869     0.500309809914    12.000000000000
         C            1.226704841943    -3.724763656937     0.500970023036    12.000000000000
         C           -2.455125398508     2.652927247604     0.500587457223    12.000000000000
         C            4.914524380782    -1.608476324974     0.510137063601    12.000000000000
         C            1.221424613699     4.788844650230     0.510275497861    12.000000000000
         C            4.893008229321     2.643898584996     0.508380989225    12.000000000000
         C           -1.226697008489    -3.724760412107     0.501237227446    12.000000000000
         C           -3.681818976526     0.528035551702     0.500696318317    12.000000000000
         C            3.693147101150    -3.724090756421     0.510254954162    12.000000000000
         C           -1.221432251994     4.788838882833     0.510458993233    12.000000000000
         C            6.134770972926     0.499258532075     0.507934095416    12.000000000000
         C            3.656788880610     4.791663828537     0.508122758285    12.000000000000
         C           -2.455126907733    -3.015504508091     0.516359855690    12.000000000000
         C           -3.681819179061    -0.890615118499     0.516873743434    12.000000000000
         C            4.893012617914    -3.006489520662     0.508992141121    12.000000000000
         C           -0.000001073113     5.469157951002     0.509227684527    12.000000000000
         C            6.134775112332    -0.861844269105     0.509199415932    12.000000000000
         C            2.478131482856     5.472287336301     0.509411537935    12.000000000000
         C            1.221422404738    -5.151416469963     0.507476000838    12.000000000000
         C           -3.693162383965     3.361507539162     0.507379627962    12.000000000000
         C           -1.221428520945    -5.151407718626     0.507363239005    12.000000000000
         C           -4.914521807942     1.245886031965     0.507241265874    12.000000000000
         C            3.656787019679    -5.154244641269     0.509573258819    12.000000000000
         C           -2.478138530106     5.472285007498     0.509696062944    12.000000000000
         C           -3.693141738564    -3.724079634009     0.510138828006    12.000000000000
         C           -4.914512483053    -1.608470415058     0.510171760775    12.000000000000
         C           -0.000006008926    -5.831727702044     0.508832180405    12.000000000000
         C           -4.893020484101     2.643899183889     0.508370907365    12.000000000000
         C            2.478125993298    -5.834862958919     0.508482658027    12.000000000000
         C           -3.656798710258     4.791666767011     0.508299438660    12.000000000000
         C           -4.892999478856    -3.006481182090     0.508838105423    12.000000000000
         C           -2.478128498083    -5.834855585037     0.508207470380    12.000000000000
         C           -6.134770503331     0.499259351226     0.507908543714    12.000000000000
         C           -3.656788833189    -5.154233438001     0.509358971003    12.000000000000
         C           -6.134765042913    -0.861843330512     0.509178940137    12.000000000000
         H            5.835288495816     3.187986479924     0.512740314888     1.007825032230
         H            7.073859172747     1.046927833869     0.508395738810     1.007825032230
         H            4.600663264174     5.331091387423     0.508627959037     1.007825032230
         H            5.835283387305    -3.550595471759     0.504537673806     1.007825032230
         H           -0.000012151306     6.557241259106     0.504878439519     1.007825032230
         H            7.073861171831    -1.409516357774     0.508690677838     1.007825032230
         H            2.473313731799     6.559394876364     0.508944817005     1.007825032230
         H            4.600668491381    -5.693665544206     0.509163261651     1.007825032230
         H           -2.473318680537     6.559392304576     0.509246163630     1.007825032230
         H           -0.000010268228    -6.919817591482     0.513361865390     1.007825032230
         H           -5.835301914343     3.187981535266     0.512876337036     1.007825032230
         H            2.473307923831    -6.921974789459     0.509052988452     1.007825032230
         H           -4.600674841208     5.331088611573     0.508793287361     1.007825032230
         H           -5.835279506835    -3.550578378810     0.504258367925     1.007825032230
         H           -2.473300347440    -6.921968493170     0.508603671908     1.007825032230
         H           -7.073857766768     1.046931057810     0.508311747329     1.007825032230
         H           -4.600673786085    -5.693652084817     0.508990953628     1.007825032230
         H           -7.073856934409    -1.409510047007     0.508595821371     1.007825032230

  Running in c1 symmetry.

  Rotational constants: A =      0.00183  B =      0.00183  C =      0.00108 [cm^-1]
  Rotational constants: A =     54.91009  B =     54.72517  C =     32.27506 [MHz]
  Nuclear repulsion = 8336.055613057505980

  Charge       = 1
  Multiplicity = 1
  Electrons    = 394
  Nalpha       = 197
  Nbeta        = 197

  ==> Algorithm <==

  SCF Algorithm Type is DF.
  DIIS enabled.
  MOM disabled.
  Fractional occupation disabled.
  Guess Type is SAD.
  Energy threshold   = 1.00e-08
  Density threshold  = 1.00e-08
  Integral threshold = 1.00e-12

  ==> Primary Basis <==

  Basis Set: JUN-CC-PVDZ
    Blend: JUN-CC-PVDZ
    Number of shells: 569
    Number of basis functions: 1233
    Number of Cartesian functions: 1294
    Spherical Harmonics?: true
    Max angular momentum: 2

   => Loading Basis Set <=

    Name: (JUN-CC-PVDZ AUX)
    Role: JKFIT
    Keyword: DF_BASIS_SCF
    atoms 1-2, 4-5, 10, 17-70 entry C          line   146 file /home/gridsan/tfroembgen/.conda/envs/psi4test/share/psi4/basis/jun-cc-pvdz-jkfit.gbs 
    atoms 3, 6                entry N          line   202 file /home/gridsan/tfroembgen/.conda/envs/psi4test/share/psi4/basis/jun-cc-pvdz-jkfit.gbs 
    atoms 7-9, 11-16, 71-88   entry H          line    70 file /home/gridsan/tfroembgen/.conda/envs/psi4test/share/psi4/basis/jun-cc-pvdz-jkfit.gbs 

  ==> Integral Setup <==

  ==> DiskDFJK: Density-Fitted J/K Matrices <==

    J tasked:                  Yes
    K tasked:                  Yes
    wK tasked:                  No
    OpenMP threads:             12
    Integrals threads:          12
    Memory [MiB]:            22888
    Algorithm:                Disk
    Integral Cache:           SAVE
    Schwarz Cutoff:          1E-12
    Fitting Condition:       1E-10

   => Auxiliary Basis Set <=

  Basis Set: (JUN-CC-PVDZ AUX)
    Blend: JUN-CC-PVDZ-JKFIT
    Number of shells: 1890
    Number of basis functions: 5440
    Number of Cartesian functions: 6226
    Spherical Harmonics?: true
    Max angular momentum: 3

  Minimum eigenvalue in the overlap matrix is 6.2534982086E-10.
  Reciprocal condition number of the overlap matrix is 2.5321393270E-11.
    Using canonical orthogonalization.
  Overall, 14 of 1233 possible MOs eliminated.


  ==> Pre-Iterations <==

  SCF Guess: Superposition of Atomic Densities via on-the-fly atomic UHF (no occupation information).

   -------------------------
    Irrep   Nso     Nmo    
   -------------------------
     A       1233    1219 
   -------------------------
    Total    1233    1219
   -------------------------

  ==> Iterations <==

                           Total Energy        Delta E     RMS |[F,P]|

   @DF-RHF iter SAD: -2365.97476363235455   -2.36597e+03   0.00000e+00 
   @DF-RHF iter   1: -2358.20814387643850    7.76662e+00   9.41211e-04 DIIS/ADIIS
   @DF-RHF iter   2: -2359.09706002523080   -8.88916e-01   3.16455e-04 DIIS/ADIIS
   @DF-RHF iter   3: -2359.18435543707255   -8.72954e-02   1.20655e-04 DIIS/ADIIS
   @DF-RHF iter   4: -2359.19751303978592   -1.31576e-02   4.62642e-05 DIIS
   @DF-RHF iter   5: -2359.19951606213908   -2.00302e-03   1.09422e-05 DIIS
   @DF-RHF iter   6: -2359.19970977351386   -1.93711e-04   5.76650e-06 DIIS
   @DF-RHF iter   7: -2359.19978824785994   -7.84743e-05   2.41755e-06 DIIS
   @DF-RHF iter   8: -2359.19981134320369   -2.30953e-05   1.16965e-06 DIIS
   @DF-RHF iter   9: -2359.19981701184361   -5.66864e-06   3.24352e-07 DIIS
   @DF-RHF iter  10: -2359.19981728947005   -2.77626e-07   1.44966e-07 DIIS
   @DF-RHF iter  11: -2359.19981732313909   -3.36690e-08   5.60316e-08 DIIS
   @DF-RHF iter  12: -2359.19981733028771   -7.14863e-09   2.55371e-08 DIIS
   @DF-RHF iter  13: -2359.19981733259556   -2.30784e-09   1.11842e-08 DIIS
   @DF-RHF iter  14: -2359.19981733325130   -6.55746e-10   7.29792e-09 DIIS
  Energy and wave function converged.


  ==> Post-Iterations <==

    Orbital Energies [Eh]
    ---------------------

    Doubly Occupied:                                                      

       1A    -15.789137     2A    -15.788817     3A    -11.476916  
       4A    -11.420544     5A    -11.418986     6A    -11.404401  
       7A    -11.403682     8A    -11.352084     9A    -11.351555  
      10A    -11.350700    11A    -11.349703    12A    -11.349190  
      13A    -11.348895    14A    -11.347705    15A    -11.347611  
      16A    -11.347145    17A    -11.346297    18A    -11.346111  
      19A    -11.344978    20A    -11.344739    21A    -11.342996  
      22A    -11.342862    23A    -11.342433    24A    -11.342349  
      25A    -11.342317    26A    -11.342159    27A    -11.341948  
      28A    -11.341894    29A    -11.341327    30A    -11.341194  
      31A    -11.339953    32A    -11.339863    33A    -11.338892  
      34A    -11.337330    35A    -11.337292    36A    -11.336968  
      37A    -11.336932    38A    -11.335757    39A    -11.335605  
      40A    -11.335259    41A    -11.335213    42A    -11.335055  
      43A    -11.334468    44A    -11.334226    45A    -11.333574  
      46A    -11.333485    47A    -11.332125    48A    -11.332078  
      49A    -11.330687    50A    -11.330640    51A    -11.329207  
      52A    -11.329133    53A    -11.329094    54A    -11.329053  
      55A    -11.327330    56A    -11.327256    57A    -11.326847  
      58A    -11.324129    59A    -11.324091    60A    -11.322601  
      61A    -11.322568    62A     -1.533865    63A     -1.389492  
      64A     -1.332787    65A     -1.304729    66A     -1.303651  
      67A     -1.271902    68A     -1.271837    69A     -1.266536  
      70A     -1.237919    71A     -1.230842    72A     -1.220113  
      73A     -1.220065    74A     -1.196251    75A     -1.193359  
      76A     -1.193326    77A     -1.165804    78A     -1.165650  
      79A     -1.162279    80A     -1.145732    81A     -1.145637  
      82A     -1.145033    83A     -1.120378    84A     -1.108794  
      85A     -1.106743    86A     -1.106717    87A     -1.097429  
      88A     -1.092006    89A     -1.076236    90A     -1.069456  
      91A     -1.069014    92A     -1.042115    93A     -1.042110  
      94A     -0.979845    95A     -0.976394    96A     -0.976243  
      97A     -0.972777    98A     -0.969790    99A     -0.969574  
     100A     -0.963643   101A     -0.963333   102A     -0.954261  
     103A     -0.942034   104A     -0.915358   105A     -0.900038  
     106A     -0.899529   107A     -0.894459   108A     -0.893847  
     109A     -0.875099   110A     -0.873979   111A     -0.873637  
     112A     -0.829924   113A     -0.827632   114A     -0.816500  
     115A     -0.816233   116A     -0.811756   117A     -0.811446  
     118A     -0.807091   119A     -0.797880   120A     -0.779670  
     121A     -0.779172   122A     -0.776497   123A     -0.774961  
     124A     -0.774904   125A     -0.773545   126A     -0.748161  
     127A     -0.743967   128A     -0.742526   129A     -0.740653  
     130A     -0.735276   131A     -0.733921   132A     -0.729340  
     133A     -0.729239   134A     -0.719201   135A     -0.719187  
     136A     -0.711309   137A     -0.709151   138A     -0.709139  
     139A     -0.707756   140A     -0.691428   141A     -0.683489  
     142A     -0.681727   143A     -0.680110   144A     -0.679856  
     145A     -0.675824   146A     -0.675664   147A     -0.674354  
     148A     -0.673441   149A     -0.673419   150A     -0.662918  
     151A     -0.657550   152A     -0.654693   153A     -0.648467  
     154A     -0.648032   155A     -0.645628   156A     -0.645512  
     157A     -0.640677   158A     -0.633693   159A     -0.633587  
     160A     -0.619814   161A     -0.619363   162A     -0.618060  
     163A     -0.617404   164A     -0.612421   165A     -0.609464  
     166A     -0.603019   167A     -0.602821   168A     -0.579309  
     169A     -0.575616   170A     -0.572631   171A     -0.568897  
     172A     -0.566417   173A     -0.562420   174A     -0.562016  
     175A     -0.555853   176A     -0.553958   177A     -0.552990  
     178A     -0.533983   179A     -0.533627   180A     -0.518497  
     181A     -0.518286   182A     -0.489840   183A     -0.488102  
     184A     -0.487950   185A     -0.480800   186A     -0.454052  
     187A     -0.454027   188A     -0.430366   189A     -0.424742  
     190A     -0.424476   191A     -0.423726   192A     -0.390809  
     193A     -0.375551   194A     -0.368590   195A     -0.368125  
     196A     -0.306113   197A     -0.306044  

    Virtual:                                                              

     198A     -0.067970   199A     -0.067492   200A     -0.035709  
     201A     -0.029481   202A     -0.028273   203A     -0.020241  
     204A     -0.019434   205A     -0.017322   206A     -0.011568  
     207A     -0.011093   208A     -0.009208   209A     -0.007665  
     210A     -0.004059   211A     -0.000628   212A      0.000366  
     213A      0.002755   214A      0.003025   215A      0.003463  
     216A      0.005043   217A      0.007730   218A      0.011082  
     219A      0.011475   220A      0.013368   221A      0.013983  
     222A      0.016947   223A      0.017181   224A      0.020600  
     225A      0.021220   226A      0.025268   227A      0.032422  
     228A      0.032563   229A      0.033043   230A      0.033558  
     231A      0.034881   232A      0.035578   233A      0.039096  
     234A      0.042743   235A      0.043127   236A      0.046426  
     237A      0.046460   238A      0.048552   239A      0.048876  
     240A      0.052829   241A      0.053256   242A      0.058792  
     243A      0.059575   244A      0.065143   245A      0.066107  
     246A      0.066417   247A      0.069588   248A      0.071097  
     249A      0.073891   250A      0.074905   251A      0.075256  
     252A      0.076948   253A      0.082431   254A      0.084310  
     255A      0.085303   256A      0.087606   257A      0.088302  
     258A      0.089920   259A      0.092823   260A      0.097295  
     261A      0.098144   262A      0.100617   263A      0.101105  
     264A      0.102978   265A      0.104746   266A      0.105796  
     267A      0.107836   268A      0.108341   269A      0.109018  
     270A      0.112612   271A      0.113487   272A      0.115288  
     273A      0.118012   274A      0.118172   275A      0.119698  
     276A      0.122703   277A      0.123327   278A      0.125908  
     279A      0.128084   280A      0.135088   281A      0.136274  
     282A      0.137484   283A      0.138897   284A      0.141709  
     285A      0.142280   286A      0.145978   287A      0.146310  
     288A      0.147488   289A      0.148756   290A      0.149342  
     291A      0.149831   292A      0.150001   293A      0.150278  
     294A      0.150662   295A      0.152599   296A      0.153728  
     297A      0.155116   298A      0.159703   299A      0.160508  
     300A      0.160883   301A      0.161323   302A      0.162264  
     303A      0.167156   304A      0.168083   305A      0.168394  
     306A      0.169189   307A      0.170416   308A      0.171511  
     309A      0.172580   310A      0.179026   311A      0.179893  
     312A      0.180255   313A      0.184500   314A      0.186439  
     315A      0.186881   316A      0.187167   317A      0.187657  
     318A      0.188114   319A      0.190086   320A      0.190337  
     321A      0.190941   322A      0.194044   323A      0.195166  
     324A      0.195304   325A      0.196851   326A      0.200642  
     327A      0.201963   328A      0.202707   329A      0.203928  
     330A      0.205223   331A      0.205625   332A      0.208443  
     333A      0.209802   334A      0.212351   335A      0.215097  
     336A      0.217539   337A      0.219113   338A      0.221533  
     339A      0.223116   340A      0.225409   341A      0.231375  
     342A      0.232117   343A      0.232935   344A      0.235670  
     345A      0.236390   346A      0.237040   347A      0.238199  
     348A      0.238634   349A      0.241673   350A      0.241868  
     351A      0.242397   352A      0.242842   353A      0.244318  
     354A      0.244630   355A      0.245507   356A      0.245919  
     357A      0.247382   358A      0.248981   359A      0.250219  
     360A      0.251471   361A      0.252195   362A      0.253329  
     363A      0.255555   364A      0.257718   365A      0.260192  
     366A      0.261509   367A      0.262009   368A      0.262904  
     369A      0.265317   370A      0.266406   371A      0.267245  
     372A      0.268803   373A      0.269592   374A      0.274226  
     375A      0.278517   376A      0.280129   377A      0.280882  
     378A      0.281889   379A      0.282518   380A      0.284836  
     381A      0.285711   382A      0.287494   383A      0.287955  
     384A      0.290775   385A      0.292268   386A      0.292486  
     387A      0.296237   388A      0.296566   389A      0.299458  
     390A      0.299858   391A      0.300494   392A      0.301930  
     393A      0.304406   394A      0.305935   395A      0.307221  
     396A      0.309592   397A      0.309927   398A      0.311068  
     399A      0.313115   400A      0.314083   401A      0.316108  
     402A      0.316511   403A      0.318327   404A      0.319043  
     405A      0.320653   406A      0.322296   407A      0.324507  
     408A      0.324974   409A      0.325607   410A      0.326037  
     411A      0.328649   412A      0.330487   413A      0.332528  
     414A      0.334255   415A      0.335089   416A      0.336233  
     417A      0.337478   418A      0.337785   419A      0.338684  
     420A      0.339427   421A      0.340129   422A      0.342161  
     423A      0.342826   424A      0.346012   425A      0.346425  
     426A      0.346869   427A      0.349213   428A      0.349628  
     429A      0.350241   430A      0.353127   431A      0.353962  
     432A      0.359529   433A      0.361577   434A      0.363814  
     435A      0.365172   436A      0.367052   437A      0.367587  
     438A      0.368212   439A      0.369650   440A      0.372883  
     441A      0.373755   442A      0.374295   443A      0.376379  
     444A      0.378355   445A      0.380119   446A      0.383566  
     447A      0.383958   448A      0.385123   449A      0.386393  
     450A      0.388460   451A      0.389130   452A      0.390796  
     453A      0.394876   454A      0.398465   455A      0.399107  
     456A      0.400324   457A      0.402193   458A      0.403274  
     459A      0.405148   460A      0.409019   461A      0.410079  
     462A      0.412446   463A      0.413653   464A      0.415535  
     465A      0.418401   466A      0.419573   467A      0.420593  
     468A      0.421564   469A      0.422322   470A      0.424802  
     471A      0.427342   472A      0.430542   473A      0.432406  
     474A      0.435154   475A      0.437002   476A      0.441927  
     477A      0.443435   478A      0.444451   479A      0.445036  
     480A      0.448244   481A      0.449909   482A      0.453108  
     483A      0.455641   484A      0.456911   485A      0.460575  
     486A      0.463184   487A      0.465088   488A      0.469138  
     489A      0.470854   490A      0.471805   491A      0.472895  
     492A      0.475383   493A      0.476043   494A      0.476866  
     495A      0.479811   496A      0.481523   497A      0.482082  
     498A      0.484557   499A      0.485992   500A      0.486921  
     501A      0.490674   502A      0.497144   503A      0.499455  
     504A      0.503406   505A      0.507995   506A      0.512055  
     507A      0.516228   508A      0.518311   509A      0.519507  
     510A      0.522484   511A      0.524896   512A      0.526860  
     513A      0.533927   514A      0.540038   515A      0.543798  
     516A      0.545578   517A      0.548638   518A      0.549994  
     519A      0.551324   520A      0.557865   521A      0.559511  
     522A      0.566692   523A      0.573205   524A      0.577613  
     525A      0.580714   526A      0.583273   527A      0.591434  
     528A      0.591635   529A      0.593434   530A      0.598153  
     531A      0.598542   532A      0.608815   533A      0.636618  
     534A      0.636899   535A      0.657885   536A      0.662947  
     537A      0.664975   538A      0.665029   539A      0.666208  
     540A      0.666758   541A      0.677943   542A      0.678584  
     543A      0.687828   544A      0.690592   545A      0.711169  
     546A      0.714308   547A      0.718890   548A      0.720010  
     549A      0.731774   550A      0.733878   551A      0.734949  
     552A      0.738227   553A      0.743572   554A      0.749299  
     555A      0.750132   556A      0.751106   557A      0.752089  
     558A      0.752267   559A      0.760933   560A      0.764764  
     561A      0.766324   562A      0.771039   563A      0.776320  
     564A      0.780545   565A      0.784509   566A      0.785126  
     567A      0.786737   568A      0.789854   569A      0.791841  
     570A      0.793788   571A      0.799963   572A      0.800989  
     573A      0.801755   574A      0.802811   575A      0.808012  
     576A      0.809208   577A      0.812857   578A      0.814073  
     579A      0.814934   580A      0.816519   581A      0.816739  
     582A      0.820386   583A      0.823976   584A      0.826002  
     585A      0.829535   586A      0.832011   587A      0.835919  
     588A      0.838187   589A      0.838687   590A      0.840411  
     591A      0.841811   592A      0.844816   593A      0.845351  
     594A      0.847029   595A      0.849119   596A      0.849636  
     597A      0.852321   598A      0.856117   599A      0.857798  
     600A      0.862083   601A      0.863966   602A      0.866288  
     603A      0.867649   604A      0.869021   605A      0.873312  
     606A      0.874200   607A      0.875954   608A      0.876399  
     609A      0.883304   610A      0.885033   611A      0.887625  
     612A      0.888355   613A      0.891716   614A      0.894225  
     615A      0.894431   616A      0.896565   617A      0.899705  
     618A      0.899744   619A      0.901241   620A      0.905052  
     621A      0.906174   622A      0.907759   623A      0.910189  
     624A      0.913226   625A      0.915629   626A      0.918032  
     627A      0.919576   628A      0.929038   629A      0.929939  
     630A      0.931575   631A      0.934713   632A      0.937685  
     633A      0.939552   634A      0.943320   635A      0.944855  
     636A      0.945720   637A      0.946749   638A      0.950226  
     639A      0.951041   640A      0.953913   641A      0.957069  
     642A      0.958525   643A      0.958673   644A      0.964609  
     645A      0.965520   646A      0.966378   647A      0.968072  
     648A      0.968519   649A      0.969516   650A      0.970521  
     651A      0.971492   652A      0.973091   653A      0.977660  
     654A      0.977775   655A      0.980820   656A      0.981582  
     657A      0.982376   658A      0.985552   659A      0.987808  
     660A      0.990552   661A      0.997309   662A      0.998440  
     663A      1.001178   664A      1.002506   665A      1.003716  
     666A      1.005450   667A      1.006152   668A      1.007955  
     669A      1.011362   670A      1.012390   671A      1.014941  
     672A      1.019208   673A      1.019893   674A      1.021430  
     675A      1.023392   676A      1.029177   677A      1.029627  
     678A      1.030263   679A      1.033979   680A      1.034867  
     681A      1.035371   682A      1.038043   683A      1.038429  
     684A      1.040470   685A      1.044645   686A      1.049412  
     687A      1.052202   688A      1.055003   689A      1.055173  
     690A      1.057074   691A      1.060608   692A      1.063979  
     693A      1.069469   694A      1.072168   695A      1.076333  
     696A      1.077534   697A      1.079779   698A      1.081805  
     699A      1.085696   700A      1.087255   701A      1.089182  
     702A      1.090494   703A      1.091950   704A      1.097196  
     705A      1.100080   706A      1.107304   707A      1.108740  
     708A      1.109195   709A      1.117349   710A      1.119817  
     711A      1.124526   712A      1.125355   713A      1.128504  
     714A      1.132142   715A      1.133407   716A      1.135932  
     717A      1.136907   718A      1.143531   719A      1.144396  
     720A      1.149156   721A      1.149813   722A      1.153423  
     723A      1.161390   724A      1.162650   725A      1.166321  
     726A      1.167745   727A      1.170463   728A      1.176332  
     729A      1.181782   730A      1.182119   731A      1.184073  
     732A      1.184994   733A      1.185776   734A      1.190585  
     735A      1.192115   736A      1.197277   737A      1.199476  
     738A      1.199846   739A      1.204393   740A      1.205723  
     741A      1.210543   742A      1.212926   743A      1.217485  
     744A      1.219657   745A      1.220940   746A      1.225355  
     747A      1.229472   748A      1.231913   749A      1.235931  
     750A      1.238824   751A      1.241738   752A      1.245454  
     753A      1.246446   754A      1.247511   755A      1.249453  
     756A      1.251158   757A      1.253268   758A      1.256321  
     759A      1.260058   760A      1.263872   761A      1.266349  
     762A      1.267035   763A      1.271463   764A      1.271653  
     765A      1.275416   766A      1.276388   767A      1.278304  
     768A      1.283544   769A      1.288600   770A      1.292060  
     771A      1.293528   772A      1.296328   773A      1.303150  
     774A      1.310393   775A      1.311631   776A      1.313772  
     777A      1.321282   778A      1.328178   779A      1.330498  
     780A      1.333600   781A      1.340133   782A      1.341818  
     783A      1.342603   784A      1.344971   785A      1.348373  
     786A      1.350262   787A      1.354686   788A      1.355671  
     789A      1.357237   790A      1.359645   791A      1.361643  
     792A      1.365280   793A      1.367917   794A      1.369607  
     795A      1.370349   796A      1.374599   797A      1.375318  
     798A      1.379447   799A      1.380019   800A      1.390716  
     801A      1.394078   802A      1.402730   803A      1.404611  
     804A      1.423686   805A      1.432775   806A      1.439418  
     807A      1.441017   808A      1.442313   809A      1.445602  
     810A      1.459931   811A      1.463140   812A      1.472571  
     813A      1.490431   814A      1.501520   815A      1.503842  
     816A      1.508177   817A      1.517988   818A      1.522971  
     819A      1.526287   820A      1.529638   821A      1.533585  
     822A      1.538445   823A      1.539190   824A      1.541018  
     825A      1.543358   826A      1.546407   827A      1.548359  
     828A      1.553661   829A      1.557650   830A      1.559031  
     831A      1.560087   832A      1.564166   833A      1.564592  
     834A      1.569360   835A      1.573243   836A      1.574005  
     837A      1.581113   838A      1.584178   839A      1.586726  
     840A      1.590454   841A      1.593500   842A      1.595646  
     843A      1.597603   844A      1.602856   845A      1.604017  
     846A      1.605656   847A      1.608341   848A      1.611217  
     849A      1.616144   850A      1.617309   851A      1.619152  
     852A      1.619492   853A      1.622965   854A      1.625541  
     855A      1.631874   856A      1.638197   857A      1.640520  
     858A      1.645808   859A      1.651932   860A      1.656966  
     861A      1.662937   862A      1.667830   863A      1.669920  
     864A      1.680184   865A      1.683571   866A      1.689018  
     867A      1.689643   868A      1.693833   869A      1.699931  
     870A      1.704741   871A      1.710700   872A      1.713215  
     873A      1.716111   874A      1.731830   875A      1.737321  
     876A      1.739596   877A      1.740577   878A      1.743933  
     879A      1.744734   880A      1.748671   881A      1.752567  
     882A      1.761408   883A      1.762049   884A      1.768938  
     885A      1.773185   886A      1.775688   887A      1.776632  
     888A      1.780602   889A      1.786088   890A      1.786629  
     891A      1.789200   892A      1.793242   893A      1.794650  
     894A      1.796470   895A      1.799599   896A      1.807067  
     897A      1.813578   898A      1.816123   899A      1.819340  
     900A      1.821153   901A      1.827673   902A      1.828108  
     903A      1.829655   904A      1.830740   905A      1.831770  
     906A      1.835189   907A      1.836192   908A      1.838194  
     909A      1.839504   910A      1.844167   911A      1.846938  
     912A      1.847160   913A      1.850591   914A      1.851562  
     915A      1.858247   916A      1.865910   917A      1.867376  
     918A      1.869485   919A      1.870235   920A      1.871758  
     921A      1.874099   922A      1.875762   923A      1.875966  
     924A      1.877605   925A      1.882244   926A      1.884726  
     927A      1.889244   928A      1.897467   929A      1.900498  
     930A      1.909434   931A      1.913550   932A      1.916592  
     933A      1.917294   934A      1.922713   935A      1.925012  
     936A      1.927211   937A      1.931049   938A      1.932817  
     939A      1.934565   940A      1.937262   941A      1.939159  
     942A      1.942688   943A      1.943602   944A      1.949833  
     945A      1.953240   946A      1.954676   947A      1.956858  
     948A      1.958359   949A      1.961640   950A      1.963250  
     951A      1.966629   952A      1.972303   953A      1.976324  
     954A      1.979455   955A      1.982413   956A      1.985122  
     957A      1.987163   958A      1.990237   959A      1.993000  
     960A      1.994608   961A      1.995854   962A      1.997989  
     963A      2.000406   964A      2.005701   965A      2.007843  
     966A      2.012054   967A      2.016470   968A      2.017627  
     969A      2.020010   970A      2.021614   971A      2.023198  
     972A      2.024319   973A      2.025825   974A      2.026746  
     975A      2.028992   976A      2.034913   977A      2.037025  
     978A      2.037038   979A      2.039451   980A      2.040418  
     981A      2.041302   982A      2.044505   983A      2.045809  
     984A      2.047325   985A      2.049469   986A      2.051403  
     987A      2.054470   988A      2.057189   989A      2.058844  
     990A      2.059458   991A      2.063433   992A      2.063952  
     993A      2.066039   994A      2.067023   995A      2.077134  
     996A      2.078852   997A      2.082415   998A      2.085325  
     999A      2.087504  1000A      2.091275  1001A      2.097956  
    1002A      2.098898  1003A      2.106854  1004A      2.110167  
    1005A      2.110748  1006A      2.112604  1007A      2.116037  
    1008A      2.117973  1009A      2.119653  1010A      2.126748  
    1011A      2.135795  1012A      2.136466  1013A      2.138943  
    1014A      2.141267  1015A      2.145916  1016A      2.147494  
    1017A      2.153904  1018A      2.158131  1019A      2.159654  
    1020A      2.163130  1021A      2.165333  1022A      2.168960  
    1023A      2.170680  1024A      2.171617  1025A      2.172923  
    1026A      2.177878  1027A      2.185143  1028A      2.189631  
    1029A      2.191672  1030A      2.195113  1031A      2.195861  
    1032A      2.196466  1033A      2.206366  1034A      2.209071  
    1035A      2.216351  1036A      2.222509  1037A      2.227955  
    1038A      2.235316  1039A      2.237761  1040A      2.242391  
    1041A      2.246957  1042A      2.247233  1043A      2.253702  
    1044A      2.256127  1045A      2.258277  1046A      2.263906  
    1047A      2.268111  1048A      2.273274  1049A      2.274024  
    1050A      2.274981  1051A      2.281618  1052A      2.288439  
    1053A      2.290402  1054A      2.294738  1055A      2.308332  
    1056A      2.311450  1057A      2.321763  1058A      2.325214  
    1059A      2.338944  1060A      2.343102  1061A      2.343919  
    1062A      2.344598  1063A      2.356373  1064A      2.357792  
    1065A      2.364195  1066A      2.376197  1067A      2.391838  
    1068A      2.399728  1069A      2.400341  1070A      2.406298  
    1071A      2.411704  1072A      2.414063  1073A      2.423601  
    1074A      2.423787  1075A      2.444239  1076A      2.450057  
    1077A      2.452636  1078A      2.458570  1079A      2.469435  
    1080A      2.472517  1081A      2.473301  1082A      2.475184  
    1083A      2.479734  1084A      2.480212  1085A      2.481228  
    1086A      2.482450  1087A      2.492843  1088A      2.493100  
    1089A      2.501541  1090A      2.502189  1091A      2.507336  
    1092A      2.511284  1093A      2.517444  1094A      2.518465  
    1095A      2.520020  1096A      2.527414  1097A      2.544017  
    1098A      2.546968  1099A      2.550269  1100A      2.551842  
    1101A      2.555859  1102A      2.562487  1103A      2.566543  
    1104A      2.571788  1105A      2.576805  1106A      2.577727  
    1107A      2.580806  1108A      2.583829  1109A      2.606779  
    1110A      2.611891  1111A      2.613474  1112A      2.615248  
    1113A      2.617639  1114A      2.629224  1115A      2.631540  
    1116A      2.631987  1117A      2.634177  1118A      2.637168  
    1119A      2.637518  1120A      2.646242  1121A      2.649302  
    1122A      2.658057  1123A      2.669784  1124A      2.677759  
    1125A      2.684615  1126A      2.691048  1127A      2.708063  
    1128A      2.715003  1129A      2.715882  1130A      2.743809  
    1131A      2.746733  1132A      2.747844  1133A      2.753422  
    1134A      2.758386  1135A      2.760763  1136A      2.769544  
    1137A      2.771805  1138A      2.773447  1139A      2.780276  
    1140A      2.783191  1141A      2.785016  1142A      2.798793  
    1143A      2.806227  1144A      2.813742  1145A      2.815190  
    1146A      2.830850  1147A      2.840071  1148A      2.844882  
    1149A      2.847192  1150A      2.860266  1151A      2.864084  
    1152A      2.871048  1153A      2.886183  1154A      2.907923  
    1155A      2.914446  1156A      2.927531  1157A      2.938348  
    1158A      2.948044  1159A      2.959693  1160A      2.969523  
    1161A      2.979305  1162A      2.982579  1163A      2.983595  
    1164A      2.996882  1165A      3.010838  1166A      3.034934  
    1167A      3.046597  1168A      3.054606  1169A      3.055599  
    1170A      3.058860  1171A      3.064830  1172A      3.066235  
    1173A      3.069360  1174A      3.071010  1175A      3.072454  
    1176A      3.074744  1177A      3.084326  1178A      3.088420  
    1179A      3.094991  1180A      3.101525  1181A      3.101741  
    1182A      3.116231  1183A      3.117398  1184A      3.135810  
    1185A      3.153448  1186A      3.160753  1187A      3.171314  
    1188A      3.202361  1189A      3.210100  1190A      3.215640  
    1191A      3.234064  1192A      3.259253  1193A      3.341277  
    1194A      3.341612  1195A      3.412836  1196A      3.417556  
    1197A      3.438598  1198A      3.472408  1199A      3.520536  
    1200A      3.534306  1201A      3.544275  1202A      3.560656  
    1203A      3.579770  1204A      3.584898  1205A      3.590411  
    1206A      3.608636  1207A      3.641375  1208A      3.706018  
    1209A      3.740867  1210A      3.792671  1211A      3.792756  
    1212A      3.834579  1213A      3.835945  1214A      3.874185  
    1215A      3.896013  1216A      3.928980  1217A      4.044811  
    1218A      4.063940  1219A      4.080359  

    Final Occupation by Irrep:
              A 
    DOCC [   197 ]
    NA   [   197 ]
    NB   [   197 ]

  @DF-RHF Final Energy: -2359.19981733325130

   => Energetics <=

    Nuclear Repulsion Energy =           8336.0556130575059797
    One-Electron Energy =              -19771.0802455837438174
    Two-Electron Energy =                9075.8248151929856249
    Total Energy =                      -2359.1998173332522128

Computation Completed


Properties will be evaluated at   0.000000,   0.000000,   0.000000 [a0]

Properties computed using the SCF density matrix


 Multipole Moments:

 ------------------------------------------------------------------------------------
     Multipole            Electronic (a.u.)      Nuclear  (a.u.)        Total (a.u.)
 ------------------------------------------------------------------------------------

 L = 1.  Multiply by 2.5417464519 to convert [e a0] to [Debye]
 Dipole X            :         -0.0005885            0.0006313            0.0000428
 Dipole Y            :         -6.1891501            7.4856329            1.2964829
 Dipole Z            :         14.6443222          -18.9639320           -4.3196098
 Magnitude           :                                                    4.5099775

 ------------------------------------------------------------------------------------

*** tstop() called on d-6-11-4 at Mon Jan 22 20:55:36 2024
Module time:
	user time   =    4567.38 seconds =      76.12 minutes
	system time =     279.41 seconds =       4.66 minutes
	total time  =       2123 seconds =      35.38 minutes
Total time:
	user time   =    4567.38 seconds =      76.12 minutes
	system time =     279.41 seconds =       4.66 minutes
	total time  =       2123 seconds =      35.38 minutes

  //>>>>>>>>>>>>>>>>>>>>>>>>>>>>>>>>>>>//
  //            Monomer A HF           //
  //<<<<<<<<<<<<<<<<<<<<<<<<<<<<<<<<<<<//

   => Libint2 <=

    Primary   basis highest AM E, G, H:  7, 7, 4
    Auxiliary basis highest AM E, G, H:  7, 7, 5
    Onebody   basis highest AM E, G, H:  7, 7, 5
    Solid Harmonics ordering:            gaussian

*** tstart() called on d-6-11-4
*** at Mon Jan 22 20:55:36 2024

   => Loading Basis Set <=

    Name: JUN-CC-PVDZ
    Role: ORBITAL
    Keyword: BASIS
    atoms 1-2, 4-5, 10, 17-70 entry C          line   164 file /home/gridsan/tfroembgen/.conda/envs/psi4test/share/psi4/basis/jun-cc-pvdz.gbs 
    atoms 3, 6                entry N          line   198 file /home/gridsan/tfroembgen/.conda/envs/psi4test/share/psi4/basis/jun-cc-pvdz.gbs 
    atoms 7-9, 11-16, 71-88   entry H          line    36 file /home/gridsan/tfroembgen/.conda/envs/psi4test/share/psi4/basis/jun-cc-pvdz.gbs 


         ---------------------------------------------------------
                                   SCF
               by Justin Turney, Rob Parrish, Andy Simmonett
                          and Daniel G. A. Smith
                              RHF Reference
                       12 Threads,  30517 MiB Core
         ---------------------------------------------------------

  ==> Geometry <==

    Molecular point group: c1
    Full point group: C1

    Geometry (in Angstrom), charge = 1, multiplicity = 1:

       Center              X                  Y                   Z               Mass       
    ------------   -----------------  -----------------  -----------------  -----------------
         C            0.680066520158     1.235968212970    -4.707155812817    12.000000000000
         C           -0.680504479842     1.237996212970    -4.706771812817    12.000000000000
         N           -1.085635479842     1.238994212970    -3.388447812817    14.003074004430
         C            0.000107520158     1.242270212970    -2.607046812817    12.000000000000
         C           -2.477365479842     1.288400212970    -2.920468812817    12.000000000000
         N            1.085221520158     1.238994212970    -3.388447812817    14.003074004430
         H            1.385145520158     1.228140212970    -5.524594812817     1.007825032230
         H           -1.385302479842     1.237806212970    -5.524440812817     1.007825032230
         H           -0.000009479842     1.244017212970    -1.525957812817     1.007825032230
         C            2.478116520158     1.222102212970    -2.923349812817    12.000000000000
         H            2.490591520158     1.249447212970    -1.833096812817     1.007825032230
         H            2.967027520158     0.308656212970    -3.270525812817     1.007825032230
         H            3.001427520158     2.097585212970    -3.314821812817     1.007825032230
         H           -2.857359479842     2.310471212970    -3.000427812817     1.007825032230
         H           -3.082679479842     0.618316212970    -3.533532812817     1.007825032230
         H           -2.518128479842     0.961416212970    -1.880520812817     1.007825032230
      Gh(C)           1.225311895423     0.526248873889     0.514910814466    12.000000000000
      Gh(C)           1.225323856051    -0.888828309601     0.502580004896    12.000000000000
      Gh(C)          -0.000006153932     1.233676499060     0.502046381375    12.000000000000
      Gh(C)           2.456448753949     1.237038472148     0.517797671866    12.000000000000
      Gh(C)           0.000010827279    -1.596265913665     0.512245938700    12.000000000000
      Gh(C)          -1.225300948908     0.526255958954     0.517162334789    12.000000000000
      Gh(C)           2.456437755320    -1.599612718911     0.500334848039    12.000000000000
      Gh(C)          -0.000001332978     2.655511616251     0.499642831241    12.000000000000
      Gh(C)           3.681826697470     0.528028540971     0.500683637837    12.000000000000
      Gh(C)           2.455120048865     2.652934246459     0.500581080876    12.000000000000
      Gh(C)           3.681821105219    -0.890623254459     0.516756121855    12.000000000000
      Gh(C)          -1.225313598688    -0.888816930574     0.503652766323    12.000000000000
      Gh(C)           1.226699581202     3.362180068964     0.516940153786    12.000000000000
      Gh(C)           0.000004784858    -3.018071554266     0.517094106321    12.000000000000
      Gh(C)          -2.456436032848     1.237027503255     0.517197730635    12.000000000000
      Gh(C)           2.455123417779    -3.015519443619     0.516604213488    12.000000000000
      Gh(C)          -1.226714364589     3.362179648720     0.517043487005    12.000000000000
      Gh(C)           4.914517295202     1.245883457459     0.507164320867    12.000000000000
      Gh(C)           3.693150191476     3.361505877515     0.507214120503    12.000000000000
      Gh(C)          -2.456437600068    -1.599602695869     0.500309809914    12.000000000000
      Gh(C)           1.226704841943    -3.724763656937     0.500970023036    12.000000000000
      Gh(C)          -2.455125398508     2.652927247604     0.500587457223    12.000000000000
      Gh(C)           4.914524380782    -1.608476324974     0.510137063601    12.000000000000
      Gh(C)           1.221424613699     4.788844650230     0.510275497861    12.000000000000
      Gh(C)           4.893008229321     2.643898584996     0.508380989225    12.000000000000
      Gh(C)          -1.226697008489    -3.724760412107     0.501237227446    12.000000000000
      Gh(C)          -3.681818976526     0.528035551702     0.500696318317    12.000000000000
      Gh(C)           3.693147101150    -3.724090756421     0.510254954162    12.000000000000
      Gh(C)          -1.221432251994     4.788838882833     0.510458993233    12.000000000000
      Gh(C)           6.134770972926     0.499258532075     0.507934095416    12.000000000000
      Gh(C)           3.656788880610     4.791663828537     0.508122758285    12.000000000000
      Gh(C)          -2.455126907733    -3.015504508091     0.516359855690    12.000000000000
      Gh(C)          -3.681819179061    -0.890615118499     0.516873743434    12.000000000000
      Gh(C)           4.893012617914    -3.006489520662     0.508992141121    12.000000000000
      Gh(C)          -0.000001073113     5.469157951002     0.509227684527    12.000000000000
      Gh(C)           6.134775112332    -0.861844269105     0.509199415932    12.000000000000
      Gh(C)           2.478131482856     5.472287336301     0.509411537935    12.000000000000
      Gh(C)           1.221422404738    -5.151416469963     0.507476000838    12.000000000000
      Gh(C)          -3.693162383965     3.361507539162     0.507379627962    12.000000000000
      Gh(C)          -1.221428520945    -5.151407718626     0.507363239005    12.000000000000
      Gh(C)          -4.914521807942     1.245886031965     0.507241265874    12.000000000000
      Gh(C)           3.656787019679    -5.154244641269     0.509573258819    12.000000000000
      Gh(C)          -2.478138530106     5.472285007498     0.509696062944    12.000000000000
      Gh(C)          -3.693141738564    -3.724079634009     0.510138828006    12.000000000000
      Gh(C)          -4.914512483053    -1.608470415058     0.510171760775    12.000000000000
      Gh(C)          -0.000006008926    -5.831727702044     0.508832180405    12.000000000000
      Gh(C)          -4.893020484101     2.643899183889     0.508370907365    12.000000000000
      Gh(C)           2.478125993298    -5.834862958919     0.508482658027    12.000000000000
      Gh(C)          -3.656798710258     4.791666767011     0.508299438660    12.000000000000
      Gh(C)          -4.892999478856    -3.006481182090     0.508838105423    12.000000000000
      Gh(C)          -2.478128498083    -5.834855585037     0.508207470380    12.000000000000
      Gh(C)          -6.134770503331     0.499259351226     0.507908543714    12.000000000000
      Gh(C)          -3.656788833189    -5.154233438001     0.509358971003    12.000000000000
      Gh(C)          -6.134765042913    -0.861843330512     0.509178940137    12.000000000000
      Gh(H)           5.835288495816     3.187986479924     0.512740314888     1.007825032230
      Gh(H)           7.073859172747     1.046927833869     0.508395738810     1.007825032230
      Gh(H)           4.600663264174     5.331091387423     0.508627959037     1.007825032230
      Gh(H)           5.835283387305    -3.550595471759     0.504537673806     1.007825032230
      Gh(H)          -0.000012151306     6.557241259106     0.504878439519     1.007825032230
      Gh(H)           7.073861171831    -1.409516357774     0.508690677838     1.007825032230
      Gh(H)           2.473313731799     6.559394876364     0.508944817005     1.007825032230
      Gh(H)           4.600668491381    -5.693665544206     0.509163261651     1.007825032230
      Gh(H)          -2.473318680537     6.559392304576     0.509246163630     1.007825032230
      Gh(H)          -0.000010268228    -6.919817591482     0.513361865390     1.007825032230
      Gh(H)          -5.835301914343     3.187981535266     0.512876337036     1.007825032230
      Gh(H)           2.473307923831    -6.921974789459     0.509052988452     1.007825032230
      Gh(H)          -4.600674841208     5.331088611573     0.508793287361     1.007825032230
      Gh(H)          -5.835279506835    -3.550578378810     0.504258367925     1.007825032230
      Gh(H)          -2.473300347440    -6.921968493170     0.508603671908     1.007825032230
      Gh(H)          -7.073857766768     1.046931057810     0.508311747329     1.007825032230
      Gh(H)          -4.600673786085    -5.693652084817     0.508990953628     1.007825032230
      Gh(H)          -7.073856934409    -1.409510047007     0.508595821371     1.007825032230

  Running in c1 symmetry.

  Rotational constants: A =      0.00183  B =      0.00183  C =      0.00108 [cm^-1]
  Rotational constants: A =     54.91009  B =     54.72517  C =     32.27506 [MHz]
  Nuclear repulsion =  306.774908447733083

  Charge       = 1
  Multiplicity = 1
  Electrons    = 52
  Nalpha       = 26
  Nbeta        = 26

  ==> Algorithm <==

  SCF Algorithm Type is DF.
  DIIS enabled.
  MOM disabled.
  Fractional occupation disabled.
  Guess Type is SAD.
  Energy threshold   = 1.00e-08
  Density threshold  = 1.00e-08
  Integral threshold = 1.00e-12

  ==> Primary Basis <==

  Basis Set: JUN-CC-PVDZ
    Blend: JUN-CC-PVDZ
    Number of shells: 569
    Number of basis functions: 1233
    Number of Cartesian functions: 1294
    Spherical Harmonics?: true
    Max angular momentum: 2

   => Loading Basis Set <=

    Name: (JUN-CC-PVDZ AUX)
    Role: JKFIT
    Keyword: DF_BASIS_SCF
    atoms 1-2, 4-5, 10, 17-70 entry C          line   146 file /home/gridsan/tfroembgen/.conda/envs/psi4test/share/psi4/basis/jun-cc-pvdz-jkfit.gbs 
    atoms 3, 6                entry N          line   202 file /home/gridsan/tfroembgen/.conda/envs/psi4test/share/psi4/basis/jun-cc-pvdz-jkfit.gbs 
    atoms 7-9, 11-16, 71-88   entry H          line    70 file /home/gridsan/tfroembgen/.conda/envs/psi4test/share/psi4/basis/jun-cc-pvdz-jkfit.gbs 

  ==> Integral Setup <==

  ==> DiskDFJK: Density-Fitted J/K Matrices <==

    J tasked:                  Yes
    K tasked:                  Yes
    wK tasked:                  No
    OpenMP threads:             12
    Integrals threads:          12
    Memory [MiB]:            22888
    Algorithm:                Disk
    Integral Cache:           LOAD
    Schwarz Cutoff:          1E-12
    Fitting Condition:       1E-10

   => Auxiliary Basis Set <=

  Basis Set: (JUN-CC-PVDZ AUX)
    Blend: JUN-CC-PVDZ-JKFIT
    Number of shells: 1890
    Number of basis functions: 5440
    Number of Cartesian functions: 6226
    Spherical Harmonics?: true
    Max angular momentum: 3

  Minimum eigenvalue in the overlap matrix is 6.2534982086E-10.
  Reciprocal condition number of the overlap matrix is 2.5321393270E-11.
    Using canonical orthogonalization.
  Overall, 14 of 1233 possible MOs eliminated.


  ==> Pre-Iterations <==

  SCF Guess: Superposition of Atomic Densities via on-the-fly atomic UHF (no occupation information).

   -------------------------
    Irrep   Nso     Nmo    
   -------------------------
     A       1233    1219 
   -------------------------
    Total    1233    1219
   -------------------------

  ==> Iterations <==

                           Total Energy        Delta E     RMS |[F,P]|

   @DF-RHF iter SAD:  -303.36536944871091   -3.03365e+02   0.00000e+00 
   @DF-RHF iter   1:  -303.17043959008060    1.94930e-01   3.44889e-04 DIIS/ADIIS
   @DF-RHF iter   2:  -303.28490122485698   -1.14462e-01   1.16110e-04 DIIS/ADIIS
   @DF-RHF iter   3:  -303.29642249198264   -1.15213e-02   4.55117e-05 DIIS
   @DF-RHF iter   4:  -303.29834819047778   -1.92570e-03   9.99053e-06 DIIS
   @DF-RHF iter   5:  -303.29845662645272   -1.08436e-04   2.44330e-06 DIIS
   @DF-RHF iter   6:  -303.29846617407321   -9.54762e-06   6.58334e-07 DIIS
   @DF-RHF iter   7:  -303.29846726964303   -1.09557e-06   3.36120e-07 DIIS
   @DF-RHF iter   8:  -303.29846753053329   -2.60890e-07   1.35448e-07 DIIS
   @DF-RHF iter   9:  -303.29846758081447   -5.02812e-08   3.36969e-08 DIIS
   @DF-RHF iter  10:  -303.29846758364107   -2.82660e-09   1.24255e-08 DIIS
   @DF-RHF iter  11:  -303.29846758387924   -2.38174e-10   2.84605e-09 DIIS
  Energy and wave function converged.


  ==> Post-Iterations <==

    Orbital Energies [Eh]
    ---------------------

    Doubly Occupied:                                                      

       1A    -15.834514     2A    -15.833995     3A    -11.529177  
       4A    -11.459656     5A    -11.458102     6A    -11.449525  
       7A    -11.449432     8A     -1.577747     9A     -1.433377  
      10A     -1.238249    11A     -1.188994    12A     -1.118620  
      13A     -1.022120    14A     -0.996593    15A     -0.916715  
      16A     -0.850196    17A     -0.815915    18A     -0.812808  
      19A     -0.789771    20A     -0.785995    21A     -0.781419  
      22A     -0.729492    23A     -0.725587    24A     -0.716984  
      25A     -0.595932    26A     -0.523548  

    Virtual:                                                              

      27A     -0.080188    28A     -0.073587    29A     -0.062755  
      30A     -0.055289    31A     -0.043510    32A     -0.040255  
      33A     -0.039846    34A     -0.039107    35A     -0.037770  
      36A     -0.026913    37A     -0.026818    38A     -0.020955  
      39A     -0.020657    40A     -0.015586    41A     -0.013862  
      42A     -0.013332    43A     -0.009968    44A     -0.007384  
      45A     -0.002016    46A      0.003123    47A      0.004679  
      48A      0.005934    49A      0.006191    50A      0.006760  
      51A      0.012588    52A      0.013357    53A      0.014338  
      54A      0.018120    55A      0.022597    56A      0.023276  
      57A      0.024017    58A      0.028908    59A      0.029452  
      60A      0.031149    61A      0.037306    62A      0.037832  
      63A      0.040299    64A      0.040945    65A      0.043599  
      66A      0.045948    67A      0.049540    68A      0.050976  
      69A      0.053077    70A      0.054079    71A      0.054854  
      72A      0.056486    73A      0.058495    74A      0.060275  
      75A      0.065493    76A      0.065985    77A      0.067346  
      78A      0.067724    79A      0.068127    80A      0.071230  
      81A      0.072220    82A      0.072849    83A      0.073200  
      84A      0.075578    85A      0.080447    86A      0.080546  
      87A      0.081604    88A      0.081849    89A      0.083798  
      90A      0.086086    91A      0.086669    92A      0.089443  
      93A      0.092131    94A      0.093084    95A      0.095526  
      96A      0.100812    97A      0.100962    98A      0.101653  
      99A      0.105576   100A      0.106319   101A      0.106667  
     102A      0.109482   103A      0.110892   104A      0.111471  
     105A      0.112544   106A      0.113412   107A      0.113873  
     108A      0.114193   109A      0.115412   110A      0.115911  
     111A      0.116316   112A      0.121016   113A      0.122553  
     114A      0.124071   115A      0.124527   116A      0.125489  
     117A      0.127488   118A      0.131938   119A      0.133696  
     120A      0.134953   121A      0.135364   122A      0.137092  
     123A      0.140466   124A      0.141096   125A      0.143267  
     126A      0.145084   127A      0.147645   128A      0.149196  
     129A      0.150427   130A      0.150922   131A      0.151853  
     132A      0.152621   133A      0.153573   134A      0.156057  
     135A      0.158171   136A      0.159074   137A      0.159376  
     138A      0.160465   139A      0.162560   140A      0.166613  
     141A      0.167342   142A      0.167897   143A      0.170467  
     144A      0.173072   145A      0.174139   146A      0.174805  
     147A      0.175562   148A      0.177958   149A      0.178683  
     150A      0.178834   151A      0.179378   152A      0.181631  
     153A      0.184413   154A      0.185543   155A      0.187878  
     156A      0.193086   157A      0.194328   158A      0.198192  
     159A      0.200264   160A      0.201367   161A      0.202437  
     162A      0.203700   163A      0.204483   164A      0.206104  
     165A      0.207026   166A      0.209182   167A      0.209853  
     168A      0.212121   169A      0.212725   170A      0.213237  
     171A      0.214260   172A      0.220320   173A      0.221123  
     174A      0.221377   175A      0.223314   176A      0.223659  
     177A      0.224721   178A      0.226134   179A      0.227407  
     180A      0.229660   181A      0.229827   182A      0.230733  
     183A      0.234841   184A      0.236533   185A      0.237137  
     186A      0.239416   187A      0.239499   188A      0.242388  
     189A      0.244416   190A      0.248327   191A      0.249920  
     192A      0.252459   193A      0.256359   194A      0.258875  
     195A      0.259274   196A      0.260788   197A      0.263130  
     198A      0.264331   199A      0.268026   200A      0.269100  
     201A      0.270684   202A      0.273360   203A      0.274182  
     204A      0.276268   205A      0.277571   206A      0.277822  
     207A      0.281939   208A      0.283582   209A      0.284327  
     210A      0.285626   211A      0.286861   212A      0.288242  
     213A      0.289947   214A      0.290700   215A      0.294344  
     216A      0.295621   217A      0.298183   218A      0.299702  
     219A      0.303311   220A      0.304670   221A      0.307016  
     222A      0.308501   223A      0.311156   224A      0.311537  
     225A      0.312937   226A      0.313659   227A      0.314657  
     228A      0.315544   229A      0.319552   230A      0.322962  
     231A      0.324489   232A      0.326633   233A      0.329383  
     234A      0.332774   235A      0.338960   236A      0.339477  
     237A      0.343030   238A      0.345261   239A      0.346042  
     240A      0.350223   241A      0.353217   242A      0.353634  
     243A      0.355222   244A      0.356506   245A      0.356876  
     246A      0.359936   247A      0.360765   248A      0.364683  
     249A      0.366016   250A      0.369887   251A      0.372367  
     252A      0.373587   253A      0.374606   254A      0.375871  
     255A      0.379581   256A      0.380147   257A      0.381838  
     258A      0.382104   259A      0.384181   260A      0.386219  
     261A      0.387209   262A      0.391046   263A      0.391859  
     264A      0.393125   265A      0.395577   266A      0.396434  
     267A      0.397846   268A      0.399811   269A      0.402846  
     270A      0.403514   271A      0.407864   272A      0.409379  
     273A      0.410358   274A      0.410627   275A      0.413982  
     276A      0.415656   277A      0.418102   278A      0.419196  
     279A      0.421486   280A      0.422514   281A      0.427177  
     282A      0.427351   283A      0.432824   284A      0.435237  
     285A      0.435612   286A      0.439936   287A      0.441416  
     288A      0.442777   289A      0.443887   290A      0.445987  
     291A      0.449125   292A      0.449822   293A      0.452167  
     294A      0.453469   295A      0.453960   296A      0.456898  
     297A      0.457358   298A      0.461442   299A      0.462125  
     300A      0.462825   301A      0.468475   302A      0.470076  
     303A      0.470175   304A      0.471515   305A      0.474387  
     306A      0.477636   307A      0.478750   308A      0.483858  
     309A      0.486396   310A      0.487810   311A      0.490252  
     312A      0.493301   313A      0.494921   314A      0.496779  
     315A      0.499318   316A      0.501954   317A      0.503009  
     318A      0.504335   319A      0.507249   320A      0.508923  
     321A      0.510057   322A      0.511579   323A      0.512591  
     324A      0.520273   325A      0.521708   326A      0.525312  
     327A      0.527489   328A      0.530397   329A      0.532576  
     330A      0.534193   331A      0.536732   332A      0.540608  
     333A      0.541351   334A      0.543428   335A      0.546595  
     336A      0.549261   337A      0.550891   338A      0.553692  
     339A      0.555155   340A      0.556851   341A      0.557811  
     342A      0.559398   343A      0.563788   344A      0.565108  
     345A      0.569366   346A      0.570450   347A      0.572082  
     348A      0.573613   349A      0.575776   350A      0.581565  
     351A      0.584532   352A      0.588357   353A      0.589439  
     354A      0.591694   355A      0.593241   356A      0.594968  
     357A      0.598421   358A      0.601495   359A      0.603417  
     360A      0.604406   361A      0.605484   362A      0.606446  
     363A      0.609404   364A      0.610729   365A      0.614208  
     366A      0.615026   367A      0.617304   368A      0.620351  
     369A      0.623269   370A      0.629209   371A      0.632561  
     372A      0.634362   373A      0.637487   374A      0.641465  
     375A      0.643571   376A      0.645899   377A      0.649049  
     378A      0.656312   379A      0.660115   380A      0.664087  
     381A      0.668389   382A      0.670836   383A      0.672469  
     384A      0.674962   385A      0.677080   386A      0.678433  
     387A      0.681725   388A      0.683281   389A      0.684576  
     390A      0.686333   391A      0.686833   392A      0.687166  
     393A      0.691469   394A      0.693958   395A      0.695597  
     396A      0.699846   397A      0.704480   398A      0.706701  
     399A      0.710396   400A      0.711472   401A      0.711793  
     402A      0.714648   403A      0.718316   404A      0.719305  
     405A      0.725706   406A      0.726539   407A      0.729701  
     408A      0.737433   409A      0.745974   410A      0.756435  
     411A      0.764002   412A      0.765710   413A      0.767065  
     414A      0.769525   415A      0.772141   416A      0.773772  
     417A      0.774368   418A      0.778130   419A      0.780877  
     420A      0.785957   421A      0.792635   422A      0.793722  
     423A      0.798627   424A      0.802727   425A      0.803970  
     426A      0.804639   427A      0.805307   428A      0.814386  
     429A      0.816063   430A      0.817378   431A      0.820352  
     432A      0.824032   433A      0.831599   434A      0.835446  
     435A      0.840745   436A      0.843745   437A      0.848665  
     438A      0.861093   439A      0.865926   440A      0.866731  
     441A      0.875906   442A      0.878199   443A      0.884520  
     444A      0.886526   445A      0.893310   446A      0.896781  
     447A      0.904488   448A      0.905909   449A      0.915344  
     450A      0.922851   451A      0.923159   452A      0.924392  
     453A      0.925116   454A      0.931550   455A      0.936168  
     456A      0.938575   457A      0.945675   458A      0.953262  
     459A      0.957760   460A      0.971273   461A      0.975674  
     462A      0.977619   463A      0.978626   464A      0.983729  
     465A      0.987253   466A      0.989369   467A      0.990415  
     468A      1.007104   469A      1.013034   470A      1.018073  
     471A      1.019490   472A      1.023531   473A      1.025709  
     474A      1.052364   475A      1.059187   476A      1.060032  
     477A      1.064135   478A      1.069544   479A      1.076506  
     480A      1.077562   481A      1.083960   482A      1.091732  
     483A      1.095726   484A      1.100937   485A      1.101293  
     486A      1.102264   487A      1.112842   488A      1.113593  
     489A      1.122991   490A      1.133403   491A      1.134060  
     492A      1.138578   493A      1.143036   494A      1.146137  
     495A      1.155802   496A      1.168015   497A      1.177487  
     498A      1.182344   499A      1.185211   500A      1.203448  
     501A      1.208527   502A      1.210688   503A      1.215283  
     504A      1.220567   505A      1.220962   506A      1.224425  
     507A      1.240338   508A      1.240876   509A      1.242045  
     510A      1.243135   511A      1.282700   512A      1.283293  
     513A      1.289538   514A      1.312392   515A      1.343197  
     516A      1.350887   517A      1.356123   518A      1.363907  
     519A      1.372577   520A      1.375496   521A      1.377683  
     522A      1.378893   523A      1.385611   524A      1.406790  
     525A      1.409267   526A      1.418730   527A      1.424029  
     528A      1.445825   529A      1.458831   530A      1.463010  
     531A      1.466737   532A      1.471695   533A      1.477905  
     534A      1.485050   535A      1.496031   536A      1.498727  
     537A      1.522927   538A      1.525852   539A      1.536766  
     540A      1.543137   541A      1.545844   542A      1.560657  
     543A      1.568257   544A      1.575323   545A      1.578784  
     546A      1.584038   547A      1.585004   548A      1.593642  
     549A      1.596784   550A      1.602427   551A      1.606844  
     552A      1.618017   553A      1.623600   554A      1.632996  
     555A      1.639961   556A      1.656795   557A      1.660504  
     558A      1.667470   559A      1.672340   560A      1.673950  
     561A      1.676667   562A      1.682811   563A      1.683965  
     564A      1.686191   565A      1.691103   566A      1.691733  
     567A      1.696474   568A      1.700866   569A      1.705570  
     570A      1.707121   571A      1.710034   572A      1.714850  
     573A      1.716194   574A      1.716860   575A      1.724319  
     576A      1.727702   577A      1.732817   578A      1.735876  
     579A      1.737061   580A      1.740488   581A      1.744765  
     582A      1.746698   583A      1.752717   584A      1.755303  
     585A      1.756129   586A      1.757425   587A      1.761618  
     588A      1.765156   589A      1.769469   590A      1.771752  
     591A      1.773747   592A      1.775515   593A      1.778330  
     594A      1.782859   595A      1.785604   596A      1.790556  
     597A      1.794541   598A      1.799732   599A      1.801872  
     600A      1.803370   601A      1.803706   602A      1.807938  
     603A      1.812182   604A      1.817250   605A      1.819094  
     606A      1.820318   607A      1.821817   608A      1.824205  
     609A      1.824733   610A      1.828132   611A      1.831524  
[...]
     814A      1.749600   815A      1.753835   816A      1.760857  
     817A      1.761300   818A      1.763288   819A      1.767751  
     820A      1.775933   821A      1.779260   822A      1.789906  
     823A      1.791993   824A      1.793519   825A      1.802669  
     826A      1.817712   827A      1.819321   828A      1.820829  
     829A      1.821172   830A      1.823551   831A      1.825066  
     832A      1.826467   833A      1.834923   834A      1.839572  
     835A      1.840482   836A      1.842968   837A      1.844524  
     838A      1.847315   839A      1.859136   840A      1.861624  
     841A      1.862661   842A      1.864088   843A      1.866841  
     844A      1.871434   845A      1.871886   846A      1.877990  
     847A      1.879882   848A      1.886065   849A      1.893811  
     850A      1.895401   851A      1.902054   852A      1.902303  
     853A      1.906348   854A      1.908468   855A      1.912217  
     856A      1.915888   857A      1.918488   858A      1.919333  
     859A      1.920198   860A      1.921194   861A      1.923205  
     862A      1.923446   863A      1.934447   864A      1.940549  
     865A      1.942306   866A      1.944105   867A      1.944922  
     868A      1.945722   869A      1.946832   870A      1.950853  
     871A      1.951529   872A      1.957838   873A      1.958487  
     874A      1.959666   875A      1.963790   876A      1.974010  
     877A      1.976521   878A      1.977641   879A      1.980154  
     880A      1.990870   881A      1.991370   882A      1.996150  
     883A      1.998394   884A      2.001187   885A      2.002981  
     886A      2.003975   887A      2.008991   888A      2.011860  
     889A      2.012769   890A      2.017833   891A      2.027164  
     892A      2.029521   893A      2.032316   894A      2.033029  
     895A      2.033469   896A      2.037240   897A      2.040397  
     898A      2.043686   899A      2.048886   900A      2.053316  
     901A      2.054478   902A      2.056010   903A      2.060006  
     904A      2.065090   905A      2.066196   906A      2.068176  
     907A      2.071757   908A      2.075212   909A      2.076324  
     910A      2.077743   911A      2.080845   912A      2.083450  
     913A      2.087512   914A      2.088570   915A      2.090577  
     916A      2.093513   917A      2.094317   918A      2.097455  
     919A      2.098320   920A      2.100029   921A      2.101760  
     922A      2.103213   923A      2.106745   924A      2.108782  
     925A      2.110964   926A      2.112324   927A      2.113954  
     928A      2.114129   929A      2.117246   930A      2.120150  
     931A      2.120964   932A      2.121749   933A      2.122573  
     934A      2.126019   935A      2.127965   936A      2.130713  
     937A      2.132301   938A      2.134772   939A      2.136228  
     940A      2.137771   941A      2.139536   942A      2.143117  
     943A      2.143492   944A      2.147255   945A      2.152925  
     946A      2.157405   947A      2.160125   948A      2.161853  
     949A      2.162071   950A      2.168068   951A      2.174128  
     952A      2.175003   953A      2.180329   954A      2.184106  
     955A      2.186593   956A      2.190202   957A      2.191521  
     958A      2.192354   959A      2.194718   960A      2.201278  
     961A      2.203360   962A      2.207001   963A      2.218446  
     964A      2.219247   965A      2.221169   966A      2.230101  
     967A      2.232640   968A      2.237398   969A      2.238676  
     970A      2.240883   971A      2.245418   972A      2.246473  
     973A      2.246717   974A      2.249856   975A      2.251210  
     976A      2.252421   977A      2.254888   978A      2.260832  
     979A      2.265741   980A      2.268234   981A      2.269875  
     982A      2.272197   983A      2.273880   984A      2.274839  
     985A      2.281158   986A      2.287994   987A      2.291370  
     988A      2.295953   989A      2.302079   990A      2.308132  
     991A      2.311688   992A      2.315993   993A      2.316579  
     994A      2.317958   995A      2.329098   996A      2.335036  
     997A      2.335499   998A      2.339805   999A      2.341248  
    1000A      2.350098  1001A      2.350578  1002A      2.353113  
    1003A      2.356448  1004A      2.360986  1005A      2.363576  
    1006A      2.367456  1007A      2.371699  1008A      2.376397  
    1009A      2.384550  1010A      2.401541  1011A      2.406902  
    1012A      2.416412  1013A      2.422668  1014A      2.424726  
    1015A      2.425316  1016A      2.426189  1017A      2.435901  
    1018A      2.437336  1019A      2.439637  1020A      2.451788  
    1021A      2.452619  1022A      2.473443  1023A      2.477678  
    1024A      2.479197  1025A      2.485132  1026A      2.490900  
    1027A      2.492640  1028A      2.495926  1029A      2.511788  
    1030A      2.512519  1031A      2.523037  1032A      2.525900  
    1033A      2.531454  1034A      2.539946  1035A      2.544139  
    1036A      2.550784  1037A      2.552823  1038A      2.554037  
    1039A      2.555509  1040A      2.558884  1041A      2.561012  
    1042A      2.562009  1043A      2.564055  1044A      2.571518  
    1045A      2.572273  1046A      2.573318  1047A      2.575503  
    1048A      2.578870  1049A      2.581809  1050A      2.589350  
    1051A      2.590677  1052A      2.598265  1053A      2.600635  
    1054A      2.606946  1055A      2.614125  1056A      2.618328  
    1057A      2.624183  1058A      2.629036  1059A      2.633002  
    1060A      2.639329  1061A      2.641444  1062A      2.643970  
    1063A      2.646121  1064A      2.653125  1065A      2.655265  
    1066A      2.659293  1067A      2.670187  1068A      2.673238  
    1069A      2.683755  1070A      2.688973  1071A      2.689790  
    1072A      2.695627  1073A      2.704352  1074A      2.711891  
    1075A      2.714473  1076A      2.715504  1077A      2.719172  
    1078A      2.719711  1079A      2.722851  1080A      2.726437  
    1081A      2.729581  1082A      2.738708  1083A      2.747703  
    1084A      2.755267  1085A      2.757347  1086A      2.763398  
    1087A      2.770341  1088A      2.779188  1089A      2.785442  
    1090A      2.794643  1091A      2.799300  1092A      2.804616  
    1093A      2.820436  1094A      2.824065  1095A      2.831414  
    1096A      2.834016  1097A      2.840215  1098A      2.856665  
    1099A      2.856909  1100A      2.858926  1101A      2.865907  
    1102A      2.868815  1103A      2.872529  1104A      2.894003  
    1105A      2.920008  1106A      2.920716  1107A      2.931143  
    1108A      2.935215  1109A      2.940539  1110A      2.946502  
    1111A      2.954423  1112A      2.957964  1113A      2.965189  
    1114A      2.965704  1115A      2.972681  1116A      2.992496  
    1117A      3.006658  1118A      3.011808  1119A      3.015414  
    1120A      3.026013  1121A      3.037067  1122A      3.048722  
    1123A      3.063799  1124A      3.066099  1125A      3.066720  
    1126A      3.074759  1127A      3.085718  1128A      3.089696  
    1129A      3.101230  1130A      3.117501  1131A      3.126953  
    1132A      3.131826  1133A      3.137487  1134A      3.140757  
    1135A      3.143168  1136A      3.144700  1137A      3.148269  
    1138A      3.150229  1139A      3.151129  1140A      3.156479  
    1141A      3.160701  1142A      3.168055  1143A      3.171174  
    1144A      3.174836  1145A      3.187070  1146A      3.192892  
    1147A      3.208514  1148A      3.211322  1149A      3.217975  
    1150A      3.239365  1151A      3.252413  1152A      3.284893  
    1153A      3.288832  1154A      3.307865  1155A      3.309868  
    1156A      3.318407  1157A      3.343812  1158A      3.372518  
    1159A      3.413897  1160A      3.423815  1161A      3.425753  
    1162A      3.482882  1163A      3.496418  1164A      3.513116  
    1165A      3.536888  1166A      3.559891  1167A      3.570018  
    1168A      3.609803  1169A      3.614256  1170A      3.637666  
    1171A      3.644951  1172A      3.661469  1173A      3.666057  
    1174A      3.670431  1175A      3.693304  1176A      3.728393  
    1177A      3.766291  1178A      3.787583  1179A      3.803953  
    1180A      3.858579  1181A      3.872196  1182A      3.872284  
    1183A      3.887699  1184A      3.915782  1185A      3.917546  
    1186A      3.946131  1187A      3.979987  1188A      4.010841  
    1189A      4.018034  1190A      4.129159  1191A      4.150236  
    1192A      4.160538  1193A      4.246999  1194A      4.310104  
    1195A      4.428160  1196A      4.450145  1197A      4.527790  
    1198A      4.817715  1199A      4.859758  1200A      4.918146  
    1201A      4.964412  1202A      4.980401  1203A      5.088977  
    1204A      5.099210  1205A      5.121511  1206A      5.166480  
    1207A      5.235904  1208A      5.436594  1209A      5.447240  
    1210A      5.777406  1211A      5.814539  1212A      6.085439  
    1213A     18.207809  1214A     18.493720  1215A     18.518560  
    1216A     18.606974  1217A     18.861513  1218A     25.360285  
    1219A     25.395662  

    Final Occupation by Irrep:
              A 
    DOCC [   171 ]
    NA   [   171 ]
    NB   [   171 ]

  @DF-RHF Final Energy: -2055.89560772765935

   => Energetics <=

    Nuclear Repulsion Energy =           6452.5568002797781446
    One-Electron Energy =              -15636.5323278864761960
    Two-Electron Energy =                7128.0799198790382434
    Total Energy =                      -2055.8956077276588985

Computation Completed


Properties will be evaluated at   0.000000,   0.000000,   0.000000 [a0]

Properties computed using the SCF density matrix


 Multipole Moments:

 ------------------------------------------------------------------------------------
     Multipole            Electronic (a.u.)      Nuclear  (a.u.)        Total (a.u.)
 ------------------------------------------------------------------------------------

 L = 1.  Multiply by 2.5417464519 to convert [e a0] to [Debye]
 Dipole X            :          0.0007196           -0.0000085            0.0007111
 Dipole Y            :        117.1722982         -117.1648546            0.0074436
 Dipole Z            :       -328.8106827          328.8117155            0.0010328
 Magnitude           :                                                    0.0075485

 ------------------------------------------------------------------------------------

*** tstop() called on d-6-11-4 at Mon Jan 22 21:33:26 2024
Module time:
	user time   =    2891.49 seconds =      48.19 minutes
	system time =     208.86 seconds =       3.48 minutes
	total time  =        720 seconds =      12.00 minutes
Total time:
	user time   =    9297.43 seconds =     154.96 minutes
	system time =     736.76 seconds =      12.28 minutes
	total time  =       4393 seconds =      73.22 minutes
  Constructing Basis Sets for SAPT...

   => Loading Basis Set <=

    Name: (JUN-CC-PVDZ AUX)
    Role: RIFIT
    Keyword: DF_BASIS_SAPT
    atoms 1-2, 4-5, 10, 17-70 entry C          line   100 file /home/gridsan/tfroembgen/.conda/envs/psi4test/share/psi4/basis/jun-cc-pvdz-ri.gbs 
    atoms 3, 6                entry N          line   144 file /home/gridsan/tfroembgen/.conda/envs/psi4test/share/psi4/basis/jun-cc-pvdz-ri.gbs 
    atoms 7-9, 11-16, 71-88   entry H          line    30 file /home/gridsan/tfroembgen/.conda/envs/psi4test/share/psi4/basis/jun-cc-pvdz-ri.gbs 

   => Loading Basis Set <=

    Name: (JUN-CC-PVDZ AUX)
    Role: JKFIT
    Keyword: DF_BASIS_ELST
    atoms 1-2, 4-5, 10, 17-70 entry C          line   146 file /home/gridsan/tfroembgen/.conda/envs/psi4test/share/psi4/basis/jun-cc-pvdz-jkfit.gbs 
    atoms 3, 6                entry N          line   202 file /home/gridsan/tfroembgen/.conda/envs/psi4test/share/psi4/basis/jun-cc-pvdz-jkfit.gbs 
    atoms 7-9, 11-16, 71-88   entry H          line    70 file /home/gridsan/tfroembgen/.conda/envs/psi4test/share/psi4/basis/jun-cc-pvdz-jkfit.gbs 


  //>>>>>>>>>>>>>>>>>>>>>>>>>>>>>>>>>>>//
  //               SSAPT0              //
  //<<<<<<<<<<<<<<<<<<<<<<<<<<<<<<<<<<<//


*** tstart() called on d-6-11-4
*** at Mon Jan 22 21:33:27 2024

        SAPT0  
    Ed Hohenstein
     6 June 2009

      Orbital Information
  --------------------------
    NSO        =      1233
    NMO        =      1219
    NRI        =      4343
    NRI (Elst) =      5440
    NOCC A     =        26
    NOCC B     =       171
    FOCC A     =         7
    FOCC B     =        54
    NVIR A     =      1193
    NVIR B     =      1048

    Elst10,r            =    -0.024726633809 [Eh]
    Exch10              =     0.043702399084 [Eh]
    Exch10 (S^2)        =     0.043170841804 [Eh]

    Iter     Energy [mEh]          dE [mEh]         Residual      Time [s]
       1      -3.60015085       3.600150851       9.378917683           387
       2      -4.35935330       0.759202450       3.163018119           491
       3      -4.46212298       0.102769679       0.494380895           682
       4      -4.45533271      -0.006790267       0.153215617           956
       5      -4.45329697      -0.002035743       0.031116063          1188
       6      -4.45380028       0.000503306       0.009023894          1389
       7      -4.45379274      -0.000007532       0.005269220          1407
       8      -4.45375059      -0.000042155       0.001816666          1425
       9      -4.45375151       0.000000919       0.000615529          1452
      10      -4.45375516       0.000003652       0.000175313          1595
      11      -4.45375532       0.000000163       0.000050887          1680
      12      -4.45375509      -0.000000237       0.000015529          1909
      13      -4.45375504      -0.000000043       0.000003901          2143
      14      -4.45375507       0.000000022       0.000001144          2262
      15      -4.45375507      -0.000000001       0.000000405          2289

    CHF Iterations converged


    Iter     Energy [mEh]          dE [mEh]         Residual      Time [s]
       1     -30.17782465      30.177824649      81.095220936           155
       2     -23.42449766      -6.753326986      13.605896240           314
       3     -24.43045160       1.005953938       6.624539757           348
       4     -25.30463563       0.874184033       1.411951216           371
       5     -25.31199978       0.007364144       0.735223536           397
       6     -25.26463570      -0.047364079       0.395027464           418
       7     -25.26294380      -0.001691895       0.290844121           439
       8     -25.27682671       0.013882910       0.160787241           548
       9     -25.27861127       0.001784557       0.092713621           571
      10     -25.27544542      -0.003165850       0.048537282           598
      11     -25.27495707      -0.000488355       0.020783467           621
      12     -25.27548714       0.000530074       0.008052725           644
      13     -25.27557901       0.000091874       0.003520149           667
      14     -25.27554364      -0.000035372       0.001653298           690
      15     -25.27551077      -0.000032872       0.000791568           713
      16     -25.27551490       0.000004133       0.000369133           748
      17     -25.27552278       0.000007876       0.000196022           773
      18     -25.27552271      -0.000000065       0.000118511           797
      19     -25.27552064      -0.000002072       0.000056473           821
      20     -25.27552031      -0.000000327       0.000021151           844
      21     -25.27552071       0.000000400       0.000010574           867
      22     -25.27552081       0.000000093       0.000005312           886
      23     -25.27552071      -0.000000096       0.000002882           906
      24     -25.27552069      -0.000000021       0.000001290           926
      25     -25.27552071       0.000000019       0.000000544           946

    CHF Iterations converged

    Ind20,r (A<-B)      =    -0.004453755065 [Eh]
    Ind20,r (B<-A)      =    -0.025275520710 [Eh]
    Ind20,r             =    -0.029729275776 [Eh]
    Exch-Ind20,r (A<-B) =     0.004178051389 [Eh]
    Exch-Ind20,r (B<-A) =     0.008298813254 [Eh]
    Exch-Ind20,r        =     0.012476864642 [Eh]
    Disp20              =    -0.034520711390 [Eh]
    Disp20 (SS)         =    -0.017260355695 [Eh]
    Disp20 (OS)         =    -0.017260355695 [Eh]
    Exch-Disp20         =     0.003023809834 [Eh]
    Exch-Disp20 (SS)    =     0.001846588568 [Eh]
    Exch-Disp20 (OS)    =     0.001177221265 [Eh]

    SAPT Results 
  --------------------------------------------------------------------------------------------------------
    Electrostatics                -24.72663381 [mEh]     -15.51619697 [kcal/mol]     -64.91976812 [kJ/mol]
      Elst10,r                    -24.72663381 [mEh]     -15.51619697 [kcal/mol]     -64.91976812 [kJ/mol]

    Exchange                       43.70239908 [mEh]      27.42366945 [kcal/mol]     114.74063299 [kJ/mol]
      Exch10                       43.70239908 [mEh]      27.42366945 [kcal/mol]     114.74063299 [kJ/mol]
      Exch10(S^2)                  43.17084180 [mEh]      27.09011222 [kcal/mol]     113.34502954 [kJ/mol]

    Induction                     -24.71778699 [mEh]     -15.51064551 [kcal/mol]     -64.89654080 [kJ/mol]
      Ind20,r                     -29.72927578 [mEh]     -18.65540220 [kcal/mol]     -78.05420280 [kJ/mol]
      Exch-Ind20,r                 12.47686464 [mEh]       7.82935077 [kcal/mol]      32.75800361 [kJ/mol]
      delta HF,r (2)               -7.46537585 [mEh]      -4.68459407 [kcal/mol]     -19.60034161 [kJ/mol]

    Dispersion                    -31.49690156 [mEh]     -19.76460412 [kcal/mol]     -82.69510364 [kJ/mol]
      Disp20                      -34.52071139 [mEh]     -21.66207344 [kcal/mol]     -90.63411527 [kJ/mol]
      Exch-Disp20                   3.02380983 [mEh]       1.89746932 [kcal/mol]       7.93901162 [kJ/mol]
      Disp20 (SS)                 -17.26035570 [mEh]     -10.83103672 [kcal/mol]     -45.31705763 [kJ/mol]
      Disp20 (OS)                 -17.26035570 [mEh]     -10.83103672 [kcal/mol]     -45.31705763 [kJ/mol]
      Exch-Disp20 (SS)              1.84658857 [mEh]       1.15875182 [kcal/mol]       4.84821762 [kJ/mol]
      Exch-Disp20 (OS)              1.17722127 [mEh]       0.73871750 [kcal/mol]       3.09079401 [kJ/mol]

  Total HF                         -5.74202171 [mEh]      -3.60317302 [kcal/mol]     -15.07567593 [kJ/mol]
  Total SAPT0                     -37.23892327 [mEh]     -23.36777714 [kcal/mol]     -97.77077957 [kJ/mol]

  Special recipe for scaled SAPT0 (see Manual):
    Electrostatics sSAPT0         -24.72663381 [mEh]     -15.51619697 [kcal/mol]     -64.91976812 [kJ/mol]
    Exchange sSAPT0                43.70239908 [mEh]      27.42366945 [kcal/mol]     114.74063299 [kJ/mol]
    Induction sSAPT0              -24.25121065 [mEh]     -15.21786443 [kcal/mol]     -63.67154478 [kJ/mol]
    Dispersion sSAPT0             -31.38382522 [mEh]     -19.69364765 [kcal/mol]     -82.39822177 [kJ/mol]
  Total sSAPT0                    -36.65927059 [mEh]     -23.00403960 [kcal/mol]     -96.24890168 [kJ/mol]
  --------------------------------------------------------------------------------------------------------

*** tstop() called on d-6-11-4 at Mon Jan 22 23:25:30 2024
Module time:
	user time   =    9408.88 seconds =     156.81 minutes
	system time =    1065.71 seconds =      17.76 minutes
	total time  =       6723 seconds =     112.05 minutes
Total time:
	user time   =   18707.55 seconds =     311.79 minutes
	system time =    1802.50 seconds =      30.04 minutes
	total time  =      11117 seconds =     185.28 minutes

    Psi4 stopped on: Monday, 22 January 2024 11:25PM
    Psi4 wall time for execution: 3:05:17.80

*** Psi4 exiting successfully. Buy a developer a beer!
