
    -----------------------------------------------------------------------
          Psi4: An Open-Source Ab Initio Electronic Structure Package
                               Psi4 1.9 release

                         Git: Rev {} zzzzzzz 


    D. G. A. Smith, L. A. Burns, A. C. Simmonett, R. M. Parrish,
    M. C. Schieber, R. Galvelis, P. Kraus, H. Kruse, R. Di Remigio,
    A. Alenaizan, A. M. James, S. Lehtola, J. P. Misiewicz, M. Scheurer,
    R. A. Shaw, J. B. Schriber, Y. Xie, Z. L. Glick, D. A. Sirianni,
    J. S. O'Brien, J. M. Waldrop, A. Kumar, E. G. Hohenstein,
    B. P. Pritchard, B. R. Brooks, H. F. Schaefer III, A. Yu. Sokolov,
    K. Patkowski, A. E. DePrince III, U. Bozkaya, R. A. King,
    F. A. Evangelista, J. M. Turney, T. D. Crawford, C. D. Sherrill,
    J. Chem. Phys. 152(18) 184108 (2020). https://doi.org/10.1063/5.0006002

                            Additional Code Authors
    E. T. Seidl, C. L. Janssen, E. F. Valeev, M. L. Leininger,
    J. F. Gonthier, R. M. Richard, H. R. McAlexander, M. Saitow, X. Wang,
    P. Verma, M. H. Lechner, A. Jiang, S. Behnle, A. G. Heide,
    M. F. Herbst, and D. L. Poole

             Previous Authors, Complete List of Code Contributors,
                       and Citations for Specific Modules
    https://github.com/psi4/psi4/blob/master/codemeta.json
    https://github.com/psi4/psi4/graphs/contributors
    http://psicode.org/psi4manual/master/introduction.html#citing-psifour

    -----------------------------------------------------------------------


    Psi4 started on: Monday, 22 January 2024 12:00PM

    Process ID: 2404420
    Host:       d-16-12-3
    PSIDATADIR: /home/gridsan/tfroembgen/.conda/envs/psi4test/share/psi4
    Memory:     500.0 MiB
    Threads:    12
    
  ==> Input File <==

--------------------------------------------------------------------------
memory 32 GB # how much memory is available ! Depends on the nodes/cores !

molecule dimer {
# monomer A
-1 1    # Charge and multiplicity
B -0.000046  0.000337 5.599994
F -1.153597  0.000048 6.415641
F  1.153661 -0.000581 6.415641
F -0.000019 -1.153637 4.784360
F -0.000019  1.153978 4.784360
--
# monomer B
0 1     # Charge and multiplicity
C   1.22531237526482      0.70753866091955      0.00613762728373
C   1.22532433589282     -0.70753852257020     -0.00619318228664
C   -0.00000567409046      1.41496628609039     -0.00672680580738
C   2.45644923379077      1.41832825917820      0.00902448468363
C   0.00001130712078     -1.41497612663474      0.00347275151708
C   -1.22530046906674      0.70754574598412      0.00838914760619
C   2.45643823516184     -1.41832293188077     -0.00843833914343
C   -0.00000085313587      2.83680140328112     -0.00913035594137
C   3.68182717731192      0.70931832800114     -0.00808954934571
C   2.45512052870677      2.83422403348893     -0.00819210630633
C   3.68182158506039     -0.70933346742900      0.00798293467272
C   -1.22531311884624     -0.70752714354401     -0.00512042085974
C   1.22670006104402      3.54346985599427      0.00816696660346
C   0.00000526469929     -2.83678176723568      0.00832091913869
C   -2.45643555300670      1.41831729028492      0.00842454345199
C   2.45512389762097     -2.83422965658853      0.00783102630520
C   -1.22671388474763      3.54346943575023      0.00827029982280
C   4.91451777504333      1.42717324448953     -0.00160886631602
C   3.69315067131765      3.54279566454522     -0.00155906667985
C   -2.45643712022637     -1.41831290883911     -0.00846337726810
C   1.22670532178455     -3.54347386990643     -0.00780316414624
C   -2.45512491866593      2.83421703463423     -0.00818572995999
C   4.91452486062398     -1.42718653794377      0.00136387641845
C   1.22142509354026      4.97013443726031      0.00150231067809
C   4.89300870916237      2.82518837202648     -0.00039219795739
C   -1.22669652864725     -3.54347062507680     -0.00753595973677
C   -3.68181849668397      0.70932533873199     -0.00807686886569
C   3.69314758099218     -3.54280096939050      0.00148176697923
C   -1.22143177215231      4.97012866986289      0.00168580605083
C   6.13477145276790      0.68054831910577     -0.00083909176631
C   3.65678936045204      4.97295361556775     -0.00065042889723
C   -2.45512642789169     -2.83421472106065      0.00758666850712
C   -3.68181869921921     -0.70932533146830      0.00810055625144
C   4.89301309775526     -2.82519973363176      0.00021895393805
C   -0.00000059327114      5.65044773803267      0.00045449734393
C   6.13477559217374     -0.68055448207492      0.00042622874941
C   2.47813196269732      5.65357712333155      0.00063835075260
C   1.22142288457925     -4.97012668293268     -0.00129718634452
C   -3.69316190412301      3.54279732619245     -0.00139355922051
C   -1.22142804110313     -4.97011793159564     -0.00140994817719
C   -4.91452132810043      1.42717581899491     -0.00153192130862
C   3.65678749952045     -4.97295485423912      0.00080007163680
C   -2.47813805026426      5.65357479452875      0.00092287576113
C   -3.69314125872231     -3.54278984697859      0.00136564082345
C   -4.91451200321153     -1.42718062802730      0.00139857359209
C   -0.00000552908399     -5.65043791501335      0.00005899322272
C   -4.89302000425900      2.82518897091939     -0.00040227981744
C   2.47812647313991     -5.65357317188818     -0.00029052915548
C   -3.65679823041642      4.97295655404175     -0.00047374852278
C   -4.89299899901461     -2.82519139505969      0.00006491824035
C   -2.47812801824129     -5.65356579800621     -0.00056571680280
C   -6.13477002348955      0.68054913825639     -0.00086464346868
C   -3.65678835334731     -4.97294365097028      0.00058578382008
C   -6.13476456307132     -0.68055354348201      0.00040575295444
H   5.83528897565761      3.36927626695423      0.00396712770529
H   7.07385965258860      1.22821762089947     -0.00037744837300
H   4.60066374401555      5.51238117445323     -0.00014522814529
H   5.83528386714679     -3.36930568472863     -0.00423551337640
H   -0.00001167146422      6.73853104613662     -0.00389474766392
H   7.07386165167227     -1.22822657074368     -0.00008250934481
H   2.47331421164041      6.74068466339473      0.00017162982210
H   4.60066897122302     -5.51237575717576      0.00039007446835
H   -2.47331820069565      6.74068209160650      0.00047297644710
H   -0.00000978838621     -6.73852780445195      0.00458867820736
H   -5.83530143450167      3.36927132229595      0.00410314985360
H   2.47330840367253     -6.74068500242887      0.00027980126949
H   -4.60067436136587      5.51237839860371      0.00002010017831
H   -5.83527902699321     -3.36928859177951     -0.00451481925734
H   -2.47329986759855     -6.74067870613986     -0.00016951527498
H   -7.07385728692578      1.22822084484047     -0.00046143985387
H   -4.60067330624313     -5.51236229778631      0.00021776644566
H   -7.07385645456741     -1.22822025997701     -0.00017736581114

    units angstrom      # Angstroms are the default
    no_reorient         # Geometry fixed, default
    symmetry c1         # C1 symmetry, default
}

set {
    scf_type DF         # Density fitting, faster than exact integrals
    freeze_core True    # Freeze core electrons
    basis jun-cc-pVDZ   # Jun-cc-pVDZ basis set, recommended for sSAPT0 in https://doi.org/10.1063/1.4867135
}

energy('ssapt0')        # Compute sSAPT0 energy, includes also SAPT0
--------------------------------------------------------------------------

  Memory set to  29.802 GiB by Python driver.

Scratch directory: /state/partition1/slurm_tmp/24792927.4294967291.0/
   => Loading Basis Set <=

    Name: JUN-CC-PVDZ
    Role: ORBITAL
    Keyword: BASIS
    atoms 1     entry B          line   130 file /home/gridsan/tfroembgen/.conda/envs/psi4test/share/psi4/basis/jun-cc-pvdz.gbs 
    atoms 2-5   entry F          line   266 file /home/gridsan/tfroembgen/.conda/envs/psi4test/share/psi4/basis/jun-cc-pvdz.gbs 
    atoms 6-59  entry C          line   164 file /home/gridsan/tfroembgen/.conda/envs/psi4test/share/psi4/basis/jun-cc-pvdz.gbs 
    atoms 60-77 entry H          line    36 file /home/gridsan/tfroembgen/.conda/envs/psi4test/share/psi4/basis/jun-cc-pvdz.gbs 

   => Loading Basis Set <=

    Name: JUN-CC-PVDZ
    Role: ORBITAL
    Keyword: BASIS
    atoms 1     entry B          line   130 file /home/gridsan/tfroembgen/.conda/envs/psi4test/share/psi4/basis/jun-cc-pvdz.gbs 
    atoms 2-5   entry F          line   266 file /home/gridsan/tfroembgen/.conda/envs/psi4test/share/psi4/basis/jun-cc-pvdz.gbs 
    atoms 6-59  entry C          line   164 file /home/gridsan/tfroembgen/.conda/envs/psi4test/share/psi4/basis/jun-cc-pvdz.gbs 
    atoms 60-77 entry H          line    36 file /home/gridsan/tfroembgen/.conda/envs/psi4test/share/psi4/basis/jun-cc-pvdz.gbs 


  //>>>>>>>>>>>>>>>>>>>>>>>>>>>>>>>>>>>//
  //              Dimer HF             //
  //<<<<<<<<<<<<<<<<<<<<<<<<<<<<<<<<<<<//

   => Libint2 <=

    Primary   basis highest AM E, G, H:  7, 7, 4
    Auxiliary basis highest AM E, G, H:  7, 7, 5
    Onebody   basis highest AM E, G, H:  7, 7, 5
    Solid Harmonics ordering:            gaussian

*** tstart() called on d-16-12-3
*** at Mon Jan 22 12:00:13 2024

   => Loading Basis Set <=

    Name: JUN-CC-PVDZ
    Role: ORBITAL
    Keyword: BASIS
    atoms 1     entry B          line   130 file /home/gridsan/tfroembgen/.conda/envs/psi4test/share/psi4/basis/jun-cc-pvdz.gbs 
    atoms 2-5   entry F          line   266 file /home/gridsan/tfroembgen/.conda/envs/psi4test/share/psi4/basis/jun-cc-pvdz.gbs 
    atoms 6-59  entry C          line   164 file /home/gridsan/tfroembgen/.conda/envs/psi4test/share/psi4/basis/jun-cc-pvdz.gbs 
    atoms 60-77 entry H          line    36 file /home/gridsan/tfroembgen/.conda/envs/psi4test/share/psi4/basis/jun-cc-pvdz.gbs 


         ---------------------------------------------------------
                                   SCF
               by Justin Turney, Rob Parrish, Andy Simmonett
                          and Daniel G. A. Smith
                              RHF Reference
                       12 Threads,  30517 MiB Core
         ---------------------------------------------------------

  ==> Geometry <==

    Molecular point group: c1
    Full point group: C1

    Geometry (in Angstrom), charge = -1, multiplicity = 1:

       Center              X                  Y                   Z               Mass       
    ------------   -----------------  -----------------  -----------------  -----------------
         B           -0.000046449334     0.000336519434     4.953086126065    11.009305360000
         F           -1.153597449334     0.000047519434     5.768733126065    18.998403162730
         F            1.153660550666    -0.000581480566     5.768733126065    18.998403162730
         F           -0.000019449334    -1.153637480566     4.137452126065    18.998403162730
         F           -0.000019449334     1.153977519434     4.137452126065    18.998403162730
         C            1.225311925931     0.707538180353    -0.640770246652    12.000000000000
         C            1.225323886559    -0.707539003137    -0.653101056222    12.000000000000
         C           -0.000006123424     1.414965805524    -0.653634679743    12.000000000000
         C            2.456448784457     1.418327778612    -0.637883389252    12.000000000000
         C            0.000010857787    -1.414976607201    -0.643435122418    12.000000000000
         C           -1.225300918401     0.707545265418    -0.638518726329    12.000000000000
         C            2.456437785828    -1.418323412447    -0.655346213079    12.000000000000
         C           -0.000001302470     2.836800922715    -0.656038229877    12.000000000000
         C            3.681826727978     0.709317847435    -0.654997423281    12.000000000000
         C            2.455120079373     2.834223552923    -0.655099980242    12.000000000000
         C            3.681821135726    -0.709333947995    -0.638924939263    12.000000000000
         C           -1.225313568180    -0.707527624110    -0.652028294795    12.000000000000
         C            1.226699611710     3.543469375428    -0.638740907332    12.000000000000
         C            0.000004815365    -2.836782247802    -0.638586954797    12.000000000000
         C           -2.456436002341     1.418316809719    -0.638483330483    12.000000000000
         C            2.455123448287    -2.834230137155    -0.639076847630    12.000000000000
         C           -1.226714334082     3.543468955184    -0.638637574113    12.000000000000
         C            4.914517325709     1.427172763923    -0.648516740251    12.000000000000
         C            3.693150221984     3.542795183979    -0.648466940615    12.000000000000
         C           -2.456437569560    -1.418313389406    -0.655371251203    12.000000000000
         C            1.226704872451    -3.543474350473    -0.654711038082    12.000000000000
         C           -2.455125368000     2.834216554068    -0.655093603895    12.000000000000
         C            4.914524411290    -1.427187018510    -0.645543997517    12.000000000000
         C            1.221424644206     4.970133956694    -0.645405563257    12.000000000000
         C            4.893008259828     2.825187891460    -0.647300071893    12.000000000000
         C           -1.226696977981    -3.543471105643    -0.654443833672    12.000000000000
         C           -3.681818946018     0.709324858166    -0.654984742801    12.000000000000
         C            3.693147131658    -3.542801449957    -0.645426106956    12.000000000000
         C           -1.221432221486     4.970128189296    -0.645222067884    12.000000000000
         C            6.134771003434     0.680547838539    -0.647746965702    12.000000000000
         C            3.656788911118     4.972953135001    -0.647558302833    12.000000000000
         C           -2.455126877226    -2.834215201627    -0.639321205428    12.000000000000
         C           -3.681819148553    -0.709325812035    -0.638807317684    12.000000000000
         C            4.893012648421    -2.825200214198    -0.646688919997    12.000000000000
         C           -0.000001042605     5.650447257466    -0.646453376591    12.000000000000
         C            6.134775142840    -0.680554962641    -0.646481645186    12.000000000000
         C            2.478131513363     5.653576642765    -0.646269523183    12.000000000000
         C            1.221422435245    -4.970127163499    -0.648205060280    12.000000000000
         C           -3.693162353457     3.542796845626    -0.648301433156    12.000000000000
         C           -1.221428490437    -4.970118412162    -0.648317822113    12.000000000000
         C           -4.914521777434     1.427175338429    -0.648439795244    12.000000000000
         C            3.656787050187    -4.972955334806    -0.646107802299    12.000000000000
         C           -2.478138499598     5.653574313962    -0.645984998174    12.000000000000
         C           -3.693141708056    -3.542790327545    -0.645542233112    12.000000000000
         C           -4.914512452545    -1.427181108594    -0.645509300343    12.000000000000
         C           -0.000005978418    -5.650438395580    -0.646848880713    12.000000000000
         C           -4.893020453593     2.825188490353    -0.647310153753    12.000000000000
         C            2.478126023806    -5.653573652455    -0.647198403091    12.000000000000
         C           -3.656798679750     4.972956073475    -0.647381622458    12.000000000000
         C           -4.892999448349    -2.825191875626    -0.646842955695    12.000000000000
         C           -2.478128467575    -5.653566278573    -0.647473590738    12.000000000000
         C           -6.134770472823     0.680548657690    -0.647772517404    12.000000000000
         C           -3.656788802681    -4.972944131537    -0.646322090115    12.000000000000
         C           -6.134765012405    -0.680554024048    -0.646502120981    12.000000000000
         H            5.835288526324     3.369275786388    -0.642940746230     1.007825032230
         H            7.073859203255     1.228217140333    -0.647285322308     1.007825032230
         H            4.600663294682     5.512380693887    -0.647053102081     1.007825032230
         H            5.835283417813    -3.369306165295    -0.651143387312     1.007825032230
         H           -0.000012120798     6.738530565570    -0.650802621599     1.007825032230
         H            7.073861202338    -1.228227051310    -0.646990383280     1.007825032230
         H            2.473313762307     6.740684182828    -0.646736244113     1.007825032230
         H            4.600668521889    -5.512376237742    -0.646517799467     1.007825032230
         H           -2.473318650030     6.740681611040    -0.646434897488     1.007825032230
         H           -0.000010237720    -6.738528285018    -0.642319195728     1.007825032230
         H           -5.835301883836     3.369270841730    -0.642804724082     1.007825032230
         H            2.473307954339    -6.740685482995    -0.646628072666     1.007825032230
         H           -4.600674810700     5.512377918037    -0.646887773757     1.007825032230
         H           -5.835279476327    -3.369289072346    -0.651422693193     1.007825032230
         H           -2.473300316932    -6.740679186706    -0.647077389210     1.007825032230
         H           -7.073857736260     1.228220364274    -0.647369313789     1.007825032230
         H           -4.600673755577    -5.512362778353    -0.646690107490     1.007825032230
         H           -7.073856903901    -1.228220740543    -0.647085239746     1.007825032230

  Running in c1 symmetry.

  Rotational constants: A =      0.00167  B =      0.00167  C =      0.00110 [cm^-1]
  Rotational constants: A =     49.96214  B =     49.95618  C =     33.02250 [MHz]
  Nuclear repulsion = 7657.810269073213931

  Charge       = -1
  Multiplicity = 1
  Electrons    = 384
  Nalpha       = 192
  Nbeta        = 192

  ==> Algorithm <==

  SCF Algorithm Type is DF.
  DIIS enabled.
  MOM disabled.
  Fractional occupation disabled.
  Guess Type is SAD.
  Energy threshold   = 1.00e-08
  Density threshold  = 1.00e-08
  Integral threshold = 1.00e-12

  ==> Primary Basis <==

  Basis Set: JUN-CC-PVDZ
    Blend: JUN-CC-PVDZ
    Number of shells: 526
    Number of basis functions: 1152
    Number of Cartesian functions: 1211
    Spherical Harmonics?: true
    Max angular momentum: 2

   => Loading Basis Set <=

    Name: (JUN-CC-PVDZ AUX)
    Role: JKFIT
    Keyword: DF_BASIS_SCF
    atoms 1     entry B          line    90 file /home/gridsan/tfroembgen/.conda/envs/psi4test/share/psi4/basis/jun-cc-pvdz-jkfit.gbs 
    atoms 2-5   entry F          line   314 file /home/gridsan/tfroembgen/.conda/envs/psi4test/share/psi4/basis/jun-cc-pvdz-jkfit.gbs 
    atoms 6-59  entry C          line   146 file /home/gridsan/tfroembgen/.conda/envs/psi4test/share/psi4/basis/jun-cc-pvdz-jkfit.gbs 
    atoms 60-77 entry H          line    70 file /home/gridsan/tfroembgen/.conda/envs/psi4test/share/psi4/basis/jun-cc-pvdz-jkfit.gbs 

  ==> Integral Setup <==

  ==> DiskDFJK: Density-Fitted J/K Matrices <==

    J tasked:                  Yes
    K tasked:                  Yes
    wK tasked:                  No
    OpenMP threads:             12
    Integrals threads:          12
    Memory [MiB]:            22888
    Algorithm:                Core
    Integral Cache:           SAVE
    Schwarz Cutoff:          1E-12
    Fitting Condition:       1E-10

   => Auxiliary Basis Set <=

  Basis Set: (JUN-CC-PVDZ AUX)
    Blend: JUN-CC-PVDZ-JKFIT
    Number of shells: 1755
    Number of basis functions: 5075
    Number of Cartesian functions: 5819
    Spherical Harmonics?: true
    Max angular momentum: 3

  Minimum eigenvalue in the overlap matrix is 8.3215642768E-10.
  Reciprocal condition number of the overlap matrix is 3.6948296776E-11.
    Using canonical orthogonalization.
  Overall, 14 of 1152 possible MOs eliminated.


  ==> Pre-Iterations <==

  SCF Guess: Superposition of Atomic Densities via on-the-fly atomic UHF (no occupation information).

   -------------------------
    Irrep   Nso     Nmo    
   -------------------------
     A       1152    1138 
   -------------------------
    Total    1152    1138
   -------------------------

  ==> Iterations <==

                           Total Energy        Delta E     RMS |[F,P]|

   @DF-RHF iter SAD: -2483.26541795739149   -2.48327e+03   0.00000e+00 
   @DF-RHF iter   1: -2477.61587617282657    5.64954e+00   1.10193e-03 DIIS/ADIIS
   @DF-RHF iter   2: -2478.50737076849055   -8.91495e-01   4.79844e-04 DIIS/ADIIS
   @DF-RHF iter   3: -2478.64233499549209   -1.34964e-01   1.33643e-04 DIIS/ADIIS
   @DF-RHF iter   4: -2478.65570315008654   -1.33682e-02   5.62574e-05 DIIS
   @DF-RHF iter   5: -2478.65833367841242   -2.63053e-03   1.65043e-05 DIIS
   @DF-RHF iter   6: -2478.65862893072654   -2.95252e-04   5.39553e-06 DIIS
   @DF-RHF iter   7: -2478.65871039387184   -8.14631e-05   2.65592e-06 DIIS
   @DF-RHF iter   8: -2478.65873289424508   -2.25004e-05   1.21389e-06 DIIS
   @DF-RHF iter   9: -2478.65873956185214   -6.66761e-06   2.53212e-07 DIIS
   @DF-RHF iter  10: -2478.65873978606260   -2.24210e-07   8.96865e-08 DIIS
   @DF-RHF iter  11: -2478.65873980295419   -1.68916e-08   3.50120e-08 DIIS
   @DF-RHF iter  12: -2478.65873980654123   -3.58705e-09   1.28737e-08 DIIS
   @DF-RHF iter  13: -2478.65873980691731   -3.76076e-10   5.60862e-09 DIIS
  Energy and wave function converged.


  ==> Post-Iterations <==

    Orbital Energies [Eh]
    ---------------------

    Doubly Occupied:                                                      

       1A    -26.066637     2A    -26.066456     3A    -26.066139  
       4A    -26.066104     5A    -11.192433     6A    -11.192432  
       7A    -11.192380     8A    -11.192380     9A    -11.192320  
      10A    -11.192318    11A    -11.192273    12A    -11.192267  
      13A    -11.192251    14A    -11.192216    15A    -11.192169  
      16A    -11.192128    17A    -11.190370    18A    -11.190335  
      19A    -11.190244    20A    -11.190161    21A    -11.190073  
      22A    -11.190002    23A    -11.189505    24A    -11.189395  
      25A    -11.189296    26A    -11.189217    27A    -11.189144  
      28A    -11.189105    29A    -11.188773    30A    -11.188770  
      31A    -11.188637    32A    -11.188627    33A    -11.188626  
      34A    -11.188623    35A    -11.188535    36A    -11.188492  
      37A    -11.188484    38A    -11.188462    39A    -11.188236  
      40A    -11.188183    41A    -11.188149    42A    -11.188137  
      43A    -11.188061    44A    -11.187358    45A    -11.187357  
      46A    -11.187321    47A    -11.187297    48A    -11.187213  
      49A    -11.187211    50A    -11.187210    51A    -11.187208  
      52A    -11.186807    53A    -11.185766    54A    -11.185765  
      55A    -11.185724    56A    -11.185723    57A    -11.185604  
      58A    -11.185555    59A     -7.538520    60A     -1.410250  
      61A     -1.350707    62A     -1.350443    63A     -1.350278  
      64A     -1.174511    65A     -1.151934    66A     -1.151769  
      67A     -1.122518    68A     -1.122511    69A     -1.112438  
      70A     -1.091512    71A     -1.082174    72A     -1.067628  
      73A     -1.067497    74A     -1.047269    75A     -1.047258  
      76A     -1.015032    77A     -1.015021    78A     -1.011080  
      79A     -1.000308    80A     -1.000301    81A     -0.973032  
      82A     -0.956150    83A     -0.953555    84A     -0.953503  
      85A     -0.951930    86A     -0.947363    87A     -0.919905  
      88A     -0.919883    89A     -0.895813    90A     -0.895792  
      91A     -0.828422    92A     -0.828395    93A     -0.819935  
      94A     -0.818048    95A     -0.817916    96A     -0.814257  
      97A     -0.814211    98A     -0.796001    99A     -0.772795  
     100A     -0.752082   101A     -0.749143   102A     -0.745223  
     103A     -0.745154   104A     -0.729297   105A     -0.729293  
     106A     -0.679220   107A     -0.677832   108A     -0.666700  
     109A     -0.666670   110A     -0.666371   111A     -0.666298  
     112A     -0.649973   113A     -0.633128   114A     -0.633061  
     115A     -0.627284   116A     -0.627221   117A     -0.601523  
     118A     -0.595932   119A     -0.586550   120A     -0.585158  
     121A     -0.585150   122A     -0.583945   123A     -0.573722  
     124A     -0.573681   125A     -0.563097   126A     -0.561013  
     127A     -0.560982   128A     -0.542453   129A     -0.535705  
     130A     -0.534700   131A     -0.534168   132A     -0.534105  
     133A     -0.527796   134A     -0.527665   135A     -0.527615  
     136A     -0.526967   137A     -0.523691   138A     -0.523626  
     139A     -0.521008   140A     -0.507906   141A     -0.507719  
     142A     -0.502306   143A     -0.502303   144A     -0.499284  
     145A     -0.499218   146A     -0.491919   147A     -0.489687  
     148A     -0.489641   149A     -0.473364   150A     -0.473361  
     151A     -0.470930   152A     -0.470928   153A     -0.463695  
     154A     -0.458785   155A     -0.456888   156A     -0.456825  
     157A     -0.446590   158A     -0.446548   159A     -0.435461  
     160A     -0.429658   161A     -0.427794   162A     -0.421011  
     163A     -0.418320   164A     -0.415558   165A     -0.415543  
     166A     -0.407801   167A     -0.407714   168A     -0.407679  
     169A     -0.401814   170A     -0.401665   171A     -0.384353  
     172A     -0.384247   173A     -0.384120   174A     -0.383408  
     175A     -0.383286   176A     -0.373380   177A     -0.373356  
     178A     -0.336835   179A     -0.336831   180A     -0.335152  
     181A     -0.310136   182A     -0.310112   183A     -0.282440  
     184A     -0.267886   185A     -0.266712   186A     -0.266638  
     187A     -0.245078   188A     -0.233437   189A     -0.216134  
     190A     -0.216074   191A     -0.158229   192A     -0.158220  

    Virtual:                                                              

     193A      0.080304   194A      0.080423   195A      0.102248  
     196A      0.102278   197A      0.104128   198A      0.104683  
     199A      0.104693   200A      0.111501   201A      0.115671  
     202A      0.126642   203A      0.126645   204A      0.132085  
     205A      0.132146   206A      0.140256   207A      0.141401  
     208A      0.141404   209A      0.146925   210A      0.146983  
     211A      0.147701   212A      0.148240   213A      0.148298  
     214A      0.152054   215A      0.154311   216A      0.154346  
     217A      0.155089   218A      0.161150   219A      0.162970  
     220A      0.168834   221A      0.168859   222A      0.171693  
     223A      0.174091   224A      0.179245   225A      0.179299  
     226A      0.182249   227A      0.185129   228A      0.185223  
     229A      0.186292   230A      0.187224   231A      0.187272  
     232A      0.187394   233A      0.188173   234A      0.192141  
     235A      0.192663   236A      0.192692   237A      0.199912  
     238A      0.207675   239A      0.207997   240A      0.208372  
     241A      0.208456   242A      0.208638   243A      0.212479  
     244A      0.212611   245A      0.217038   246A      0.217057  
     247A      0.229192   248A      0.231205   249A      0.231452  
     250A      0.238125   251A      0.241160   252A      0.241687  
     253A      0.242280   254A      0.242350   255A      0.244591  
     256A      0.246084   257A      0.246487   258A      0.248139  
     259A      0.252321   260A      0.253018   261A      0.254889  
     262A      0.258753   263A      0.258837   264A      0.261743  
     265A      0.261782   266A      0.262734   267A      0.267699  
     268A      0.267722   269A      0.269971   270A      0.270258  
     271A      0.270928   272A      0.271839   273A      0.272412  
     274A      0.273797   275A      0.275943   276A      0.281924  
     277A      0.283918   278A      0.284404   279A      0.284813  
     280A      0.286361   281A      0.287410   282A      0.288101  
     283A      0.289786   284A      0.289845   285A      0.290459  
     286A      0.293558   287A      0.296023   288A      0.296252  
     289A      0.302704   290A      0.302706   291A      0.303280  
     292A      0.305767   293A      0.310353   294A      0.314296  
     295A      0.315772   296A      0.316076   297A      0.317553  
     298A      0.317577   299A      0.318664   300A      0.318860  
     301A      0.324401   302A      0.325496   303A      0.331958  
     304A      0.332038   305A      0.334450   306A      0.334565  
     307A      0.338644   308A      0.341528   309A      0.342665  
     310A      0.343692   311A      0.344969   312A      0.347362  
     313A      0.353358   314A      0.354150   315A      0.354358  
     316A      0.356090   317A      0.359866   318A      0.360790  
     319A      0.363528   320A      0.363691   321A      0.364640  
     322A      0.369352   323A      0.369496   324A      0.369840  
     325A      0.370512   326A      0.372106   327A      0.372296  
     328A      0.376930   329A      0.376993   330A      0.377626  
     331A      0.377819   332A      0.381914   333A      0.381975  
     334A      0.382347   335A      0.382906   336A      0.388017  
     337A      0.388158   338A      0.393498   339A      0.395152  
     340A      0.395495   341A      0.395621   342A      0.399306  
     343A      0.400356   344A      0.402447   345A      0.404802  
     346A      0.405642   347A      0.407060   348A      0.410818  
     349A      0.412129   350A      0.413752   351A      0.414034  
     352A      0.414207   353A      0.417483   354A      0.418712  
     355A      0.426818   356A      0.428578   357A      0.429740  
     358A      0.430956   359A      0.433373   360A      0.433795  
     361A      0.436004   362A      0.438337   363A      0.438994  
     364A      0.442965   365A      0.443996   366A      0.446984  
     367A      0.449427   368A      0.451519   369A      0.451766  
     370A      0.453866   371A      0.454169   372A      0.454631  
     373A      0.456205   374A      0.456326   375A      0.457648  
     376A      0.461175   377A      0.461183   378A      0.461366  
     379A      0.461601   380A      0.465316   381A      0.466845  
     382A      0.467564   383A      0.470126   384A      0.471573  
     385A      0.473580   386A      0.477167   387A      0.478733  
     388A      0.478865   389A      0.479147   390A      0.479971  
     391A      0.480208   392A      0.480862   393A      0.482330  
     394A      0.486631   395A      0.487826   396A      0.488513  
     397A      0.490721   398A      0.490862   399A      0.492043  
     400A      0.497587   401A      0.497774   402A      0.500390  
     403A      0.503354   404A      0.503388   405A      0.504498  
     406A      0.506118   407A      0.506230   408A      0.507113  
     409A      0.511586   410A      0.511751   411A      0.514660  
     412A      0.515182   413A      0.515892   414A      0.516473  
     415A      0.516814   416A      0.527612   417A      0.528071  
     418A      0.528222   419A      0.531901   420A      0.533848  
     421A      0.535584   422A      0.535636   423A      0.537512  
     424A      0.539363   425A      0.539415   426A      0.544877  
     427A      0.545973   428A      0.550567   429A      0.550996  
     430A      0.551689   431A      0.554290   432A      0.554346  
     433A      0.555506   434A      0.558057   435A      0.559014  
     436A      0.560037   437A      0.561138   438A      0.563797  
     439A      0.564733   440A      0.569854   441A      0.570373  
     442A      0.570854   443A      0.570955   444A      0.572296  
     445A      0.578185   446A      0.581029   447A      0.582991  
     448A      0.586519   449A      0.588472   450A      0.593206  
     451A      0.595577   452A      0.596253   453A      0.597507  
     454A      0.601177   455A      0.602640   456A      0.602864  
     457A      0.605313   458A      0.611100   459A      0.612622  
     460A      0.612814   461A      0.616335   462A      0.616815  
     463A      0.617105   464A      0.617812   465A      0.625437  
     466A      0.625686   467A      0.626449   468A      0.627826  
     469A      0.630461   470A      0.630930   471A      0.631464  
     472A      0.632950   473A      0.636686   474A      0.638981  
     475A      0.645029   476A      0.660079   477A      0.661566  
     478A      0.663336   479A      0.664725   480A      0.666134  
     481A      0.667879   482A      0.685412   483A      0.685614  
     484A      0.686216   485A      0.692991   486A      0.693053  
     487A      0.694790   488A      0.695496   489A      0.706569  
     490A      0.711948   491A      0.714502   492A      0.719437  
     493A      0.719717   494A      0.724663   495A      0.724712  
     496A      0.735477   497A      0.737668   498A      0.738526  
     499A      0.743559   500A      0.743666   501A      0.751304  
     502A      0.762514   503A      0.770378   504A      0.782475  
     505A      0.782489   506A      0.792489   507A      0.801272  
     508A      0.805919   509A      0.810334   510A      0.810637  
     511A      0.810838   512A      0.811942   513A      0.822499  
     514A      0.822633   515A      0.828094   516A      0.834448  
     517A      0.841234   518A      0.856775   519A      0.864677  
     520A      0.865034   521A      0.871156   522A      0.874801  
     523A      0.879331   524A      0.880888   525A      0.882308  
     526A      0.888637   527A      0.888912   528A      0.891396  
     529A      0.892354   530A      0.893275   531A      0.893388  
     532A      0.902554   533A      0.919820   534A      0.920215  
     535A      0.921452   536A      0.926671   537A      0.927760  
     538A      0.929430   539A      0.931119   540A      0.934413  
     541A      0.938793   542A      0.940351   543A      0.940722  
     544A      0.941754   545A      0.942101   546A      0.949614  
     547A      0.953338   548A      0.953766   549A      0.961787  
     550A      0.963042   551A      0.963907   552A      0.964130  
     553A      0.965253   554A      0.971765   555A      0.973854  
     556A      0.974265   557A      0.976335   558A      0.976795  
     559A      0.978231   560A      0.983669   561A      0.984491  
     562A      0.985095   563A      0.991054   564A      0.991416  
     565A      0.991847   566A      0.994157   567A      1.000220  
     568A      1.001447   569A      1.001517   570A      1.004020  
     571A      1.007272   572A      1.010372   573A      1.011688  
     574A      1.012814   575A      1.018933   576A      1.023733  
     577A      1.029070   578A      1.033181   579A      1.034777  
     580A      1.036753   581A      1.037845   582A      1.038267  
     583A      1.042830   584A      1.043510   585A      1.044450  
     586A      1.044534   587A      1.053494   588A      1.055650  
     589A      1.056916   590A      1.058136   591A      1.061152  
     592A      1.067338   593A      1.073022   594A      1.073958  
     595A      1.079068   596A      1.079575   597A      1.081835  
     598A      1.082152   599A      1.082356   600A      1.084234  
     601A      1.098324   602A      1.098868   603A      1.103167  
     604A      1.104135   605A      1.107055   606A      1.107495  
     607A      1.110295   608A      1.110332   609A      1.111849  
     610A      1.112413   611A      1.113474   612A      1.115308  
     613A      1.115746   614A      1.115830   615A      1.120791  
     616A      1.121582   617A      1.122931   618A      1.127036  
     619A      1.132076   620A      1.133732   621A      1.135296  
     622A      1.136730   623A      1.139363   624A      1.146467  
     625A      1.147699   626A      1.148975   627A      1.152875  
     628A      1.154655   629A      1.155338   630A      1.159402  
     631A      1.161228   632A      1.163261   633A      1.165111  
     634A      1.167103   635A      1.171312   636A      1.172451  
     637A      1.173236   638A      1.174510   639A      1.176606  
     640A      1.181728   641A      1.181830   642A      1.192571  
     643A      1.193266   644A      1.195041   645A      1.195899  
     646A      1.197584   647A      1.204389   648A      1.205526  
     649A      1.206186   650A      1.208175   651A      1.209228  
     652A      1.211648   653A      1.212596   654A      1.214866  
     655A      1.215923   656A      1.221120   657A      1.229850  
     658A      1.242563   659A      1.247487   660A      1.247711  
     661A      1.249770   662A      1.251545   663A      1.253949  
     664A      1.255143   665A      1.262301   666A      1.264446  
     667A      1.267475   668A      1.267805   669A      1.277719  
     670A      1.284009   671A      1.285523   672A      1.287511  
     673A      1.288933   674A      1.289055   675A      1.302218  
     676A      1.302667   677A      1.303359   678A      1.323756  
     679A      1.324197   680A      1.327274   681A      1.328125  
     682A      1.329401   683A      1.329548   684A      1.330545  
     685A      1.332418   686A      1.340131   687A      1.341979  
     688A      1.349154   689A      1.349944   690A      1.355957  
     691A      1.359559   692A      1.362827   693A      1.363183  
     694A      1.364090   695A      1.369857   696A      1.373204  
     697A      1.374437   698A      1.375300   699A      1.375626  
     700A      1.378650   701A      1.384957   702A      1.385150  
     703A      1.388785   704A      1.390828   705A      1.396850  
     706A      1.397067   707A      1.400537   708A      1.406614  
     709A      1.410323   710A      1.413270   711A      1.414773  
     712A      1.420933   713A      1.422720   714A      1.422808  
     715A      1.425663   716A      1.425895   717A      1.429445  
     718A      1.430284   719A      1.437523   720A      1.443935  
     721A      1.444123   722A      1.458116   723A      1.466202  
     724A      1.470269   725A      1.470393   726A      1.474454  
     727A      1.476528   728A      1.477170   729A      1.478486  
     730A      1.482827   731A      1.486325   732A      1.487991  
     733A      1.495229   734A      1.495456   735A      1.497884  
     736A      1.501762   737A      1.502435   738A      1.503422  
     739A      1.506045   740A      1.506150   741A      1.507115  
     742A      1.514828   743A      1.514951   744A      1.516131  
     745A      1.516829   746A      1.534255   747A      1.535119  
     748A      1.544406   749A      1.544765   750A      1.582573  
     751A      1.583406   752A      1.588971   753A      1.589221  
     754A      1.596569   755A      1.619921   756A      1.643594  
     757A      1.645450   758A      1.652756   759A      1.655917  
     760A      1.668531   761A      1.669082   762A      1.672892  
     763A      1.677594   764A      1.678117   765A      1.679750  
     766A      1.683701   767A      1.684205   768A      1.689984  
     769A      1.690671   770A      1.692192   771A      1.702364  
     772A      1.703243   773A      1.707412   774A      1.708543  
     775A      1.711553   776A      1.712240   777A      1.712536  
     778A      1.713146   779A      1.719770   780A      1.727882  
     781A      1.728066   782A      1.734220   783A      1.742540  
     784A      1.742717   785A      1.744862   786A      1.745662  
     787A      1.745841   788A      1.749957   789A      1.754302  
     790A      1.754438   791A      1.762356   792A      1.764220  
     793A      1.765169   794A      1.765240   795A      1.769548  
     796A      1.773791   797A      1.773924   798A      1.781629  
     799A      1.782026   800A      1.808625   801A      1.819334  
     802A      1.824832   803A      1.825137   804A      1.825387  
     805A      1.828248   806A      1.843257   807A      1.843259  
     808A      1.858060   809A      1.858162   810A      1.882003  
     811A      1.882011   812A      1.882387   813A      1.888442  
     814A      1.892784   815A      1.892844   816A      1.897261  
     817A      1.897797   818A      1.904170   819A      1.910106  
     820A      1.911548   821A      1.925924   822A      1.925955  
     823A      1.928693   824A      1.929274   825A      1.929998  
     826A      1.935283   827A      1.939252   828A      1.947630  
     829A      1.947869   830A      1.950807   831A      1.963371  
     832A      1.963480   833A      1.964143   834A      1.967564  
     835A      1.967703   836A      1.976073   837A      1.976237  
     838A      1.980153   839A      1.983069   840A      1.984715  
     841A      1.984837   842A      1.986267   843A      1.989009  
     844A      1.989096   845A      2.003997   846A      2.006698  
     847A      2.007695   848A      2.007831   849A      2.009538  
     850A      2.009692   851A      2.010234   852A      2.016686  
     853A      2.020970   854A      2.022041   855A      2.023879  
     856A      2.024766   857A      2.027064   858A      2.036385  
     859A      2.040967   860A      2.045246   861A      2.051869  
     862A      2.052802   863A      2.058132   864A      2.059170  
     865A      2.059447   866A      2.063077   867A      2.063696  
     868A      2.064773   869A      2.069483   870A      2.070968  
     871A      2.073380   872A      2.078868   873A      2.079695  
     874A      2.095583   875A      2.096000   876A      2.097258  
     877A      2.097592   878A      2.098088   879A      2.098141  
     880A      2.098853   881A      2.115422   882A      2.118617  
     883A      2.119347   884A      2.126586   885A      2.127080  
     886A      2.129383   887A      2.130894   888A      2.136942  
     889A      2.138442   890A      2.140277   891A      2.140677  
     892A      2.144745   893A      2.147204   894A      2.147668  
     895A      2.153536   896A      2.153840   897A      2.156340  
     898A      2.159070   899A      2.159751   900A      2.160788  
     901A      2.162363   902A      2.164469   903A      2.167288  
     904A      2.167335   905A      2.173936   906A      2.174919  
     907A      2.175461   908A      2.178705   909A      2.179935  
     910A      2.181992   911A      2.183542   912A      2.185846  
     913A      2.186370   914A      2.187268   915A      2.188735  
     916A      2.192349   917A      2.193957   918A      2.200920  
     919A      2.201409   920A      2.201676   921A      2.201761  
     922A      2.208808   923A      2.208978   924A      2.218749  
     925A      2.221625   926A      2.227215   927A      2.228784  
     928A      2.230296   929A      2.231073   930A      2.238990  
     931A      2.240817   932A      2.245745   933A      2.249722  
     934A      2.255461   935A      2.255622   936A      2.258669  
     937A      2.260038   938A      2.265374   939A      2.265420  
     940A      2.269448   941A      2.286204   942A      2.288841  
     943A      2.289012   944A      2.293216   945A      2.298256  
     946A      2.298780   947A      2.300107   948A      2.306975  
     949A      2.307451   950A      2.309039   951A      2.309469  
     952A      2.311997   953A      2.324737   954A      2.324911  
     955A      2.336233   956A      2.336364   957A      2.337208  
     958A      2.337705   959A      2.344770   960A      2.365680  
     961A      2.372298   962A      2.378511   963A      2.379923  
     964A      2.390095   965A      2.392000   966A      2.399442  
     967A      2.400314   968A      2.400393   969A      2.402860  
     970A      2.418339   971A      2.419061   972A      2.419548  
     973A      2.420049   974A      2.434112   975A      2.434498  
     976A      2.444222   977A      2.447318   978A      2.481217  
     979A      2.490730   980A      2.490956   981A      2.491062  
     982A      2.501903   983A      2.508637   984A      2.508951  
     985A      2.537141   986A      2.539186   987A      2.539562  
     988A      2.551646   989A      2.552061   990A      2.568884  
     991A      2.585053   992A      2.596387   993A      2.597334  
     994A      2.609416   995A      2.611515   996A      2.611893  
     997A      2.618689   998A      2.618746   999A      2.623368  
    1000A      2.626249  1001A      2.626291  1002A      2.639040  
    1003A      2.639530  1004A      2.639770  1005A      2.639814  
    1006A      2.651746  1007A      2.651883  1008A      2.654685  
    1009A      2.655371  1010A      2.656418  1011A      2.672583  
    1012A      2.689002  1013A      2.689241  1014A      2.693683  
    1015A      2.698811  1016A      2.699509  1017A      2.706395  
    1018A      2.706520  1019A      2.715802  1020A      2.716125  
    1021A      2.722336  1022A      2.749742  1023A      2.749829  
    1024A      2.751166  1025A      2.751251  1026A      2.771142  
    1027A      2.771481  1028A      2.780549  1029A      2.780734  
    1030A      2.785928  1031A      2.786063  1032A      2.790082  
    1033A      2.790272  1034A      2.807147  1035A      2.818078  
    1036A      2.818553  1037A      2.845508  1038A      2.862649  
    1039A      2.862854  1040A      2.883561  1041A      2.894689  
    1042A      2.895201  1043A      2.920049  1044A      2.920791  
    1045A      2.925237  1046A      2.927225  1047A      2.927426  
    1048A      2.927578  1049A      2.935395  1050A      2.973197  
    1051A      2.982466  1052A      2.982616  1053A      2.988798  
    1054A      2.997304  1055A      2.999036  1056A      3.005453  
    1057A      3.007154  1058A      3.015830  1059A      3.017594  
    1060A      3.029323  1061A      3.075870  1062A      3.076431  
    1063A      3.076896  1064A      3.094465  1065A      3.132489  
    1066A      3.132608  1067A      3.137859  1068A      3.138203  
    1069A      3.175661  1070A      3.176287  1071A      3.193587  
    1072A      3.195722  1073A      3.196029  1074A      3.203110  
    1075A      3.212531  1076A      3.212894  1077A      3.213083  
    1078A      3.214465  1079A      3.214777  1080A      3.223942  
    1081A      3.224937  1082A      3.231995  1083A      3.232394  
    1084A      3.256565  1085A      3.275728  1086A      3.286089  
    1087A      3.290196  1088A      3.303900  1089A      3.342825  
    1090A      3.343678  1091A      3.343799  1092A      3.349065  
    1093A      3.350269  1094A      3.484758  1095A      3.485152  
    1096A      3.516701  1097A      3.550530  1098A      3.553359  
    1099A      3.619323  1100A      3.647188  1101A      3.648778  
    1102A      3.662856  1103A      3.693695  1104A      3.695898  
    1105A      3.729982  1106A      3.737345  1107A      3.836713  
    1108A      3.851820  1109A      3.852568  1110A      3.936707  
    1111A      3.936732  1112A      3.979703  1113A      3.980057  
    1114A      4.045081  1115A      4.079200  1116A      4.105910  
    1117A      4.118903  1118A      4.154830  1119A      4.174211  
    1120A      4.174304  1121A      4.174636  1122A      4.202163  
    1123A      4.202179  1124A      4.202808  1125A      4.203491  
    1126A      4.204359  1127A      4.235905  1128A      4.239844  
    1129A      4.244864  1130A      4.449191  1131A      4.449382  
    1132A      4.449976  1133A      4.651204  1134A      4.653665  
    1135A      4.656585  1136A      4.751430  1137A      4.786404  
    1138A      4.788889  

    Final Occupation by Irrep:
              A 
    DOCC [   192 ]
    NA   [   192 ]
    NB   [   192 ]

  @DF-RHF Final Energy: -2478.65873980691731

   => Energetics <=

    Nuclear Repulsion Energy =           7657.8102690732139308
    One-Electron Energy =              -18669.9146146351704374
    Two-Electron Energy =                8533.4456057550396508
    Total Energy =                      -2478.6587398069168557

Computation Completed


Properties will be evaluated at   0.000000,   0.000000,   0.000000 [a0]

Properties computed using the SCF density matrix


 Multipole Moments:

 ------------------------------------------------------------------------------------
     Multipole            Electronic (a.u.)      Nuclear  (a.u.)        Total (a.u.)
 ------------------------------------------------------------------------------------

 L = 1.  Multiply by 2.5417464519 to convert [e a0] to [Debye]
 Dipole X            :         -0.0002052           -0.0000160           -0.0002213
 Dipole Y            :          0.0012802           -0.0001716            0.0011085
 Dipole Z            :         25.9392230          -34.3296932           -8.3904702
 Magnitude           :                                                    8.3904703

 ------------------------------------------------------------------------------------

*** tstop() called on d-16-12-3 at Mon Jan 22 12:05:47 2024
Module time:
	user time   =    3299.34 seconds =      54.99 minutes
	system time =      52.29 seconds =       0.87 minutes
	total time  =        334 seconds =       5.57 minutes
Total time:
	user time   =    3299.34 seconds =      54.99 minutes
	system time =      52.29 seconds =       0.87 minutes
	total time  =        334 seconds =       5.57 minutes

  //>>>>>>>>>>>>>>>>>>>>>>>>>>>>>>>>>>>//
  //            Monomer A HF           //
  //<<<<<<<<<<<<<<<<<<<<<<<<<<<<<<<<<<<//

   => Libint2 <=

    Primary   basis highest AM E, G, H:  7, 7, 4
    Auxiliary basis highest AM E, G, H:  7, 7, 5
    Onebody   basis highest AM E, G, H:  7, 7, 5
    Solid Harmonics ordering:            gaussian

*** tstart() called on d-16-12-3
*** at Mon Jan 22 12:05:47 2024

   => Loading Basis Set <=

    Name: JUN-CC-PVDZ
    Role: ORBITAL
    Keyword: BASIS
    atoms 1     entry B          line   130 file /home/gridsan/tfroembgen/.conda/envs/psi4test/share/psi4/basis/jun-cc-pvdz.gbs 
    atoms 2-5   entry F          line   266 file /home/gridsan/tfroembgen/.conda/envs/psi4test/share/psi4/basis/jun-cc-pvdz.gbs 
    atoms 6-59  entry C          line   164 file /home/gridsan/tfroembgen/.conda/envs/psi4test/share/psi4/basis/jun-cc-pvdz.gbs 
    atoms 60-77 entry H          line    36 file /home/gridsan/tfroembgen/.conda/envs/psi4test/share/psi4/basis/jun-cc-pvdz.gbs 


         ---------------------------------------------------------
                                   SCF
               by Justin Turney, Rob Parrish, Andy Simmonett
                          and Daniel G. A. Smith
                              RHF Reference
                       12 Threads,  30517 MiB Core
         ---------------------------------------------------------

  ==> Geometry <==

    Molecular point group: c1
    Full point group: C1

    Geometry (in Angstrom), charge = -1, multiplicity = 1:

       Center              X                  Y                   Z               Mass       
    ------------   -----------------  -----------------  -----------------  -----------------
         B           -0.000046449334     0.000336519434     4.953086126065    11.009305360000
         F           -1.153597449334     0.000047519434     5.768733126065    18.998403162730
         F            1.153660550666    -0.000581480566     5.768733126065    18.998403162730
         F           -0.000019449334    -1.153637480566     4.137452126065    18.998403162730
         F           -0.000019449334     1.153977519434     4.137452126065    18.998403162730
      Gh(C)           1.225311925931     0.707538180353    -0.640770246652    12.000000000000
      Gh(C)           1.225323886559    -0.707539003137    -0.653101056222    12.000000000000
      Gh(C)          -0.000006123424     1.414965805524    -0.653634679743    12.000000000000
      Gh(C)           2.456448784457     1.418327778612    -0.637883389252    12.000000000000
      Gh(C)           0.000010857787    -1.414976607201    -0.643435122418    12.000000000000
      Gh(C)          -1.225300918401     0.707545265418    -0.638518726329    12.000000000000
      Gh(C)           2.456437785828    -1.418323412447    -0.655346213079    12.000000000000
      Gh(C)          -0.000001302470     2.836800922715    -0.656038229877    12.000000000000
      Gh(C)           3.681826727978     0.709317847435    -0.654997423281    12.000000000000
      Gh(C)           2.455120079373     2.834223552923    -0.655099980242    12.000000000000
      Gh(C)           3.681821135726    -0.709333947995    -0.638924939263    12.000000000000
      Gh(C)          -1.225313568180    -0.707527624110    -0.652028294795    12.000000000000
      Gh(C)           1.226699611710     3.543469375428    -0.638740907332    12.000000000000
      Gh(C)           0.000004815365    -2.836782247802    -0.638586954797    12.000000000000
      Gh(C)          -2.456436002341     1.418316809719    -0.638483330483    12.000000000000
      Gh(C)           2.455123448287    -2.834230137155    -0.639076847630    12.000000000000
      Gh(C)          -1.226714334082     3.543468955184    -0.638637574113    12.000000000000
      Gh(C)           4.914517325709     1.427172763923    -0.648516740251    12.000000000000
      Gh(C)           3.693150221984     3.542795183979    -0.648466940615    12.000000000000
      Gh(C)          -2.456437569560    -1.418313389406    -0.655371251203    12.000000000000
      Gh(C)           1.226704872451    -3.543474350473    -0.654711038082    12.000000000000
      Gh(C)          -2.455125368000     2.834216554068    -0.655093603895    12.000000000000
      Gh(C)           4.914524411290    -1.427187018510    -0.645543997517    12.000000000000
      Gh(C)           1.221424644206     4.970133956694    -0.645405563257    12.000000000000
      Gh(C)           4.893008259828     2.825187891460    -0.647300071893    12.000000000000
      Gh(C)          -1.226696977981    -3.543471105643    -0.654443833672    12.000000000000
      Gh(C)          -3.681818946018     0.709324858166    -0.654984742801    12.000000000000
      Gh(C)           3.693147131658    -3.542801449957    -0.645426106956    12.000000000000
      Gh(C)          -1.221432221486     4.970128189296    -0.645222067884    12.000000000000
      Gh(C)           6.134771003434     0.680547838539    -0.647746965702    12.000000000000
      Gh(C)           3.656788911118     4.972953135001    -0.647558302833    12.000000000000
      Gh(C)          -2.455126877226    -2.834215201627    -0.639321205428    12.000000000000
      Gh(C)          -3.681819148553    -0.709325812035    -0.638807317684    12.000000000000
      Gh(C)           4.893012648421    -2.825200214198    -0.646688919997    12.000000000000
      Gh(C)          -0.000001042605     5.650447257466    -0.646453376591    12.000000000000
      Gh(C)           6.134775142840    -0.680554962641    -0.646481645186    12.000000000000
      Gh(C)           2.478131513363     5.653576642765    -0.646269523183    12.000000000000
      Gh(C)           1.221422435245    -4.970127163499    -0.648205060280    12.000000000000
      Gh(C)          -3.693162353457     3.542796845626    -0.648301433156    12.000000000000
      Gh(C)          -1.221428490437    -4.970118412162    -0.648317822113    12.000000000000
      Gh(C)          -4.914521777434     1.427175338429    -0.648439795244    12.000000000000
      Gh(C)           3.656787050187    -4.972955334806    -0.646107802299    12.000000000000
      Gh(C)          -2.478138499598     5.653574313962    -0.645984998174    12.000000000000
      Gh(C)          -3.693141708056    -3.542790327545    -0.645542233112    12.000000000000
      Gh(C)          -4.914512452545    -1.427181108594    -0.645509300343    12.000000000000
      Gh(C)          -0.000005978418    -5.650438395580    -0.646848880713    12.000000000000
      Gh(C)          -4.893020453593     2.825188490353    -0.647310153753    12.000000000000
      Gh(C)           2.478126023806    -5.653573652455    -0.647198403091    12.000000000000
      Gh(C)          -3.656798679750     4.972956073475    -0.647381622458    12.000000000000
      Gh(C)          -4.892999448349    -2.825191875626    -0.646842955695    12.000000000000
      Gh(C)          -2.478128467575    -5.653566278573    -0.647473590738    12.000000000000
      Gh(C)          -6.134770472823     0.680548657690    -0.647772517404    12.000000000000
      Gh(C)          -3.656788802681    -4.972944131537    -0.646322090115    12.000000000000
      Gh(C)          -6.134765012405    -0.680554024048    -0.646502120981    12.000000000000
      Gh(H)           5.835288526324     3.369275786388    -0.642940746230     1.007825032230
      Gh(H)           7.073859203255     1.228217140333    -0.647285322308     1.007825032230
      Gh(H)           4.600663294682     5.512380693887    -0.647053102081     1.007825032230
      Gh(H)           5.835283417813    -3.369306165295    -0.651143387312     1.007825032230
      Gh(H)          -0.000012120798     6.738530565570    -0.650802621599     1.007825032230
      Gh(H)           7.073861202338    -1.228227051310    -0.646990383280     1.007825032230
      Gh(H)           2.473313762307     6.740684182828    -0.646736244113     1.007825032230
      Gh(H)           4.600668521889    -5.512376237742    -0.646517799467     1.007825032230
      Gh(H)          -2.473318650030     6.740681611040    -0.646434897488     1.007825032230
      Gh(H)          -0.000010237720    -6.738528285018    -0.642319195728     1.007825032230
      Gh(H)          -5.835301883836     3.369270841730    -0.642804724082     1.007825032230
      Gh(H)           2.473307954339    -6.740685482995    -0.646628072666     1.007825032230
      Gh(H)          -4.600674810700     5.512377918037    -0.646887773757     1.007825032230
      Gh(H)          -5.835279476327    -3.369289072346    -0.651422693193     1.007825032230
      Gh(H)          -2.473300316932    -6.740679186706    -0.647077389210     1.007825032230
      Gh(H)          -7.073857736260     1.228220364274    -0.647369313789     1.007825032230
      Gh(H)          -4.600673755577    -5.512362778353    -0.646690107490     1.007825032230
      Gh(H)          -7.073856903901    -1.228220740543    -0.647085239746     1.007825032230

  Running in c1 symmetry.

  Rotational constants: A =      0.00167  B =      0.00167  C =      0.00110 [cm^-1]
  Rotational constants: A =     49.96214  B =     49.95618  C =     33.02250 [MHz]
  Nuclear repulsion =  178.879482610381302

  Charge       = -1
  Multiplicity = 1
  Electrons    = 42
  Nalpha       = 21
  Nbeta        = 21

  ==> Algorithm <==

  SCF Algorithm Type is DF.
  DIIS enabled.
  MOM disabled.
  Fractional occupation disabled.
  Guess Type is SAD.
  Energy threshold   = 1.00e-08
  Density threshold  = 1.00e-08
  Integral threshold = 1.00e-12

  ==> Primary Basis <==

  Basis Set: JUN-CC-PVDZ
    Blend: JUN-CC-PVDZ
    Number of shells: 526
    Number of basis functions: 1152
    Number of Cartesian functions: 1211
    Spherical Harmonics?: true
    Max angular momentum: 2

   => Loading Basis Set <=

    Name: (JUN-CC-PVDZ AUX)
    Role: JKFIT
    Keyword: DF_BASIS_SCF
    atoms 1     entry B          line    90 file /home/gridsan/tfroembgen/.conda/envs/psi4test/share/psi4/basis/jun-cc-pvdz-jkfit.gbs 
    atoms 2-5   entry F          line   314 file /home/gridsan/tfroembgen/.conda/envs/psi4test/share/psi4/basis/jun-cc-pvdz-jkfit.gbs 
    atoms 6-59  entry C          line   146 file /home/gridsan/tfroembgen/.conda/envs/psi4test/share/psi4/basis/jun-cc-pvdz-jkfit.gbs 
    atoms 60-77 entry H          line    70 file /home/gridsan/tfroembgen/.conda/envs/psi4test/share/psi4/basis/jun-cc-pvdz-jkfit.gbs 

  ==> Integral Setup <==

  ==> DiskDFJK: Density-Fitted J/K Matrices <==

    J tasked:                  Yes
    K tasked:                  Yes
    wK tasked:                  No
    OpenMP threads:             12
    Integrals threads:          12
    Memory [MiB]:            22888
    Algorithm:                Core
    Integral Cache:           LOAD
    Schwarz Cutoff:          1E-12
    Fitting Condition:       1E-10

   => Auxiliary Basis Set <=

  Basis Set: (JUN-CC-PVDZ AUX)
    Blend: JUN-CC-PVDZ-JKFIT
    Number of shells: 1755
    Number of basis functions: 5075
    Number of Cartesian functions: 5819
    Spherical Harmonics?: true
    Max angular momentum: 3

  Minimum eigenvalue in the overlap matrix is 8.3215642768E-10.
  Reciprocal condition number of the overlap matrix is 3.6948296776E-11.
    Using canonical orthogonalization.
  Overall, 14 of 1152 possible MOs eliminated.


  ==> Pre-Iterations <==

  SCF Guess: Superposition of Atomic Densities via on-the-fly atomic UHF (no occupation information).

   -------------------------
    Irrep   Nso     Nmo    
   -------------------------
     A       1152    1138 
   -------------------------
    Total    1152    1138
   -------------------------

  ==> Iterations <==

                           Total Energy        Delta E     RMS |[F,P]|

   @DF-RHF iter SAD:  -421.23044532589103   -4.21230e+02   0.00000e+00 
   @DF-RHF iter   1:  -422.64998059549487   -1.41954e+00   5.30012e-04 DIIS/ADIIS
   @DF-RHF iter   2:  -422.73280656766224   -8.28260e-02   3.23149e-04 DIIS/ADIIS
   @DF-RHF iter   3:  -422.77137834727932   -3.85718e-02   1.74065e-05 DIIS
   @DF-RHF iter   4:  -422.77173914495916   -3.60798e-04   2.75653e-06 DIIS
   @DF-RHF iter   5:  -422.77174780284992   -8.65789e-06   7.05365e-07 DIIS
   @DF-RHF iter   6:  -422.77174836626949   -5.63420e-07   1.45342e-07 DIIS
   @DF-RHF iter   7:  -422.77174838746367   -2.11942e-08   1.57447e-08 DIIS
   @DF-RHF iter   8:  -422.77174838768724   -2.23565e-10   6.41141e-09 DIIS
  Energy and wave function converged.


  ==> Post-Iterations <==

    Orbital Energies [Eh]
    ---------------------

    Doubly Occupied:                                                      

       1A    -26.067067     2A    -26.067035     3A    -26.067001  
       4A    -26.066885     5A     -7.539193     6A     -1.410913  
       7A     -1.351210     8A     -1.351188     9A     -1.351023  
      10A     -0.602191    11A     -0.528393    12A     -0.528369  
      13A     -0.528308    14A     -0.447256    15A     -0.447212  
      16A     -0.408444    17A     -0.408397    18A     -0.408346  
      19A     -0.384964    20A     -0.384882    21A     -0.384867  

    Virtual:                                                              

      22A      0.083914    23A      0.084990    24A      0.085182  
      25A      0.092595    26A      0.092599    27A      0.104352  
      28A      0.105049    29A      0.108721    30A      0.120921  
      31A      0.120933    32A      0.124187    33A      0.124202  
      34A      0.135637    35A      0.138837    36A      0.138974  
      37A      0.139883    38A      0.140630    39A      0.141124  
      40A      0.141168    41A      0.149794    42A      0.152717  
      43A      0.152725    44A      0.160210    45A      0.160619  
      46A      0.162121    47A      0.167734    48A      0.172365  
      49A      0.173074    50A      0.174002    51A      0.174066  
      52A      0.176964    53A      0.181053    54A      0.181702  
      55A      0.182891    56A      0.182907    57A      0.186111  
      58A      0.189258    59A      0.189284    60A      0.192065  
      61A      0.192598    62A      0.194662    63A      0.194697  
      64A      0.197857    65A      0.197946    66A      0.199044  
      67A      0.204902    68A      0.204947    69A      0.208354  
      70A      0.208374    71A      0.213166    72A      0.214339  
      73A      0.215730    74A      0.218095    75A      0.218173  
      76A      0.218488    77A      0.218736    78A      0.222120  
      79A      0.222343    80A      0.225606    81A      0.227526  
      82A      0.227644    83A      0.229452    84A      0.236223  
      85A      0.239561    86A      0.239590    87A      0.240581  
      88A      0.241299    89A      0.245649    90A      0.247049  
      91A      0.248941    92A      0.254433    93A      0.255250  
      94A      0.256465    95A      0.256900    96A      0.257275  
      97A      0.257744    98A      0.259840    99A      0.264113  
     100A      0.264123   101A      0.268827   102A      0.268894  
     103A      0.272150   104A      0.272740   105A      0.277412  
     106A      0.277880   107A      0.279812   108A      0.281385  
     109A      0.281751   110A      0.283376   111A      0.283414  
     112A      0.285576   113A      0.289338   114A      0.291894  
     115A      0.292889   116A      0.296476   117A      0.296515  
     118A      0.297143   119A      0.298913   120A      0.299115  
     121A      0.303506   122A      0.309469   123A      0.310373  
     124A      0.316684   125A      0.317120   126A      0.317560  
     127A      0.317995   128A      0.320108   129A      0.322512  
     130A      0.322738   131A      0.324090   132A      0.324161  
     133A      0.329023   134A      0.330447   135A      0.337615  
     136A      0.338770   137A      0.338863   138A      0.342631  
     139A      0.344122   140A      0.345129   141A      0.345343  
     142A      0.347078   143A      0.348618   144A      0.348673  
     145A      0.349146   146A      0.349303   147A      0.357309  
     148A      0.359041   149A      0.363450   150A      0.367602  
     151A      0.369442   152A      0.369600   153A      0.373697  
     154A      0.374180   155A      0.379455   156A      0.385549  
     157A      0.385766   158A      0.387112   159A      0.389464  
     160A      0.389851   161A      0.393112   162A      0.393681  
     163A      0.394997   164A      0.396337   165A      0.398068  
     166A      0.398189   167A      0.402632   168A      0.403791  
     169A      0.404924   170A      0.405994   171A      0.410624  
     172A      0.412311   173A      0.416303   174A      0.421479  
     175A      0.422950   176A      0.424610   177A      0.425596  
     178A      0.428662   179A      0.429481   180A      0.431499  
     181A      0.432622   182A      0.432663   183A      0.432929  
     184A      0.435733   185A      0.437698   186A      0.438498  
     187A      0.441140   188A      0.443097   189A      0.443763  
     190A      0.448953   191A      0.449855   192A      0.451945  
     193A      0.452417   194A      0.452777   195A      0.453826  
     196A      0.455890   197A      0.463741   198A      0.465454  
     199A      0.467777   200A      0.468722   201A      0.471293  
     202A      0.471646   203A      0.473716   204A      0.478549  
     205A      0.479103   206A      0.480516   207A      0.481872  
     208A      0.482312   209A      0.489271   210A      0.490147  
     211A      0.493536   212A      0.496512   213A      0.497988  
     214A      0.499421   215A      0.499431   216A      0.506167  
     217A      0.507121   218A      0.507281   219A      0.508205  
     220A      0.509184   221A      0.509698   222A      0.511653  
     223A      0.513742   224A      0.514655   225A      0.515296  
     226A      0.515634   227A      0.517601   228A      0.517842  
     229A      0.518785   230A      0.522710   231A      0.523637  
     232A      0.525682   233A      0.526403   234A      0.529850  
     235A      0.537899   236A      0.539371   237A      0.542710  
     238A      0.543325   239A      0.544073   240A      0.546879  
     241A      0.551221   242A      0.551539   243A      0.552208  
     244A      0.552288   245A      0.554961   246A      0.555339  
     247A      0.555466   248A      0.565193   249A      0.566095  
     250A      0.566830   251A      0.567428   252A      0.568068  
     253A      0.569641   254A      0.570192   255A      0.572228  
     256A      0.577481   257A      0.578089   258A      0.582109  
     259A      0.583888   260A      0.585099   261A      0.589153  
     262A      0.593360   263A      0.594591   264A      0.594642  
     265A      0.596053   266A      0.597787   267A      0.597835  
     268A      0.599723   269A      0.604233   270A      0.604453  
     271A      0.606220   272A      0.616048   273A      0.616815  
     274A      0.619744   275A      0.623329   276A      0.627243  
     277A      0.634506   278A      0.634722   279A      0.636496  
     280A      0.636834   281A      0.637428   282A      0.641969  
     283A      0.642648   284A      0.643938   285A      0.646169  
     286A      0.648214   287A      0.648689   288A      0.649131  
     289A      0.655646   290A      0.657850   291A      0.663327  
     292A      0.664784   293A      0.665312   294A      0.667455  
     295A      0.670332   296A      0.670894   297A      0.676786  
     298A      0.679037   299A      0.679477   300A      0.681271  
     301A      0.681360   302A      0.682857   303A      0.686747  
     304A      0.687734   305A      0.688346   306A      0.689588  
     307A      0.690258   308A      0.701413   309A      0.702611  
     310A      0.705865   311A      0.708847   312A      0.712267  
     313A      0.713015   314A      0.713671   315A      0.716616  
     316A      0.718805   317A      0.720303   318A      0.728047  
     319A      0.730977   320A      0.731575   321A      0.735936  
     322A      0.738265   323A      0.742903   324A      0.747093  
     325A      0.747274   326A      0.750223   327A      0.751100  
     328A      0.751954   329A      0.752515   330A      0.759996  
     331A      0.763070   332A      0.764041   333A      0.767185  
     334A      0.770206   335A      0.774264   336A      0.777966  
     337A      0.779357   338A      0.780239   339A      0.781389  
     340A      0.787194   341A      0.787905   342A      0.795118  
     343A      0.796468   344A      0.799024   345A      0.799202  
     346A      0.804948   347A      0.807366   348A      0.810959  
     349A      0.811138   350A      0.813134   351A      0.813300  
     352A      0.817993   353A      0.825776   354A      0.827029  
     355A      0.827282   356A      0.827969   357A      0.828234  
     358A      0.838738   359A      0.840544   360A      0.840704  
     361A      0.845467   362A      0.846310   363A      0.851155  
     364A      0.852795   365A      0.854469   366A      0.855562  
     367A      0.856450   368A      0.856800   369A      0.858186  
     370A      0.859759   371A      0.865343   372A      0.867544  
     373A      0.870004   374A      0.872015   375A      0.872076  
     376A      0.872552   377A      0.872910   378A      0.873579  
     379A      0.875221   380A      0.879517   381A      0.888624  
     382A      0.903311   383A      0.903405   384A      0.916868  
     385A      0.916946   386A      0.941088   387A      0.946420  
     388A      0.948341   389A      0.949194   390A      0.951311  
     391A      0.951316   392A      0.959715   393A      0.960449  
     394A      0.961266   395A      0.962121   396A      0.967492  
     397A      0.967577   398A      0.970267   399A      0.972286  
     400A      0.973388   401A      1.005181   402A      1.005388  
     403A      1.009408   404A      1.019306   405A      1.027183  
     406A      1.027252   407A      1.038067   408A      1.038091  
     409A      1.045944   410A      1.051537   411A      1.059937  
     412A      1.059983   413A      1.080479   414A      1.081980  
     415A      1.106269   416A      1.106598   417A      1.126822  
     418A      1.127135   419A      1.130456   420A      1.131111  
     421A      1.131176   422A      1.142713   423A      1.142766  
     424A      1.166323   425A      1.168308   426A      1.168450  
     427A      1.176920   428A      1.230692   429A      1.230922  
     430A      1.234142   431A      1.234365   432A      1.236570  
     433A      1.248705   434A      1.249414   435A      1.249554  
     436A      1.269355   437A      1.269506   438A      1.289974  
     439A      1.291649   440A      1.291718   441A      1.297342  
     442A      1.306264   443A      1.349020   444A      1.350121  
     445A      1.363664   446A      1.370624   447A      1.370763  
     448A      1.378698   449A      1.378815   450A      1.379880  
     451A      1.392155   452A      1.392277   453A      1.402159  
     454A      1.405344   455A      1.432151   456A      1.444882  
     457A      1.444995   458A      1.446779   459A      1.491119  
     460A      1.520504   461A      1.521217   462A      1.538191  
     463A      1.538296   464A      1.544716   465A      1.545428  
     466A      1.545591   467A      1.548236   468A      1.558340  
     469A      1.559491   470A      1.623267   471A      1.630465  
     472A      1.630778   473A      1.634657   474A      1.635600  
     475A      1.642511   476A      1.642831   477A      1.645022  
     478A      1.654490   479A      1.703294   480A      1.712779  
     481A      1.715183   482A      1.726971   483A      1.729147  
     484A      1.736052   485A      1.744701   486A      1.744753  
     487A      1.761290   488A      1.761976   489A      1.762415  
     490A      1.763150   491A      1.777740   492A      1.814985  
     493A      1.816334   494A      1.816656   495A      1.817413  
     496A      1.818853   497A      1.823637   498A      1.828029  
     499A      1.828511   500A      1.836552   501A      1.846089  
     502A      1.846943   503A      1.850218   504A      1.862602  
     505A      1.863780   506A      1.867984   507A      1.869719  
     508A      1.879675   509A      1.888221   510A      1.899056  
     511A      1.899494   512A      1.900006   513A      1.900848  
     514A      1.901053   515A      1.902415   516A      1.903523  
     517A      1.903911   518A      1.907630   519A      1.910440  
     520A      1.914080   521A      1.917316   522A      1.920737  
     523A      1.921949   524A      1.931167   525A      1.931772  
     526A      1.947505   527A      1.947587   528A      1.949444  
     529A      1.949557   530A      1.955406   531A      1.956758  
     532A      1.961582   533A      1.962214   534A      1.962999  
     535A      1.968686   536A      1.980237   537A      1.980615  
     538A      1.981496   539A      1.982870   540A      1.984805  
     541A      1.986352   542A      1.991683   543A      1.992721  
     544A      1.996056   545A      1.998167   546A      2.001375  
     547A      2.001689   548A      2.008233   549A      2.010594  
     550A      2.014496   551A      2.019150   552A      2.021326  
     553A      2.025907   554A      2.039169   555A      2.040529  
     556A      2.041162   557A      2.042400   558A      2.042867  
     559A      2.047189   560A      2.048786   561A      2.051102  
     562A      2.052586   563A      2.059566   564A      2.059965  
     565A      2.061469   566A      2.061496   567A      2.066786  
     568A      2.067479   569A      2.071031   570A      2.072282  
     571A      2.074154   572A      2.074369   573A      2.075108  
     574A      2.078732   575A      2.095942   576A      2.097656  
     577A      2.102485   578A      2.102789   579A      2.138712  
     580A      2.142124   581A      2.142197   582A      2.146093  
     583A      2.148682   584A      2.151832   585A      2.152327  
     586A      2.156805   587A      2.158786   588A      2.166918  
     589A      2.167171   590A      2.169874   591A      2.172367  
     592A      2.182130   593A      2.188206   594A      2.189347  
     595A      2.191383   596A      2.193747   597A      2.196274  
     598A      2.200106   599A      2.202310   600A      2.202850  
     601A      2.211265   602A      2.211883   603A      2.212176  
     604A      2.212993   605A      2.215213   606A      2.220724  
     607A      2.221796   608A      2.222075   609A      2.222241  
     610A      2.222661   611A      2.223807   612A      2.227440  
     613A      2.228149   614A      2.229442   615A      2.232296  
     616A      2.233361   617A      2.234822   618A      2.236269  
     619A      2.236639   620A      2.239238   621A      2.242036  
     622A      2.243057   623A      2.243956   624A      2.249825  
     625A      2.250052   626A      2.250380   627A      2.250446  
     628A      2.250872   629A      2.254636   630A      2.256690  
     631A      2.257018   632A      2.257399   633A      2.257726  
     634A      2.261127   635A      2.263233   636A      2.266570  
     637A      2.268716   638A      2.271261   639A      2.272975  
     640A      2.280543   641A      2.281079   642A      2.292731  
     643A      2.293689   644A      2.309883   645A      2.311367  
     646A      2.316803   647A      2.316989   648A      2.321618  
     649A      2.322123   650A      2.323950   651A      2.324362  
     652A      2.329441   653A      2.341899   654A      2.342894  
     655A      2.343445   656A      2.346743   657A      2.346987  
     658A      2.348043   659A      2.358332   660A      2.358643  
     661A      2.364666   662A      2.364922   663A      2.369667  
     664A      2.381797   665A      2.382207   666A      2.389616  
     667A      2.401649   668A      2.402587   669A      2.403788  
     670A      2.404065   671A      2.405922   672A      2.412136  
     673A      2.418901   674A      2.419020   675A      2.425349  
     676A      2.432503   677A      2.433343   678A      2.440894  
     679A      2.441576   680A      2.444422   681A      2.444452  
     682A      2.445305   683A      2.447576   684A      2.450091  
     685A      2.451998   686A      2.452254   687A      2.452697  
     688A      2.458790   689A      2.464015   690A      2.464304  
     691A      2.465670   692A      2.466645   693A      2.472135  
     694A      2.482540   695A      2.482602   696A      2.489372  
     697A      2.494756   698A      2.494896   699A      2.495412  
     700A      2.503296   701A      2.510271   702A      2.511605  
     703A      2.518689   704A      2.520236   705A      2.520253  
     706A      2.528515   707A      2.529535   708A      2.531833  
     709A      2.540034   710A      2.542626   711A      2.544762  
     712A      2.545480   713A      2.546255   714A      2.550325  
     715A      2.558210   716A      2.558832   717A      2.559721  
     718A      2.566283   719A      2.575689   720A      2.575981  
     721A      2.577810   722A      2.577993   723A      2.587309  
     724A      2.589312   725A      2.596795   726A      2.599809  
     727A      2.608726   728A      2.608887   729A      2.615259  
     730A      2.617560   731A      2.622718   732A      2.622978  
     733A      2.623001   734A      2.624125   735A      2.631162  
     736A      2.633058   737A      2.633198   738A      2.638155  
     739A      2.645617   740A      2.653401   741A      2.654500  
     742A      2.669872   743A      2.678153   744A      2.678247  
     745A      2.696406   746A      2.697929   747A      2.698363  
     748A      2.704905   749A      2.704941   750A      2.705709  
     751A      2.705852   752A      2.709910   753A      2.719665  
     754A      2.723535   755A      2.724380   756A      2.725879  
     757A      2.730276   758A      2.730586   759A      2.732658  
     760A      2.734046   761A      2.748861   762A      2.749915  
     763A      2.764356   764A      2.765055   765A      2.773615  
     766A      2.774268   767A      2.779965   768A      2.783635  
     769A      2.784840   770A      2.788242   771A      2.788439  
     772A      2.791518   773A      2.791993   774A      2.797207  
     775A      2.797566   776A      2.817317   777A      2.817696  
     778A      2.818508   779A      2.820286   780A      2.821584  
     781A      2.822281   782A      2.831774   783A      2.831961  
     784A      2.832112   785A      2.841757   786A      2.848903  
     787A      2.855349   788A      2.877313   789A      2.881298  
[...]
     712A      1.404042   713A      1.404888   714A      1.404988  
     715A      1.408557   716A      1.408809   717A      1.413395  
     718A      1.413943   719A      1.420116   720A      1.423209  
     721A      1.429113   722A      1.429644   723A      1.430798  
     724A      1.436532   725A      1.436716   726A      1.439869  
     727A      1.440018   728A      1.440881   729A      1.440935  
     730A      1.447946   731A      1.449180   732A      1.450593  
     733A      1.450736   734A      1.465222   735A      1.467336  
     736A      1.476625   737A      1.477371   738A      1.517051  
     739A      1.517268   740A      1.521605   741A      1.521848  
     742A      1.533045   743A      1.552384   744A      1.579055  
     745A      1.599964   746A      1.600400   747A      1.601319  
     748A      1.609041   749A      1.609792   750A      1.610786  
     751A      1.613202   752A      1.613438   753A      1.618349  
     754A      1.622493   755A      1.623355   756A      1.632406  
     757A      1.632895   758A      1.640784   759A      1.641483  
     760A      1.643037   761A      1.643586   762A      1.644257  
     763A      1.644690   764A      1.646032   765A      1.650840  
     766A      1.654484   767A      1.661243   768A      1.661388  
     769A      1.668360   770A      1.676527   771A      1.676538  
     772A      1.676759   773A      1.676867   774A      1.677145  
     775A      1.683912   776A      1.686171   777A      1.686778  
     778A      1.686947   779A      1.696114   780A      1.696247  
     781A      1.699108   782A      1.699449   783A      1.699597  
     784A      1.704695   785A      1.704885   786A      1.706918  
     787A      1.715733   788A      1.717246   789A      1.741747  
     790A      1.751181   791A      1.751614   792A      1.759220  
     793A      1.760488   794A      1.761109   795A      1.761200  
     796A      1.762151   797A      1.776868   798A      1.776943  
     799A      1.791819   800A      1.792129   801A      1.816752  
     802A      1.816942   803A      1.817559   804A      1.821012  
     805A      1.824781   806A      1.824872   807A      1.830830  
     808A      1.831227   809A      1.840090   810A      1.842445  
     811A      1.845304   812A      1.856493   813A      1.860873  
     814A      1.862015   815A      1.863847   816A      1.864515  
     817A      1.866588   818A      1.870048   819A      1.872756  
     820A      1.880278   821A      1.880309   822A      1.896374  
     823A      1.896442   824A      1.899724   825A      1.903131  
     826A      1.903224   827A      1.908769   828A      1.908919  
     829A      1.915190   830A      1.917769   831A      1.917914  
     832A      1.919076   833A      1.919308   834A      1.922116  
     835A      1.922172   836A      1.940537   837A      1.942071  
     838A      1.942294   839A      1.943233   840A      1.946883  
     841A      1.947204   842A      1.954988   843A      1.956040  
     844A      1.956171   845A      1.957143   846A      1.958072  
     847A      1.972619   848A      1.983891   849A      1.984426  
     850A      1.992369   851A      1.997165   852A      1.998767  
     853A      1.999368   854A      2.006183   855A      2.008511  
     856A      2.012479   857A      2.013405   858A      2.027944  
     859A      2.029910   860A      2.030407   861A      2.031005  
     862A      2.031327   863A      2.031629   864A      2.032643  
     865A      2.048244   866A      2.052532   867A      2.053217  
     868A      2.058653   869A      2.059654   870A      2.061857  
     871A      2.062953   872A      2.069263   873A      2.071680  
     874A      2.072613   875A      2.074234   876A      2.077575  
     877A      2.079503   878A      2.083144   879A      2.086936  
     880A      2.088720   881A      2.093361   882A      2.095130  
     883A      2.096906   884A      2.097160   885A      2.100889  
     886A      2.101120   887A      2.108471   888A      2.108712  
     889A      2.109697   890A      2.111605   891A      2.112269  
     892A      2.115447   893A      2.117584   894A      2.119946  
     895A      2.120032   896A      2.121206   897A      2.121477  
     898A      2.127249   899A      2.128657   900A      2.134515  
     901A      2.134632   902A      2.136117   903A      2.136387  
     904A      2.143281   905A      2.143307   906A      2.156412  
     907A      2.160370   908A      2.160532   909A      2.163215  
     910A      2.163279   911A      2.171618   912A      2.178895  
     913A      2.179260   914A      2.190855   915A      2.191124  
     916A      2.192557   917A      2.194104   918A      2.195926  
     919A      2.195974   920A      2.200324   921A      2.219738  
     922A      2.220437   923A      2.220532   924A      2.228198  
     925A      2.228938   926A      2.229934   927A      2.231639  
     928A      2.243381   929A      2.243977   930A      2.244151  
     931A      2.244660   932A      2.247640   933A      2.260287  
     934A      2.260466   935A      2.270313   936A      2.270472  
     937A      2.272174   938A      2.272461   939A      2.281088  
     940A      2.300298   941A      2.306716   942A      2.310997  
     943A      2.312576   944A      2.322411   945A      2.323380  
     946A      2.331174   947A      2.331267   948A      2.331595  
     949A      2.334478   950A      2.350950   951A      2.351941  
     952A      2.352680   953A      2.353050   954A      2.366530  
     955A      2.366876   956A      2.374800   957A      2.381210  
     958A      2.416020   959A      2.424062   960A      2.424487  
     961A      2.424511   962A      2.436498   963A      2.441301  
     964A      2.441460   965A      2.470143   966A      2.473339  
     967A      2.473798   968A      2.485700   969A      2.485985  
     970A      2.502358   971A      2.519767   972A      2.529971  
     973A      2.530425   974A      2.544381   975A      2.546025  
     976A      2.546374   977A      2.554504   978A      2.554538  
     979A      2.554901   980A      2.559967   981A      2.560078  
     982A      2.573058   983A      2.573129   984A      2.574864  
     985A      2.575338   986A      2.586127   987A      2.586257  
     988A      2.587447   989A      2.589898   990A      2.591428  
     991A      2.607302   992A      2.623751   993A      2.623990  
     994A      2.626972   995A      2.631485   996A      2.632196  
     997A      2.641399   998A      2.641522   999A      2.651040  
    1000A      2.651375  1001A      2.656886  1002A      2.682498  
    1003A      2.683805  1004A      2.684117  1005A      2.687059  
    1006A      2.702332  1007A      2.702664  1008A      2.713097  
    1009A      2.713156  1010A      2.718853  1011A      2.718874  
    1012A      2.723433  1013A      2.723628  1014A      2.739408  
    1015A      2.752541  1016A      2.753026  1017A      2.777696  
    1018A      2.794920  1019A      2.795054  1020A      2.816195  
    1021A      2.822268  1022A      2.827168  1023A      2.828697  
    1024A      2.829632  1025A      2.834352  1026A      2.853463  
    1027A      2.856001  1028A      2.856496  1029A      2.858418  
    1030A      2.859742  1031A      2.859997  1032A      2.869232  
    1033A      2.917116  1034A      2.918195  1035A      2.924718  
    1036A      2.933681  1037A      2.933850  1038A      2.949867  
    1039A      2.950383  1040A      2.963345  1041A      3.009466  
    1042A      3.009672  1043A      3.011946  1044A      3.029633  
    1045A      3.064335  1046A      3.064591  1047A      3.070730  
    1048A      3.071120  1049A      3.110050  1050A      3.110668  
    1051A      3.128840  1052A      3.129867  1053A      3.130206  
    1054A      3.137508  1055A      3.146960  1056A      3.147178  
    1057A      3.147289  1058A      3.149273  1059A      3.149503  
    1060A      3.158309  1061A      3.159125  1062A      3.166329  
    1063A      3.166751  1064A      3.191853  1065A      3.211174  
    1066A      3.219480  1067A      3.237955  1068A      3.274680  
    1069A      3.276987  1070A      3.277164  1071A      3.282219  
    1072A      3.283024  1073A      3.416670  1074A      3.417069  
    1075A      3.443300  1076A      3.481815  1077A      3.484677  
    1078A      3.549906  1079A      3.577652  1080A      3.579418  
    1081A      3.594008  1082A      3.626813  1083A      3.628917  
    1084A      3.663228  1085A      3.670359  1086A      3.769293  
    1087A      3.783119  1088A      3.784011  1089A      3.871011  
    1090A      3.871030  1091A      3.913385  1092A      3.913607  
    1093A      3.976997  1094A      4.011006  1095A      4.035056  
    1096A      4.047673  1097A      4.082811  1098A      4.205291  
    1099A      4.234916  1100A      4.238331  1101A      4.348569  
    1102A      5.749557  1103A      5.749777  1104A      5.752557  
    1105A      5.755415  1106A      5.756599  1107A      5.760123  
    1108A      5.761746  1109A      5.763565  1110A      5.782339  
    1111A      5.786085  1112A      5.789177  1113A      6.021211  
    1114A      6.021559  1115A      6.022861  1116A      6.195734  
    1117A      6.328068  1118A      6.328346  1119A      6.377255  
    1120A      6.378279  1121A      6.379931  1122A      7.160406  
    1123A      7.231297  1124A      7.236618  1125A      7.252269  
    1126A      7.258781  1127A      7.274082  1128A      7.279791  
    1129A      7.283718  1130A      7.466779  1131A      7.496690  
    1132A      7.506458  1133A      7.637867  1134A     12.612360  
    1135A     42.912111  1136A     42.918885  1137A     42.922640  
    1138A     42.943124  

    Final Occupation by Irrep:
              A 
    DOCC [   171 ]
    NA   [   171 ]
    NB   [   171 ]

  @DF-RHF Final Energy: -2055.89229887388046

   => Energetics <=

    Nuclear Repulsion Energy =           6452.5568002797781446
    One-Electron Energy =              -15636.4478331363097823
    Two-Electron Energy =                7127.9987339826520838
    Total Energy =                      -2055.8922988738804634

Computation Completed


Properties will be evaluated at   0.000000,   0.000000,   0.000000 [a0]

Properties computed using the SCF density matrix


 Multipole Moments:

 ------------------------------------------------------------------------------------
     Multipole            Electronic (a.u.)      Nuclear  (a.u.)        Total (a.u.)
 ------------------------------------------------------------------------------------

 L = 1.  Multiply by 2.5417464519 to convert [e a0] to [Debye]
 Dipole X            :          0.0000720            0.0000112            0.0000832
 Dipole Y            :          0.0001258           -0.0000531            0.0000727
 Dipole Z            :        418.0837107         -418.0891618           -0.0054512
 Magnitude           :                                                    0.0054523

 ------------------------------------------------------------------------------------

*** tstop() called on d-16-12-3 at Mon Jan 22 12:11:32 2024
Module time:
	user time   =    2294.58 seconds =      38.24 minutes
	system time =      41.76 seconds =       0.70 minutes
	total time  =        237 seconds =       3.95 minutes
Total time:
	user time   =    6617.33 seconds =     110.29 minutes
	system time =     109.32 seconds =       1.82 minutes
	total time  =        679 seconds =      11.32 minutes
  Constructing Basis Sets for SAPT...

   => Loading Basis Set <=

    Name: (JUN-CC-PVDZ AUX)
    Role: RIFIT
    Keyword: DF_BASIS_SAPT
    atoms 1     entry B          line    56 file /home/gridsan/tfroembgen/.conda/envs/psi4test/share/psi4/basis/jun-cc-pvdz-ri.gbs 
    atoms 2-5   entry F          line   232 file /home/gridsan/tfroembgen/.conda/envs/psi4test/share/psi4/basis/jun-cc-pvdz-ri.gbs 
    atoms 6-59  entry C          line   100 file /home/gridsan/tfroembgen/.conda/envs/psi4test/share/psi4/basis/jun-cc-pvdz-ri.gbs 
    atoms 60-77 entry H          line    30 file /home/gridsan/tfroembgen/.conda/envs/psi4test/share/psi4/basis/jun-cc-pvdz-ri.gbs 

   => Loading Basis Set <=

    Name: (JUN-CC-PVDZ AUX)
    Role: JKFIT
    Keyword: DF_BASIS_ELST
    atoms 1     entry B          line    90 file /home/gridsan/tfroembgen/.conda/envs/psi4test/share/psi4/basis/jun-cc-pvdz-jkfit.gbs 
    atoms 2-5   entry F          line   314 file /home/gridsan/tfroembgen/.conda/envs/psi4test/share/psi4/basis/jun-cc-pvdz-jkfit.gbs 
    atoms 6-59  entry C          line   146 file /home/gridsan/tfroembgen/.conda/envs/psi4test/share/psi4/basis/jun-cc-pvdz-jkfit.gbs 
    atoms 60-77 entry H          line    70 file /home/gridsan/tfroembgen/.conda/envs/psi4test/share/psi4/basis/jun-cc-pvdz-jkfit.gbs 


  //>>>>>>>>>>>>>>>>>>>>>>>>>>>>>>>>>>>//
  //               SSAPT0              //
  //<<<<<<<<<<<<<<<<<<<<<<<<<<<<<<<<<<<//


*** tstart() called on d-16-12-3
*** at Mon Jan 22 12:11:33 2024

        SAPT0  
    Ed Hohenstein
     6 June 2009

      Orbital Information
  --------------------------
    NSO        =      1152
    NMO        =      1138
    NRI        =      4087
    NRI (Elst) =      5075
    NOCC A     =        21
    NOCC B     =       171
    FOCC A     =         5
    FOCC B     =        54
    NVIR A     =      1117
    NVIR B     =       967

    Elst10,r            =     0.009980662539 [Eh]
    Exch10              =     0.000010997040 [Eh]
    Exch10 (S^2)        =     0.000010997199 [Eh]

    Iter     Energy [mEh]          dE [mEh]         Residual      Time [s]
       1      -0.00989231       0.009892311       0.660911926           323
       2      -0.01146014       0.001567825       0.337114252           577
       3      -0.01205450       0.000594369       0.064455850           627
       4      -0.01204813      -0.000006380       0.013904117           641
       5      -0.01203088      -0.000017244       0.001893706           654
       6      -0.01203335       0.000002465       0.000370763           666
       7      -0.01203324      -0.000000107       0.000120388           678
       8      -0.01203320      -0.000000043       0.000030207           691
       9      -0.01203319      -0.000000004       0.000004587           703
      10      -0.01203319       0.000000003       0.000000548           715

    CHF Iterations converged


    Iter     Energy [mEh]          dE [mEh]         Residual      Time [s]
       1      -6.84821997       6.848219974      43.701683121           129
       2      -4.61848940      -2.229730577       5.633467460           329
       3      -4.61308178      -0.005407618       1.931946268           347
       4      -4.72028121       0.107199433       0.444458818           366
       5      -4.72593763       0.005656414       0.128036400           400
       6      -4.72371180      -0.002225828       0.062759231           418
       7      -4.72299452      -0.000717274       0.027075734           524
       8      -4.72337152       0.000376993       0.015404058           542
       9      -4.72350614       0.000134625       0.009580667           558
      10      -4.72341943      -0.000086709       0.006919082           575
      11      -4.72338807      -0.000031360       0.003269376           594
      12      -4.72339937       0.000011293       0.001237995           612
      13      -4.72340830       0.000008936       0.000449223           629
      14      -4.72340785      -0.000000449       0.000150911           645
      15      -4.72340629      -0.000001566       0.000056937           664
      16      -4.72340655       0.000000260       0.000036748           685
      17      -4.72340678       0.000000236       0.000015891           716
      18      -4.72340675      -0.000000030       0.000005764           735
      19      -4.72340671      -0.000000040       0.000003001           752
      20      -4.72340671      -0.000000005       0.000001441           771
      21      -4.72340672       0.000000011       0.000000728           792

    CHF Iterations converged

    Ind20,r (A<-B)      =    -0.000012033194 [Eh]
    Ind20,r (B<-A)      =    -0.004723406718 [Eh]
    Ind20,r             =    -0.004735439913 [Eh]
    Exch-Ind20,r (A<-B) =     0.000001875522 [Eh]
    Exch-Ind20,r (B<-A) =     0.000002611367 [Eh]
    Exch-Ind20,r        =     0.000004486888 [Eh]
    Disp20              =    -0.001255923230 [Eh]
    Disp20 (SS)         =    -0.000627961615 [Eh]
    Disp20 (OS)         =    -0.000627961615 [Eh]
    Exch-Disp20         =     0.000005827845 [Eh]
    Exch-Disp20 (SS)    =     0.000004323977 [Eh]
    Exch-Disp20 (OS)    =     0.000001503868 [Eh]

    SAPT Results 
  --------------------------------------------------------------------------------------------------------
    Electrostatics                  9.98066254 [mEh]       6.26296030 [kcal/mol]      26.20422589 [kJ/mol]
      Elst10,r                      9.98066254 [mEh]       6.26296030 [kcal/mol]      26.20422589 [kJ/mol]

    Exchange                        0.01099704 [mEh]       0.00690075 [kcal/mol]       0.02887272 [kJ/mol]
      Exch10                        0.01099704 [mEh]       0.00690075 [kcal/mol]       0.02887272 [kJ/mol]
      Exch10(S^2)                   0.01099720 [mEh]       0.00690085 [kcal/mol]       0.02887314 [kJ/mol]

    Induction                      -4.68420493 [mEh]      -2.93938297 [kcal/mol]     -12.29837835 [kJ/mol]
      Ind20,r                      -4.73543991 [mEh]      -2.97153341 [kcal/mol]     -12.43289578 [kJ/mol]
      Exch-Ind20,r                  0.00448689 [mEh]       0.00281556 [kcal/mol]       0.01178032 [kJ/mol]
      delta HF,r (2)                0.04674810 [mEh]       0.02933487 [kcal/mol]       0.12273711 [kJ/mol]

    Dispersion                     -1.25009538 [mEh]      -0.78444670 [kcal/mol]      -3.28212498 [kJ/mol]
      Disp20                       -1.25592323 [mEh]      -0.78810372 [kcal/mol]      -3.29742598 [kJ/mol]
      Exch-Disp20                   0.00582785 [mEh]       0.00365703 [kcal/mol]       0.01530101 [kJ/mol]
      Disp20 (SS)                  -0.62796161 [mEh]      -0.39405186 [kcal/mol]      -1.64871299 [kJ/mol]
      Disp20 (OS)                  -0.62796161 [mEh]      -0.39405186 [kcal/mol]      -1.64871299 [kJ/mol]
      Exch-Disp20 (SS)              0.00432398 [mEh]       0.00271334 [kcal/mol]       0.01135260 [kJ/mol]
      Exch-Disp20 (OS)              0.00150387 [mEh]       0.00094369 [kcal/mol]       0.00394841 [kJ/mol]

  Total HF                          5.30745465 [mEh]       3.33047807 [kcal/mol]      13.93472026 [kJ/mol]
  Total SAPT0                       4.05735927 [mEh]       2.54603138 [kcal/mol]      10.65259529 [kJ/mol]

  Special recipe for scaled SAPT0 (see Manual):
    Electrostatics sSAPT0           9.98066254 [mEh]       6.26296030 [kcal/mol]      26.20422589 [kJ/mol]
    Exchange sSAPT0                 0.01099704 [mEh]       0.00690075 [kcal/mol]       0.02887272 [kJ/mol]
    Induction sSAPT0               -4.68420512 [mEh]      -2.93938309 [kcal/mol]     -12.29837886 [kJ/mol]
    Dispersion sSAPT0              -1.25009564 [mEh]      -0.78444686 [kcal/mol]      -3.28212564 [kJ/mol]
  Total sSAPT0                      4.05735882 [mEh]       2.54603110 [kcal/mol]      10.65259411 [kJ/mol]
  --------------------------------------------------------------------------------------------------------

*** tstop() called on d-16-12-3 at Mon Jan 22 13:17:07 2024
Module time:
	user time   =    7474.18 seconds =     124.57 minutes
	system time =     703.60 seconds =      11.73 minutes
	total time  =       3934 seconds =      65.57 minutes
Total time:
	user time   =   14093.01 seconds =     234.88 minutes
	system time =     812.94 seconds =      13.55 minutes
	total time  =       4614 seconds =      76.90 minutes

    Psi4 stopped on: Monday, 22 January 2024 01:17PM
    Psi4 wall time for execution: 1:16:55.15

*** Psi4 exiting successfully. Buy a developer a beer!
