
    -----------------------------------------------------------------------
          Psi4: An Open-Source Ab Initio Electronic Structure Package
                               Psi4 1.9 release

                         Git: Rev {} zzzzzzz 


    D. G. A. Smith, L. A. Burns, A. C. Simmonett, R. M. Parrish,
    M. C. Schieber, R. Galvelis, P. Kraus, H. Kruse, R. Di Remigio,
    A. Alenaizan, A. M. James, S. Lehtola, J. P. Misiewicz, M. Scheurer,
    R. A. Shaw, J. B. Schriber, Y. Xie, Z. L. Glick, D. A. Sirianni,
    J. S. O'Brien, J. M. Waldrop, A. Kumar, E. G. Hohenstein,
    B. P. Pritchard, B. R. Brooks, H. F. Schaefer III, A. Yu. Sokolov,
    K. Patkowski, A. E. DePrince III, U. Bozkaya, R. A. King,
    F. A. Evangelista, J. M. Turney, T. D. Crawford, C. D. Sherrill,
    J. Chem. Phys. 152(18) 184108 (2020). https://doi.org/10.1063/5.0006002

                            Additional Code Authors
    E. T. Seidl, C. L. Janssen, E. F. Valeev, M. L. Leininger,
    J. F. Gonthier, R. M. Richard, H. R. McAlexander, M. Saitow, X. Wang,
    P. Verma, M. H. Lechner, A. Jiang, S. Behnle, A. G. Heide,
    M. F. Herbst, and D. L. Poole

             Previous Authors, Complete List of Code Contributors,
                       and Citations for Specific Modules
    https://github.com/psi4/psi4/blob/master/codemeta.json
    https://github.com/psi4/psi4/graphs/contributors
    http://psicode.org/psi4manual/master/introduction.html#citing-psifour

    -----------------------------------------------------------------------


    Psi4 started on: Friday, 26 January 2024 11:20PM

    Process ID: 3935947
    Host:       n2cn0683
    PSIDATADIR: /opt/software/pc2/EB-SW/software/PSI4/1.9-foss-2022a/share/psi4
    Memory:     500.0 MiB
    Threads:    16
    
  ==> Input File <==

--------------------------------------------------------------------------
memory 64 GB # how much memory is available ! Depends on the nodes/cores !

molecule dimer {
# monomer A
+1 1    # Charge and multiplicity
C  0.680067 -1.215929 7.008042
C -0.680504 -1.215545 7.006014
N -1.085635  0.102779 7.005016
C  0.000108  0.884180 7.001740
C -2.477365  0.570758 6.955610
N  1.085222  0.102779 7.005016
H  1.385146 -2.033368 7.015870
H -1.385302 -2.033214 7.006204
H -0.000009  1.965269 6.999993
C  2.478117  0.567877 7.021908
H  2.490592  1.658130 6.994563
H  2.967028  0.220701 7.935354
H  3.001428  0.176405 6.146425
H -2.857359  0.490799 5.933539
H -3.082679 -0.042306 7.625694
H -2.518128  1.610706 7.282594
--
# monomer B
0 1     # Charge and multiplicity
C   -3.66844126402057      7.80375217008252      0.00190004133558
C   -4.84759871934653      7.13124183134024     -0.00046653359696
C   -4.89495929917518      5.69633040353158     -0.00103944469517
C   -3.65374067877320      4.98073034095895      0.00662099703436
C   -2.40942512149445      7.11398103667468      0.00209438359570
C   -2.42547734410473      5.68112195090346     -0.00491050527438
C   -1.19474401643570      7.78614419430947      0.00356656413763
C   0.03795902893699      7.09942164575698      0.00139585983271
C   0.03033258741920      5.66948955970466     -0.00408752508301
C   -1.20098450790502      4.96927034791531      0.00488220885047
C   1.27795782581485      7.77285944319479      0.00277170839332
C   2.48535808472416      7.08769688523756      0.00049722048857
C   2.48612868491717      5.65477081024076     -0.00644052849921
C   1.25408291964399      4.95607811366431      0.00518741308898
C   3.75171459140595      7.76391215098033      0.00062407186893
C   4.92356605618520      7.07878077698995     -0.00143240883900
C   4.95560727132542      5.64344746336949     -0.00159282164606
C   3.70680153420475      4.94121020833308      0.00349873852374
H   -3.65852113775815      8.89082741913536      0.00358502958574
H   -1.18921332975660      8.87412108735996      0.00753844057883
H   1.28429423888630      8.86083343548850      0.00693053253426
H   3.75354208679975      8.85103527897216      0.00214659618464
H   5.86995870320703      7.61379483465560     -0.00235777588134
H   -5.78823170750226      7.67630221293400     -0.00202638095293
C   -6.09197395869619      4.99326001364347     -0.00291168518608
C   -6.12866148031747      3.58258016879823     -0.00171050815740
C   -3.66457974004527      3.56418217974434     -0.00463560277484
C   -4.89429820469869      2.86108077590057      0.00453338221034
C   -2.43733499489796      2.84761165708481      0.00719617576166
C   -1.20922785759670      3.54788693497833     -0.00648285103018
C   1.24714157216223      3.53468075142962     -0.00729145743546
C   0.01517603956900      2.83311183930540      0.00439272578912
C   2.46764517244071      2.82128997725533      0.00449278391269
C   3.70254947457969      3.52466015442405     -0.00899517692985
C   6.14498038638375      4.92757236613191     -0.00282626685777
C   6.16658835886151      3.51658447594213     -0.00065971342101
C   4.92460995845939      2.80840792535402      0.00587903281610
H   7.08990550964105      5.46688776622306     -0.00658814770723
H   -7.03104175110130      5.54268795285765     -0.00714490013730
C   -7.33969804112295      2.85841153457957     -0.00333767559888
C   -7.36488195805880      1.47032337158330     -0.00157213747140
C   -4.90350460894690      1.44442681216000     -0.00628840166334
C   -6.13225715261081      0.73993935705394      0.00600164231964
C   -3.67687480051673      0.72669714267312      0.00433931473643
C   -2.44565658606518      1.42964113326212     -0.00597039546461
C   -1.22360068130162      0.71532450163492      0.00545886906656
C   0.00763786931376      1.41738314923765      0.00392452278437
C   1.23121980774686      0.70211669058719     -0.01490206287210
C   2.46082110053113      1.40329203612573      0.00460244601878
C   3.68443025419614      0.68719842821222      0.00377365974158
C   4.91870890153864      1.39173456118907     -0.00862816189375
C   7.36980207796101      2.77948220318441     -0.00242013321349
C   7.38016266612146      1.39121750785509     -0.00087345036788
C   6.13979953912259      0.67411862320065      0.00545489144369
H   -8.27919079934664      3.40711804112415     -0.00763522772059
H   8.31511347147953      3.31811809662368     -0.00663070901292
C   -8.59175593758115      0.72483255304480     -0.00123170985383
C   -8.59902460370342     -0.63263980622873      0.00089141472904
C   -6.13981313911873     -0.67413663715361     -0.00609792660607
C   -7.38018411213749     -1.39126618958160      0.00131813493501
C   -4.91868448025621     -1.39175501803000      0.00624257154343
C   -3.68443829568458     -0.68723731573599     -0.00478966852105
C   -2.46081704024768     -1.40334517882457      0.00575341766833
C   -1.23116201232071     -0.70217386488055     -0.00636696112346
C   -0.00756962538737     -1.41741884941102      0.00108956317991
C   1.22364771588843     -0.71527537726392      0.01109518512883
C   2.44567064933149     -1.42964328900682     -0.00065482763106
C   3.67686670284649     -0.72670743155550     -0.00479541202602
C   6.13224884641929     -0.73997883984993     -0.00632338623858
C   4.90351914550401     -1.44445752054090      0.00751768830159
C   8.59901484869081      0.63260386666793     -0.00101133422380
C   8.59174548810050     -0.72485086719319      0.00072504603735
C   7.36486276438985     -1.47033266560598      0.00049486934466
H   -9.52830597181814      1.27684744919284     -0.00270163681798
H   9.54141097460619      1.17457248844457     -0.00206336648518
C   -7.36983790976868     -2.77954514593389      0.00312634335708
C   -4.92459910905015     -2.80843725734101     -0.00460528907921
C   -6.16662249566744     -3.51665219282533      0.00169655107992
C   -3.70251035970491     -3.52468154912026      0.00571878010666
C   -2.46764698511392     -2.82132596280400     -0.00632585824990
C   -0.01513347410770     -2.83314164539971     -0.00604426974092
C   -1.24712184122656     -3.53473217556300      0.00551968366725
C   1.20924506964357     -3.54791467864352      0.00805871345849
C   2.43733602215464     -2.84764173817541     -0.00608104485234
C   4.89430234377080     -2.86112296828604     -0.00526030478103
C   3.66461525504104     -3.56421984553201      0.00761911515957
C   6.12863901474565     -3.58258405771778      0.00096495711699
C   7.33967266469532     -2.85841330737039      0.00248018319869
H   -9.54144911125902     -1.17456346666430      0.00226083090216
H   9.52826186807155     -1.27691907390448      0.00197485379837
H   -8.31516504384864     -3.31814985321231      0.00729857188773
H   8.27915514249207     -3.40714078989363      0.00681973918158
C   -6.14499418870218     -4.92764727278338      0.00302254913999
C   -3.70678334799751     -4.94126171411716     -0.00679841894792
C   -4.95559005800169     -5.64349397349412      0.00116871569699
C   -2.48612132622665     -5.65478557440947      0.00614125209662
C   -1.25405833548005     -4.95612205000132     -0.00503435388927
C   1.20101257386816     -4.96928038819302     -0.00385322963129
C   -0.03033667441341     -5.66952030313900      0.00398997003238
C   3.65375010132847     -4.98074377541453     -0.00309522988330
C   2.42549269587528     -5.68117463552727      0.00628170066869
C   6.09196561781097     -4.99325796338655      0.00325918379042
C   4.89497644461045     -5.69634842095790      0.00202298796027
H   -7.08989238804069     -5.46699984223871      0.00742531082125
H   7.03105520920009     -5.54265853633254      0.00683896355417
C   -4.92354532219813     -7.07882109967734      0.00061394679214
C   -2.48534208823777     -7.08772807792913     -0.00189594564379
C   -3.75168589177895     -7.76394715763627     -0.00170126671874
C   -0.03794895698805     -7.09946487446944     -0.00168022049625
C   -1.27795610040136     -7.77290438466689     -0.00366491325785
C   2.40944432072629     -7.11402201200282     -0.00081701968533
C   1.19474993715296     -7.78618536556242     -0.00296931056689
C   4.84762105249800     -7.13126211057943      0.00168979497423
C   3.66847160587561     -7.80378799294376     -0.00065863938960
H   -5.86994035041618     -7.61383059804164      0.00215798365757
H   5.78824962538815     -7.67633218931421      0.00281691445618
H   -3.75352693944918     -8.85107156923607     -0.00353718114765
H   -1.28430440589466     -8.86087539249706     -0.00809229711623
H   1.18922157469537     -8.87416062058945     -0.00706194725726
H   3.65854661482387     -8.89086063405326     -0.00231318081200

    units angstrom      # Angstroms are the default
    no_reorient         # Geometry fixed, default
    symmetry c1         # C1 symmetry, default
}

set {
    scf_type DF         # Density fitting, faster than exact integrals
    freeze_core True    # Freeze core electrons
    basis jun-cc-pVDZ   # Jun-cc-pVDZ basis set, recommended for sSAPT0 in https://doi.org/10.1063/1.4867135
}

energy('ssapt0')        # Compute sSAPT0 energy, includes also SAPT0
--------------------------------------------------------------------------

  Memory set to  59.605 GiB by Python driver.

Scratch directory: /tmp/
   => Loading Basis Set <=

    Name: JUN-CC-PVDZ
    Role: ORBITAL
    Keyword: BASIS
    atoms 1-2, 4-5, 10, 17-34, 41-53, 56-70, 73-89, 92-104, 109-119, 122-130 entry C          line   164 file /opt/software/pc2/EB-SW/software/PSI4/1.9-foss-2022a/share/psi4/basis/jun-cc-pvdz.gbs 
    atoms 3, 6                                                               entry N          line   198 file /opt/software/pc2/EB-SW/software/PSI4/1.9-foss-2022a/share/psi4/basis/jun-cc-pvdz.gbs 
    atoms 7-9, 11-16, 35-40, 54-55, 71-72, 90-91, 105-108, 120-121, 131-136  entry H          line    36 file /opt/software/pc2/EB-SW/software/PSI4/1.9-foss-2022a/share/psi4/basis/jun-cc-pvdz.gbs 

   => Loading Basis Set <=

    Name: JUN-CC-PVDZ
    Role: ORBITAL
    Keyword: BASIS
    atoms 1-2, 4-5, 10, 17-34, 41-53, 56-70, 73-89, 92-104, 109-119, 122-130 entry C          line   164 file /opt/software/pc2/EB-SW/software/PSI4/1.9-foss-2022a/share/psi4/basis/jun-cc-pvdz.gbs 
    atoms 3, 6                                                               entry N          line   198 file /opt/software/pc2/EB-SW/software/PSI4/1.9-foss-2022a/share/psi4/basis/jun-cc-pvdz.gbs 
    atoms 7-9, 11-16, 35-40, 54-55, 71-72, 90-91, 105-108, 120-121, 131-136  entry H          line    36 file /opt/software/pc2/EB-SW/software/PSI4/1.9-foss-2022a/share/psi4/basis/jun-cc-pvdz.gbs 


  //>>>>>>>>>>>>>>>>>>>>>>>>>>>>>>>>>>>//
  //              Dimer HF             //
  //<<<<<<<<<<<<<<<<<<<<<<<<<<<<<<<<<<<//

   => Libint2 <=

    Primary   basis highest AM E, G, H:  5, 4, 3
    Auxiliary basis highest AM E, G, H:  6, 5, 4
    Onebody   basis highest AM E, G, H:  6, 5, 4
    Solid Harmonics ordering:            gaussian

*** tstart() called on n2cn0683
*** at Fri Jan 26 23:20:41 2024

   => Loading Basis Set <=

    Name: JUN-CC-PVDZ
    Role: ORBITAL
    Keyword: BASIS
    atoms 1-2, 4-5, 10, 17-34, 41-53, 56-70, 73-89, 92-104, 109-119, 122-130 entry C          line   164 file /opt/software/pc2/EB-SW/software/PSI4/1.9-foss-2022a/share/psi4/basis/jun-cc-pvdz.gbs 
    atoms 3, 6                                                               entry N          line   198 file /opt/software/pc2/EB-SW/software/PSI4/1.9-foss-2022a/share/psi4/basis/jun-cc-pvdz.gbs 
    atoms 7-9, 11-16, 35-40, 54-55, 71-72, 90-91, 105-108, 120-121, 131-136  entry H          line    36 file /opt/software/pc2/EB-SW/software/PSI4/1.9-foss-2022a/share/psi4/basis/jun-cc-pvdz.gbs 


         ---------------------------------------------------------
                                   SCF
               by Justin Turney, Rob Parrish, Andy Simmonett
                          and Daniel G. A. Smith
                              RHF Reference
                       16 Threads,  61035 MiB Core
         ---------------------------------------------------------

  ==> Geometry <==

    Molecular point group: c1
    Full point group: C1

    Geometry (in Angstrom), charge = 1, multiplicity = 1:

       Center              X                  Y                   Z               Mass       
    ------------   -----------------  -----------------  -----------------  -----------------
         C            0.680062820275    -1.215917226251     6.474342959858    12.000000000000
         C           -0.680508179725    -1.215533226251     6.472314959858    12.000000000000
         N           -1.085639179725     0.102790773749     6.471316959858    14.003074004430
         C            0.000103820275     0.884191773749     6.468040959858    12.000000000000
         C           -2.477369179725     0.570769773749     6.421910959858    12.000000000000
         N            1.085217820275     0.102790773749     6.471316959858    14.003074004430
         H            1.385141820275    -2.033356226251     6.482170959858     1.007825032230
         H           -1.385306179725    -2.033202226251     6.472504959858     1.007825032230
         H           -0.000013179725     1.965280773749     6.466293959858     1.007825032230
         C            2.478112820275     0.567888773749     6.488208959858    12.000000000000
         H            2.490587820275     1.658141773750     6.460863959858     1.007825032230
         H            2.967023820275     0.220712773749     7.401654959858     1.007825032230
         H            3.001423820275     0.176416773749     5.612725959858     1.007825032230
         H           -2.857363179725     0.490810773749     5.399839959858     1.007825032230
         H           -3.082683179725    -0.042294226251     7.091994959858     1.007825032230
         H           -2.518132179725     1.610717773749     6.748894959858     1.007825032230
         C           -3.668445443746     7.803763943832    -0.531798998807    12.000000000000
         C           -4.847602899072     7.131253605090    -0.534165573739    12.000000000000
         C           -4.894963478901     5.696342177281    -0.534738484837    12.000000000000
         C           -3.653744858499     4.980742114708    -0.527078043108    12.000000000000
         C           -2.409429301220     7.113992810424    -0.531604656546    12.000000000000
         C           -2.425481523830     5.681133724653    -0.538609545416    12.000000000000
         C           -1.194748196161     7.786155968059    -0.530132476004    12.000000000000
         C            0.037954849212     7.099433419506    -0.532303180309    12.000000000000
         C            0.030328407694     5.669501333454    -0.537786565225    12.000000000000
         C           -1.200988687630     4.969282121665    -0.528816831292    12.000000000000
         C            1.277953646089     7.772871216944    -0.530927331749    12.000000000000
         C            2.485353904999     7.087708658987    -0.533201819654    12.000000000000
         C            2.486124505192     5.654782583990    -0.540139568641    12.000000000000
         C            1.254078739919     4.956089887414    -0.528511627053    12.000000000000
         C            3.751710411681     7.763923924730    -0.533074968273    12.000000000000
         C            4.923561876460     7.078792550739    -0.535131448981    12.000000000000
         C            4.955603091600     5.643459237119    -0.535291861788    12.000000000000
         C            3.706797354479     4.941221982083    -0.530200301618    12.000000000000
         H           -3.658525317484     8.890839192885    -0.530114010556     1.007825032230
         H           -1.189217509482     8.874132861109    -0.526160599563     1.007825032230
         H            1.284290059161     8.860845209238    -0.526768507608     1.007825032230
         H            3.753537907074     8.851047052722    -0.531552443957     1.007825032230
         H            5.869954523482     7.613806608405    -0.536056816023     1.007825032230
         H           -5.788235887228     7.676313986684    -0.535725421095     1.007825032230
         C           -6.091978138422     4.993271787393    -0.536610725328    12.000000000000
         C           -6.128665660043     3.582591942548    -0.535409548300    12.000000000000
         C           -3.664583919771     3.564193953494    -0.538334642917    12.000000000000
         C           -4.894302384424     2.861092549650    -0.529165657932    12.000000000000
         C           -2.437339174623     2.847623430834    -0.526502864380    12.000000000000
         C           -1.209232037322     3.547898708728    -0.540181891172    12.000000000000
         C            1.247137392437     3.534692525179    -0.540990497578    12.000000000000
         C            0.015171859844     2.833123613055    -0.529306314353    12.000000000000
         C            2.467640992715     2.821301751005    -0.529206256229    12.000000000000
         C            3.702545294854     3.524671928174    -0.542694217072    12.000000000000
         C            6.144976206658     4.927584139881    -0.536525307000    12.000000000000
         C            6.166584179136     3.516596249692    -0.534358753563    12.000000000000
         C            4.924605778734     2.808419699104    -0.527820007326    12.000000000000
         H            7.089901329916     5.466899539973    -0.540287187849     1.007825032230
         H           -7.031045930827     5.542699726607    -0.540843940279     1.007825032230
         C           -7.339702220848     2.858423308329    -0.537036715741    12.000000000000
         C           -7.364886137784     1.470335145333    -0.535271177614    12.000000000000
         C           -4.903508788672     1.444438585909    -0.539987441805    12.000000000000
         C           -6.132261332336     0.739951130803    -0.527697397822    12.000000000000
         C           -3.676878980242     0.726708916423    -0.529359725406    12.000000000000
         C           -2.445660765791     1.429652907012    -0.539669435607    12.000000000000
         C           -1.223604861027     0.715336275384    -0.528240171076    12.000000000000
         C            0.007633689588     1.417394922987    -0.529774517358    12.000000000000
         C            1.231215628021     0.702128464337    -0.548601103014    12.000000000000
         C            2.460816920806     1.403303809875    -0.529096594123    12.000000000000
         C            3.684426074471     0.687210201962    -0.529925380401    12.000000000000
         C            4.918704721813     1.391746334939    -0.542327202036    12.000000000000
         C            7.369797898236     2.779493976934    -0.536119173356    12.000000000000
         C            7.380158486396     1.391229281605    -0.534572490510    12.000000000000
         C            6.139795359397     0.674130396950    -0.528244148698    12.000000000000
         H           -8.279194979072     3.407129814874    -0.541334267863     1.007825032230
         H            8.315109291754     3.318129870373    -0.540329749155     1.007825032230
         C           -8.591760117307     0.724844326794    -0.534930749996    12.000000000000
         C           -8.599028783429    -0.632628032479    -0.532807625413    12.000000000000
         C           -6.139817318844    -0.674124863404    -0.539796966748    12.000000000000
         C           -7.380188291863    -1.391254415832    -0.532380905207    12.000000000000
         C           -4.918688659982    -1.391743244281    -0.527456468599    12.000000000000
         C           -3.684442475410    -0.687225541986    -0.538488708663    12.000000000000
         C           -2.460821219973    -1.403333405075    -0.527945622474    12.000000000000
         C           -1.231166192046    -0.702162091131    -0.540066001266    12.000000000000
         C           -0.007573805113    -1.417407075662    -0.532609476962    12.000000000000
         C            1.223643536163    -0.715263603514    -0.522603855013    12.000000000000
         C            2.445666469606    -1.429631515257    -0.534353867773    12.000000000000
         C            3.676862523121    -0.726695657806    -0.538494452168    12.000000000000
         C            6.132244666694    -0.739967066100    -0.540022426381    12.000000000000
         C            4.903514965779    -1.444445746791    -0.526181351841    12.000000000000
         C            8.599010668965     0.632615640417    -0.534710374366    12.000000000000
         C            8.591741308375    -0.724839093444    -0.532973994105    12.000000000000
         C            7.364858584664    -1.470320891856    -0.533204170797    12.000000000000
         H           -9.528310151544     1.276859222942    -0.536400676960     1.007825032230
         H            9.541406794881     1.174584262194    -0.535762406627     1.007825032230
         C           -7.369842089494    -2.779533372184    -0.530572696785    12.000000000000
         C           -4.924603288776    -2.808425483592    -0.538304329221    12.000000000000
         C           -6.166626675393    -3.516640419076    -0.532002489062    12.000000000000
         C           -3.702514539430    -3.524669775371    -0.527980260035    12.000000000000
         C           -2.467651164839    -2.821314189055    -0.540024898392    12.000000000000
         C           -0.015137653833    -2.833129871650    -0.539743309883    12.000000000000
         C           -1.247126020952    -3.534720401814    -0.528179356475    12.000000000000
         C            1.209240889918    -3.547902904894    -0.525640326684    12.000000000000
         C            2.437331842429    -2.847629964426    -0.539780084994    12.000000000000
         C            4.894298164045    -2.861111194537    -0.538959344923    12.000000000000
         C            3.664611075316    -3.564208071783    -0.526079924983    12.000000000000
         C            6.128634835020    -3.582572283968    -0.532734083025    12.000000000000
         C            7.339668484970    -2.858401533621    -0.531218856943    12.000000000000
         H           -9.541453290984    -1.174551692915    -0.531438209240     1.007825032230
         H            9.528257688346    -1.276907300155    -0.531724186344     1.007825032230
         H           -8.315169223574    -3.318138079463    -0.526400468254     1.007825032230
         H            8.279150962767    -3.407129016144    -0.526879300961     1.007825032230
         C           -6.144998368428    -4.927635499034    -0.530676491002    12.000000000000
         C           -3.706787527723    -4.941249940368    -0.540497459090    12.000000000000
         C           -4.955594237727    -5.643482199745    -0.532530324445    12.000000000000
         C           -2.486125505952    -5.654773800660    -0.527557788045    12.000000000000
         C           -1.254062515205    -4.956110276252    -0.538733394031    12.000000000000
         C            1.201008394143    -4.969268614444    -0.537552269773    12.000000000000
         C           -0.030340854139    -5.669508529390    -0.529709070110    12.000000000000
         C            3.653745921603    -4.980732001665    -0.536794270025    12.000000000000
         C            2.425488516150    -5.681162861778    -0.527417339473    12.000000000000
         C            6.091961438086    -4.993246189637    -0.530439856352    12.000000000000
         C            4.894972264885    -5.696336647208    -0.531676052182    12.000000000000
         H           -7.089896567766    -5.466988068489    -0.526273729321     1.007825032230
         H            7.031051029475    -5.542646762583    -0.526860076588     1.007825032230
         C           -4.923549501924    -7.078809325928    -0.533085093350    12.000000000000
         C           -2.485346267963    -7.087716304180    -0.535594985786    12.000000000000
         C           -3.751690071504    -7.763935383887    -0.535400306861    12.000000000000
         C           -0.037953136713    -7.099453100720    -0.535379260638    12.000000000000
         C           -1.277960280127    -7.772892610917    -0.537363953400    12.000000000000
         C            2.409440141001    -7.114010238253    -0.534516059827    12.000000000000
         C            1.194745757428    -7.786173591813    -0.536668350709    12.000000000000
         C            4.847616872773    -7.131250336830    -0.532009245168    12.000000000000
         C            3.668467426150    -7.803776219194    -0.534357679532    12.000000000000
         H           -5.869944530142    -7.613818824292    -0.531541056485     1.007825032230
         H            5.788245445663    -7.676320415565    -0.530882125686     1.007825032230
         H           -3.753531119175    -8.851059795487    -0.537236221290     1.007825032230
         H           -1.284308585620    -8.860863618748    -0.541791337258     1.007825032230
         H            1.189217394970    -8.874148846840    -0.540760987399     1.007825032230
         H            3.658542435098    -8.890848860304    -0.536012220954     1.007825032230

  Running in c1 symmetry.

  Rotational constants: A =      0.00059  B =      0.00059  C =      0.00035 [cm^-1]
  Rotational constants: A =     17.81465  B =     17.70938  C =     10.50436 [MHz]
  Nuclear repulsion = 17719.074822223654337

  Charge       = 1
  Multiplicity = 1
  Electrons    = 652
  Nalpha       = 326
  Nbeta        = 326

  ==> Algorithm <==

  SCF Algorithm Type is DF.
  DIIS enabled.
  MOM disabled.
  Fractional occupation disabled.
  Guess Type is SAD.
  Energy threshold   = 1.00e-08
  Density threshold  = 1.00e-08
  Integral threshold = 1.00e-12

  ==> Primary Basis <==

  Basis Set: JUN-CC-PVDZ
    Blend: JUN-CC-PVDZ
    Number of shells: 923
    Number of basis functions: 2019
    Number of Cartesian functions: 2122
    Spherical Harmonics?: true
    Max angular momentum: 2

   => Loading Basis Set <=

    Name: (JUN-CC-PVDZ AUX)
    Role: JKFIT
    Keyword: DF_BASIS_SCF
    atoms 1-2, 4-5, 10, 17-34, 41-53, 56-70, 73-89, 92-104, 109-119, 122-130 entry C          line   146 file /opt/software/pc2/EB-SW/software/PSI4/1.9-foss-2022a/share/psi4/basis/jun-cc-pvdz-jkfit.gbs 
    atoms 3, 6                                                               entry N          line   202 file /opt/software/pc2/EB-SW/software/PSI4/1.9-foss-2022a/share/psi4/basis/jun-cc-pvdz-jkfit.gbs 
    atoms 7-9, 11-16, 35-40, 54-55, 71-72, 90-91, 105-108, 120-121, 131-136  entry H          line    70 file /opt/software/pc2/EB-SW/software/PSI4/1.9-foss-2022a/share/psi4/basis/jun-cc-pvdz-jkfit.gbs 

  ==> Integral Setup <==

  ==> DiskDFJK: Density-Fitted J/K Matrices <==

    J tasked:                  Yes
    K tasked:                  Yes
    wK tasked:                  No
    OpenMP threads:             16
    Integrals threads:          16
    Memory [MiB]:            45776
    Algorithm:                Disk
    Integral Cache:           SAVE
    Schwarz Cutoff:          1E-12
    Fitting Condition:       1E-10

   => Auxiliary Basis Set <=

  Basis Set: (JUN-CC-PVDZ AUX)
    Blend: JUN-CC-PVDZ-JKFIT
    Number of shells: 3078
    Number of basis functions: 8896
    Number of Cartesian functions: 10198
    Spherical Harmonics?: true
    Max angular momentum: 3

  Minimum eigenvalue in the overlap matrix is 9.0228952541E-11.
  Reciprocal condition number of the overlap matrix is 3.9564831947E-12.
    Using canonical orthogonalization.
  Overall, 38 of 2019 possible MOs eliminated.


  ==> Pre-Iterations <==

  SCF Guess: Superposition of Atomic Densities via on-the-fly atomic UHF (no occupation information).

   -------------------------
    Irrep   Nso     Nmo    
   -------------------------
     A       2019    1981 
   -------------------------
    Total    2019    1981
   -------------------------

  ==> Iterations <==

                           Total Energy        Delta E     RMS |[F,P]|

   @DF-RHF iter SAD: -3967.13353501822348   -3.96713e+03   0.00000e+00 
   @DF-RHF iter   1: -3952.09948391582975    1.50341e+01   7.16312e-04 ADIIS/DIIS
   @DF-RHF iter   2: -3953.49358871412187   -1.39410e+00   2.33944e-04 ADIIS/DIIS
   @DF-RHF iter   3: -3953.61842079576809   -1.24832e-01   9.95930e-05 DIIS
   @DF-RHF iter   4: -3953.64077896073923   -2.23582e-02   4.07118e-05 DIIS
   @DF-RHF iter   5: -3953.64494964228152   -4.17068e-03   1.01720e-05 DIIS
   @DF-RHF iter   6: -3953.64537553096216   -4.25889e-04   4.57906e-06 DIIS
   @DF-RHF iter   7: -3953.64555656106859   -1.81030e-04   2.20406e-06 DIIS
   @DF-RHF iter   8: -3953.64561731624963   -6.07552e-05   1.11640e-06 DIIS
   @DF-RHF iter   9: -3953.64563476016792   -1.74439e-05   3.57783e-07 DIIS
   @DF-RHF iter  10: -3953.64563595746677   -1.19730e-06   1.44854e-07 DIIS
   @DF-RHF iter  11: -3953.64563610768346   -1.50217e-07   6.03153e-08 DIIS
   @DF-RHF iter  12: -3953.64563613991868   -3.22352e-08   2.97282e-08 DIIS
   @DF-RHF iter  13: -3953.64563614768213   -7.76345e-09   1.00618e-08 DIIS
   @DF-RHF iter  14: -3953.64563614860072   -9.18590e-10   4.75381e-09 DIIS
  Energy and wave function converged.


  ==> Post-Iterations <==

    Orbital Energies [Eh]
    ---------------------

    Doubly Occupied:                                                      

       1A    -15.820942     2A    -15.820411     3A    -11.515876  
       4A    -11.446202     5A    -11.444648     6A    -11.436302  
       7A    -11.436047     8A    -11.319298     9A    -11.318865  
      10A    -11.318799    11A    -11.318215    12A    -11.318177  
      13A    -11.317931    14A    -11.317883    15A    -11.317751  
      16A    -11.317592    17A    -11.317290    18A    -11.317246  
      19A    -11.317058    20A    -11.316905    21A    -11.316809  
      22A    -11.316727    23A    -11.316622    24A    -11.316498  
      25A    -11.316292    26A    -11.316124    27A    -11.315975  
      28A    -11.315900    29A    -11.315841    30A    -11.315605  
      31A    -11.315442    32A    -11.314721    33A    -11.314682  
      34A    -11.314618    35A    -11.314535    36A    -11.314493  
      37A    -11.314429    38A    -11.314399    39A    -11.314367  
      40A    -11.314121    41A    -11.314091    42A    -11.314017  
      43A    -11.313866    44A    -11.313312    45A    -11.313264  
      46A    -11.313256    47A    -11.312978    48A    -11.312944  
      49A    -11.312796    50A    -11.312761    51A    -11.312724  
      52A    -11.312679    53A    -11.312658    54A    -11.312360  
      55A    -11.312327    56A    -11.312287    57A    -11.312272  
      58A    -11.312264    59A    -11.312234    60A    -11.311816  
      61A    -11.311802    62A    -11.311790    63A    -11.311760  
      64A    -11.311740    65A    -11.311709    66A    -11.311684  
      67A    -11.311668    68A    -11.311624    69A    -11.311444  
      70A    -11.311413    71A    -11.311231    72A    -11.311224  
      73A    -11.311183    74A    -11.311150    75A    -11.311105  
      76A    -11.311068    77A    -11.311059    78A    -11.310647  
      79A    -11.310633    80A    -11.304562    81A    -11.304517  
      82A    -11.304484    83A    -11.304480    84A    -11.304428  
      85A    -11.304420    86A    -11.304390    87A    -11.304375  
      88A    -11.304101    89A    -11.304081    90A    -11.303962  
      91A    -11.303882    92A    -11.303580    93A    -11.303553  
      94A    -11.303524    95A    -11.303483    96A    -11.302987  
      97A    -11.302980    98A    -11.302113    99A    -11.302086  
     100A    -11.302054   101A    -11.302013   102A    -11.301518  
     103A    -11.301511   104A     -1.564467   105A     -1.420100  
     106A     -1.308306   107A     -1.292287   108A     -1.292158  
     109A     -1.272962   110A     -1.272947   111A     -1.268727  
     112A     -1.252866   113A     -1.247788   114A     -1.241236  
     115A     -1.241125   116A     -1.225387   117A     -1.225377  
     118A     -1.224972   119A     -1.208430   120A     -1.208425  
     121A     -1.205587   122A     -1.196113   123A     -1.196107  
     124A     -1.180754   125A     -1.175701   126A     -1.167452  
     127A     -1.165235   128A     -1.165155   129A     -1.164452  
     130A     -1.162832   131A     -1.140499   132A     -1.140461  
     133A     -1.128159   134A     -1.128148   135A     -1.120050  
     136A     -1.120023   137A     -1.117638   138A     -1.105350  
     139A     -1.098623   140A     -1.098611   141A     -1.092270  
     142A     -1.089926   143A     -1.089900   144A     -1.078048  
     145A     -1.074747   146A     -1.074729   147A     -1.059176  
     148A     -1.058615   149A     -1.055541   150A     -1.052794  
     151A     -1.052785   152A     -1.041953   153A     -1.023080  
     154A     -1.023075   155A     -1.008873   156A     -1.007272  
     157A     -1.007254   158A     -0.983321   159A     -0.958717  
     160A     -0.958641   161A     -0.957733   162A     -0.956345  
     163A     -0.956292   164A     -0.945524   165A     -0.945433  
     166A     -0.943020   167A     -0.942928   168A     -0.941822  
     169A     -0.923358   170A     -0.919314   171A     -0.903493  
     172A     -0.903001   173A     -0.900377   174A     -0.900286  
     175A     -0.898135   176A     -0.895267   177A     -0.886226  
     178A     -0.886203   179A     -0.878906   180A     -0.878898  
     181A     -0.836884   182A     -0.836789   183A     -0.836748  
     184A     -0.834736   185A     -0.834706   186A     -0.834459  
     187A     -0.834091   188A     -0.834065   189A     -0.818970  
     190A     -0.813603   191A     -0.802727   192A     -0.802710  
     193A     -0.799563   194A     -0.784430   195A     -0.778932  
     196A     -0.778845   197A     -0.776915   198A     -0.776544  
     199A     -0.776406   200A     -0.776349   201A     -0.772611  
     202A     -0.770926   203A     -0.768228   204A     -0.766039  
     205A     -0.766001   206A     -0.750804   207A     -0.750791  
     208A     -0.738418   209A     -0.737264   210A     -0.737243  
     211A     -0.733751   212A     -0.733742   213A     -0.730443  
     214A     -0.716327   215A     -0.712442   216A     -0.704668  
     217A     -0.703459   218A     -0.702229   219A     -0.702215  
     220A     -0.702067   221A     -0.702003   222A     -0.700753  
     223A     -0.693025   224A     -0.692984   225A     -0.691523  
     226A     -0.690458   227A     -0.687875   228A     -0.687853  
     229A     -0.680780   230A     -0.672372   231A     -0.666147  
     232A     -0.666119   233A     -0.660302   234A     -0.660277  
     235A     -0.652586   236A     -0.652431   237A     -0.650822  
     238A     -0.650782   239A     -0.650523   240A     -0.650222  
     241A     -0.646582   242A     -0.646421   243A     -0.646399  
     244A     -0.646061   245A     -0.643276   246A     -0.643255  
     247A     -0.640013   248A     -0.628239   249A     -0.628218  
     250A     -0.628133   251A     -0.628096   252A     -0.624693  
     253A     -0.623022   254A     -0.620428   255A     -0.620413  
     256A     -0.617991   257A     -0.617930   258A     -0.611153  
     259A     -0.610579   260A     -0.610501   261A     -0.609044  
     262A     -0.606059   263A     -0.602331   264A     -0.597457  
     265A     -0.596453   266A     -0.588245   267A     -0.588113  
     268A     -0.584855   269A     -0.584800   270A     -0.582573  
     271A     -0.580227   272A     -0.579240   273A     -0.579227  
     274A     -0.568755   275A     -0.568641   276A     -0.566860  
     277A     -0.566850   278A     -0.560540   279A     -0.560533  
     280A     -0.549620   281A     -0.548178   282A     -0.548120  
     283A     -0.546671   284A     -0.546656   285A     -0.542462  
     286A     -0.532316   287A     -0.528625   288A     -0.528619  
     289A     -0.525256   290A     -0.521776   291A     -0.518311  
     292A     -0.518279   293A     -0.510983   294A     -0.510060  
     295A     -0.499611   296A     -0.499505   297A     -0.493862  
     298A     -0.493673   299A     -0.493531   300A     -0.485640  
     301A     -0.484965   302A     -0.459456   303A     -0.459419  
     304A     -0.439114   305A     -0.439084   306A     -0.436661  
     307A     -0.436610   308A     -0.436580   309A     -0.406228  
     310A     -0.406208   311A     -0.402579   312A     -0.392001  
     313A     -0.389749   314A     -0.389726   315A     -0.383644  
     316A     -0.383568   317A     -0.360077   318A     -0.354734  
     319A     -0.354722   320A     -0.352372   321A     -0.337782  
     322A     -0.306652   323A     -0.306137   324A     -0.306124  
     325A     -0.255921   326A     -0.255913  

    Virtual:                                                              

     327A     -0.063165   328A     -0.063003   329A     -0.056122  
     330A     -0.052308   331A     -0.043526   332A     -0.037654  
     333A     -0.019890   334A     -0.019055   335A     -0.017477  
     336A     -0.017365   337A     -0.015470   338A     -0.013634  
     339A     -0.010449   340A     -0.003381   341A      0.000788  
     342A      0.001204   343A      0.003569   344A      0.005118  
     345A      0.005314   346A      0.008480   347A      0.009288  
     348A      0.009864   349A      0.009977   350A      0.013896  
     351A      0.014576   352A      0.014870   353A      0.017689  
     354A      0.017788   355A      0.020096   356A      0.020155  
     357A      0.022200   358A      0.026310   359A      0.027384  
     360A      0.027458   361A      0.029283   362A      0.029540  
     363A      0.030265   364A      0.031446   365A      0.031448  
     366A      0.032637   367A      0.034604   368A      0.035658  
     369A      0.039971   370A      0.041356   371A      0.041970  
     372A      0.042815   373A      0.042922   374A      0.046453  
     375A      0.048673   376A      0.053977   377A      0.054292  
     378A      0.054351   379A      0.054822   380A      0.055459  
     381A      0.056678   382A      0.058592   383A      0.058740  
     384A      0.060997   385A      0.061693   386A      0.061821  
     387A      0.063777   388A      0.063906   389A      0.063947  
     390A      0.064180   391A      0.064925   392A      0.069916  
     393A      0.071812   394A      0.072433   395A      0.073071  
     396A      0.073737   397A      0.075001   398A      0.075625  
     399A      0.077936   400A      0.079131   401A      0.082182  
     402A      0.083420   403A      0.085160   404A      0.086601  
     405A      0.087047   406A      0.087969   407A      0.089213  
     408A      0.089536   409A      0.091084   410A      0.093876  
     411A      0.094143   412A      0.094460   413A      0.097722  
     414A      0.099349   415A      0.100950   416A      0.101424  
     417A      0.103633   418A      0.104666   419A      0.105123  
     420A      0.105364   421A      0.106139   422A      0.108892  
     423A      0.109758   424A      0.110243   425A      0.112481  
     426A      0.112973   427A      0.114370   428A      0.114814  
     429A      0.115179   430A      0.118702   431A      0.120019  
     432A      0.120393   433A      0.121257   434A      0.121954  
     435A      0.123111   436A      0.126401   437A      0.126846  
     438A      0.128113   439A      0.128283   440A      0.130729  
     441A      0.132067   442A      0.132950   443A      0.133255  
     444A      0.134086   445A      0.139603   446A      0.141232  
     447A      0.141493   448A      0.142473   449A      0.142752  
     450A      0.143982   451A      0.145229   452A      0.146507  
     453A      0.148066   454A      0.149593   455A      0.152016  
     456A      0.152565   457A      0.153542   458A      0.154209  
     459A      0.155841   460A      0.156278   461A      0.157466  
     462A      0.157832   463A      0.159026   464A      0.159192  
     465A      0.159282   466A      0.159717   467A      0.160368  
     468A      0.161270   469A      0.161768   470A      0.162273  
     471A      0.162808   472A      0.163848   473A      0.165371  
     474A      0.166359   475A      0.167673   476A      0.168025  
     477A      0.169085   478A      0.169542   479A      0.170515  
     480A      0.172996   481A      0.173543   482A      0.173821  
     483A      0.176550   484A      0.177025   485A      0.177096  
     486A      0.177855   487A      0.178404   488A      0.181429  
     489A      0.181557   490A      0.181789   491A      0.183169  
     492A      0.184913   493A      0.186226   494A      0.186776  
     495A      0.187585   496A      0.188735   497A      0.188992  
     498A      0.191318   499A      0.191726   500A      0.192893  
     501A      0.193914   502A      0.194158   503A      0.194517  
     504A      0.195720   505A      0.198811   506A      0.198980  
     507A      0.199998   508A      0.202258   509A      0.202389  
     510A      0.203663   511A      0.206951   512A      0.207495  
     513A      0.209442   514A      0.210089   515A      0.211367  
     516A      0.211543   517A      0.212161   518A      0.214446  
     519A      0.214599   520A      0.215420   521A      0.216249  
     522A      0.216817   523A      0.218219   524A      0.218638  
     525A      0.219403   526A      0.219588   527A      0.220213  
     528A      0.221028   529A      0.222590   530A      0.226402  
     531A      0.227444   532A      0.228086   533A      0.229628  
     534A      0.229909   535A      0.230276   536A      0.230648  
     537A      0.232654   538A      0.233222   539A      0.234747  
     540A      0.236612   541A      0.236879   542A      0.237740  
     543A      0.238142   544A      0.238264   545A      0.241348  
     546A      0.243056   547A      0.243271   548A      0.244734  
     549A      0.245004   550A      0.245294   551A      0.245924  
     552A      0.249568   553A      0.250401   554A      0.253223  
     555A      0.253489   556A      0.253961   557A      0.255293  
     558A      0.256851   559A      0.258059   560A      0.258282  
     561A      0.258960   562A      0.259738   563A      0.259963  
     564A      0.262227   565A      0.262890   566A      0.264649  
     567A      0.265111   568A      0.266209   569A      0.266890  
     570A      0.267472   571A      0.268048   572A      0.268887  
     573A      0.269761   574A      0.270730   575A      0.271226  
     576A      0.271577   577A      0.273256   578A      0.273442  
     579A      0.275327   580A      0.276401   581A      0.278763  
     582A      0.279041   583A      0.280638   584A      0.280905  
     585A      0.281550   586A      0.282059   587A      0.282656  
     588A      0.283631   589A      0.284895   590A      0.285910  
     591A      0.286473   592A      0.288138   593A      0.288640  
     594A      0.289744   595A      0.290956   596A      0.291902  
     597A      0.292109   598A      0.292917   599A      0.295059  
     600A      0.295214   601A      0.295855   602A      0.296782  
     603A      0.297513   604A      0.297801   605A      0.299442  
     606A      0.300132   607A      0.300549   608A      0.302556  
     609A      0.302741   610A      0.304248   611A      0.304940  
     612A      0.305558   613A      0.307581   614A      0.310605  
     615A      0.312975   616A      0.313052   617A      0.314314  
     618A      0.315470   619A      0.317443   620A      0.318068  
     621A      0.318346   622A      0.319383   623A      0.319890  
     624A      0.320056   625A      0.320479   626A      0.323975  
     627A      0.326063   628A      0.326708   629A      0.329061  
     630A      0.329568   631A      0.329750   632A      0.331026  
     633A      0.331923   634A      0.332895   635A      0.332960  
     636A      0.334841   637A      0.335563   638A      0.335960  
     639A      0.337155   640A      0.339105   641A      0.341792  
     642A      0.342939   643A      0.343788   644A      0.344807  
     645A      0.345425   646A      0.345656   647A      0.345858  
     648A      0.346425   649A      0.346559   650A      0.346652  
     651A      0.348646   652A      0.349600   653A      0.350577  
     654A      0.351199   655A      0.351701   656A      0.352112  
     657A      0.352477   658A      0.352996   659A      0.354330  
     660A      0.354712   661A      0.355134   662A      0.355665  
     663A      0.358503   664A      0.358956   665A      0.359126  
     666A      0.360219   667A      0.360701   668A      0.361626  
     669A      0.362483   670A      0.363082   671A      0.364860  
     672A      0.365286   673A      0.365588   674A      0.366875  
     675A      0.367339   676A      0.368332   677A      0.368714  
     678A      0.371854   679A      0.372957   680A      0.374017  
     681A      0.375122   682A      0.376759   683A      0.377149  
     684A      0.379240   685A      0.379313   686A      0.380591  
     687A      0.381141   688A      0.381294   689A      0.381416  
     690A      0.382462   691A      0.382707   692A      0.383719  
     693A      0.385596   694A      0.385894   695A      0.387155  
     696A      0.387713   697A      0.389166   698A      0.389740  
     699A      0.390205   700A      0.393256   701A      0.399906  
     702A      0.400623   703A      0.401341   704A      0.401681  
     705A      0.401985   706A      0.402345   707A      0.403207  
     708A      0.403746   709A      0.404834   710A      0.405289  
     711A      0.405381   712A      0.407025   713A      0.407186  
     714A      0.410230   715A      0.410419   716A      0.411336  
     717A      0.412211   718A      0.412753   719A      0.413499  
     720A      0.415699   721A      0.416441   722A      0.417107  
     723A      0.417690   724A      0.418177   725A      0.419672  
     726A      0.419935   727A      0.421092   728A      0.424229  
     729A      0.424513   730A      0.424749   731A      0.425047  
     732A      0.425958   733A      0.426861   734A      0.428225  
     735A      0.429215   736A      0.429393   737A      0.429955  
     738A      0.432633   739A      0.434638   740A      0.435819  
     741A      0.436761   742A      0.437504   743A      0.439738  
     744A      0.439964   745A      0.441027   746A      0.442857  
     747A      0.443152   748A      0.444009   749A      0.446292  
     750A      0.446580   751A      0.450321   752A      0.451441  
     753A      0.452702   754A      0.453546   755A      0.454030  
     756A      0.454867   757A      0.455327   758A      0.456196  
     759A      0.456347   760A      0.457680   761A      0.459342  
     762A      0.463249   763A      0.464827   764A      0.465418  
     765A      0.466511   766A      0.466633   767A      0.466850  
     768A      0.467940   769A      0.468361   770A      0.469143  
     771A      0.471689   772A      0.473943   773A      0.474204  
     774A      0.475209   775A      0.479711   776A      0.482704  
     777A      0.482820   778A      0.483000   779A      0.487652  
     780A      0.488411   781A      0.489072   782A      0.489625  
     783A      0.490404   784A      0.493774   785A      0.494598  
     786A      0.495069   787A      0.502556   788A      0.504782  
     789A      0.507861   790A      0.508093   791A      0.510146  
     792A      0.511589   793A      0.512072   794A      0.515651  
     795A      0.516496   796A      0.516970   797A      0.518767  
     798A      0.520871   799A      0.521594   800A      0.522440  
     801A      0.524063   802A      0.524632   803A      0.525030  
     804A      0.526512   805A      0.527163   806A      0.527681  
     807A      0.528038   808A      0.529477   809A      0.532282  
     810A      0.535069   811A      0.537767   812A      0.538407  
     813A      0.538883   814A      0.539599   815A      0.543028  
     816A      0.544122   817A      0.545981   818A      0.546410  
     819A      0.546906   820A      0.551086   821A      0.552598  
     822A      0.553206   823A      0.554039   824A      0.555186  
     825A      0.563217   826A      0.566045   827A      0.568074  
     828A      0.568330   829A      0.569306   830A      0.569589  
     831A      0.574163   832A      0.577864   833A      0.579746  
     834A      0.580256   835A      0.581253   836A      0.583191  
     837A      0.588370   838A      0.589523   839A      0.595152  
     840A      0.595662   841A      0.603815   842A      0.603941  
     843A      0.606292   844A      0.607709   845A      0.607852  
     846A      0.608765   847A      0.608985   848A      0.613989  
     849A      0.616321   850A      0.616571   851A      0.621448  
     852A      0.628787   853A      0.630934   854A      0.633364  
     855A      0.634985   856A      0.636541   857A      0.636636  
     858A      0.638543   859A      0.640361   860A      0.640422  
     861A      0.641251   862A      0.642219   863A      0.647658  
     864A      0.648838   865A      0.649730   866A      0.649893  
     867A      0.654894   868A      0.655784   869A      0.656742  
     870A      0.659194   871A      0.668384   872A      0.669242  
     873A      0.669976   874A      0.674799   875A      0.677086  
     876A      0.680064   877A      0.681680   878A      0.682439  
     879A      0.687653   880A      0.688812   881A      0.690430  
     882A      0.691419   883A      0.693459   884A      0.694111  
     885A      0.695517   886A      0.698948   887A      0.699221  
     888A      0.702323   889A      0.706861   890A      0.712830  
     891A      0.716953   892A      0.720618   893A      0.727529  
     894A      0.732850   895A      0.733904   896A      0.737652  
     897A      0.737897   898A      0.739490   899A      0.741907  
     900A      0.743443   901A      0.744169   902A      0.747927  
     903A      0.750669   904A      0.752021   905A      0.752473  
     906A      0.753531   907A      0.756495   908A      0.757054  
     909A      0.759418   910A      0.760292   911A      0.763049  
     912A      0.765179   913A      0.765953   914A      0.767057  
     915A      0.767970   916A      0.769141   917A      0.770242  
     918A      0.775899   919A      0.777923   920A      0.778358  
     921A      0.780484   922A      0.784026   923A      0.785378  
     924A      0.786041   925A      0.786068   926A      0.787357  
     927A      0.787519   928A      0.790823   929A      0.793773  
     930A      0.796052   931A      0.796452   932A      0.796677  
     933A      0.801168   934A      0.802946   935A      0.804162  
     936A      0.805281   937A      0.806774   938A      0.810066  
     939A      0.810440   940A      0.811704   941A      0.813816  
     942A      0.817314   943A      0.817669   944A      0.818445  
     945A      0.818706   946A      0.819865   947A      0.820911  
     948A      0.821971   949A      0.822794   950A      0.824495  
     951A      0.825868   952A      0.826823   953A      0.827229  
     954A      0.829075   955A      0.831471   956A      0.833318  
     957A      0.835598   958A      0.835774   959A      0.838181  
     960A      0.838946   961A      0.839746   962A      0.841312  
     963A      0.841438   964A      0.844089   965A      0.845586  
     966A      0.847559   967A      0.849426   968A      0.849691  
     969A      0.853177   970A      0.856680   971A      0.856769  
     972A      0.861957   973A      0.864714   974A      0.865424  
     975A      0.866492   976A      0.868213   977A      0.868699  
     978A      0.870189   979A      0.871296   980A      0.871485  
     981A      0.871830   982A      0.872254   983A      0.875481  
     984A      0.876916   985A      0.878379   986A      0.880002  
     987A      0.882242   988A      0.882997   989A      0.883368  
     990A      0.887442   991A      0.887957   992A      0.888182  
     993A      0.893552   994A      0.894734   995A      0.896633  
     996A      0.897815   997A      0.899021   998A      0.899971  
     999A      0.900278  1000A      0.902088  1001A      0.902694  
    1002A      0.902981  1003A      0.905207  1004A      0.906097  
    1005A      0.906341  1006A      0.906498  1007A      0.907086  
    1008A      0.914651  1009A      0.915280  1010A      0.916580  
    1011A      0.917831  1012A      0.917970  1013A      0.920288  
    1014A      0.923233  1015A      0.930443  1016A      0.931861  
    1017A      0.932153  1018A      0.935839  1019A      0.942591  
    1020A      0.942943  1021A      0.943070  1022A      0.943503  
    1023A      0.949244  1024A      0.949839  1025A      0.951736  
    1026A      0.953393  1027A      0.954616  1028A      0.954812  
    1029A      0.955104  1030A      0.957870  1031A      0.960669  
    1032A      0.963098  1033A      0.965012  1034A      0.965108  
    1035A      0.967869  1036A      0.969507  1037A      0.969676  
    1038A      0.969917  1039A      0.972111  1040A      0.973893  
    1041A      0.979059  1042A      0.979734  1043A      0.980683  
    1044A      0.982589  1045A      0.984219  1046A      0.985445  
    1047A      0.985927  1048A      0.987598  1049A      0.990474  
    1050A      0.994020  1051A      0.994526  1052A      0.995326  
    1053A      0.995838  1054A      0.996386  1055A      0.997291  
    1056A      0.998268  1057A      0.998546  1058A      1.001183  
    1059A      1.001659  1060A      1.001895  1061A      1.002564  
    1062A      1.003056  1063A      1.009602  1064A      1.010046  
    1065A      1.010385  1066A      1.012967  1067A      1.014151  
    1068A      1.014954  1069A      1.016296  1070A      1.016465  
    1071A      1.016608  1072A      1.017418  1073A      1.018583  
    1074A      1.018779  1075A      1.019277  1076A      1.019916  
    1077A      1.020286  1078A      1.021165  1079A      1.021748  
    1080A      1.022357  1081A      1.022878  1082A      1.024213  
    1083A      1.025061  1084A      1.025378  1085A      1.026186  
    1086A      1.026623  1087A      1.026865  1088A      1.027504  
    1089A      1.028123  1090A      1.029507  1091A      1.029976  
    1092A      1.030824  1093A      1.031321  1094A      1.031649  
    1095A      1.032286  1096A      1.033431  1097A      1.034688  
    1098A      1.037494  1099A      1.037996  1100A      1.038785  
    1101A      1.039150  1102A      1.039878  1103A      1.040188  
    1104A      1.044576  1105A      1.045652  1106A      1.046162  
    1107A      1.046496  1108A      1.047683  1109A      1.049237  
    1110A      1.049707  1111A      1.051248  1112A      1.051588  
    1113A      1.052192  1114A      1.054961  1115A      1.056897  
    1116A      1.059165  1117A      1.060716  1118A      1.061401  
    1119A      1.068008  1120A      1.068988  1121A      1.069280  
    1122A      1.070383  1123A      1.076699  1124A      1.077009  
    1125A      1.078619  1126A      1.079737  1127A      1.081214  
    1128A      1.082257  1129A      1.082813  1130A      1.082946  
    1131A      1.086179  1132A      1.086428  1133A      1.087640  
    1134A      1.091696  1135A      1.092156  1136A      1.093960  
    1137A      1.094833  1138A      1.095903  1139A      1.098321  
    1140A      1.099587  1141A      1.100123  1142A      1.102054  
    1143A      1.105836  1144A      1.105857  1145A      1.108162  
    1146A      1.111442  1147A      1.111901  1148A      1.116348  
    1149A      1.117888  1150A      1.118177  1151A      1.119004  
    1152A      1.124459  1153A      1.124749  1154A      1.129452  
    1155A      1.132718  1156A      1.134697  1157A      1.135395  
    1158A      1.137038  1159A      1.140012  1160A      1.140534  
    1161A      1.141614  1162A      1.141821  1163A      1.146983  
    1164A      1.150760  1165A      1.151065  1166A      1.151150  
    1167A      1.153731  1168A      1.153927  1169A      1.154174  
    1170A      1.156442  1171A      1.159761  1172A      1.161785  
    1173A      1.164017  1174A      1.165077  1175A      1.166949  
    1176A      1.167444  1177A      1.167794  1178A      1.171810  
    1179A      1.173332  1180A      1.174088  1181A      1.176251  
    1182A      1.176958  1183A      1.182508  1184A      1.182862  
    1185A      1.196121  1186A      1.196344  1187A      1.197346  
    1188A      1.201154  1189A      1.201943  1190A      1.204342  
    1191A      1.209770  1192A      1.210893  1193A      1.211187  
    1194A      1.213134  1195A      1.218721  1196A      1.219619  
    1197A      1.220231  1198A      1.220884  1199A      1.226900  
    1200A      1.234466  1201A      1.234566  1202A      1.238803  
    1203A      1.239744  1204A      1.239793  1205A      1.243682  
    1206A      1.243778  1207A      1.243923  1208A      1.245968  
    1209A      1.252032  1210A      1.252717  1211A      1.254800  
    1212A      1.255012  1213A      1.257080  1214A      1.261052  
    1215A      1.261534  1216A      1.262451  1217A      1.263051  
    1218A      1.268910  1219A      1.269075  1220A      1.269088  
    1221A      1.269658  1222A      1.271145  1223A      1.275723  
    1224A      1.276099  1225A      1.279881  1226A      1.280368  
    1227A      1.280556  1228A      1.284759  1229A      1.285174  
    1230A      1.288841  1231A      1.288989  1232A      1.291208  
    1233A      1.291968  1234A      1.296417  1235A      1.298207  
    1236A      1.304259  1237A      1.304662  1238A      1.304803  
    1239A      1.306568  1240A      1.307336  1241A      1.310923  
    1242A      1.311536  1243A      1.312537  1244A      1.313027  
    1245A      1.317125  1246A      1.318381  1247A      1.319889  
    1248A      1.321751  1249A      1.323103  1250A      1.324272  
    1251A      1.334642  1252A      1.335882  1253A      1.337243  
    1254A      1.339083  1255A      1.342931  1256A      1.344273  
    1257A      1.344356  1258A      1.346373  1259A      1.348077  
    1260A      1.355602  1261A      1.355853  1262A      1.356613  
    1263A      1.358521  1264A      1.358638  1265A      1.358886  
    1266A      1.361061  1267A      1.363515  1268A      1.364186  
    1269A      1.365894  1270A      1.369916  1271A      1.371495  
    1272A      1.373416  1273A      1.375514  1274A      1.375896  
    1275A      1.376205  1276A      1.377186  1277A      1.378151  
    1278A      1.380344  1279A      1.383758  1280A      1.385204  
    1281A      1.385743  1282A      1.386551  1283A      1.388570  
    1284A      1.389158  1285A      1.392747  1286A      1.395678  
    1287A      1.396056  1288A      1.398152  1289A      1.398940  
    1290A      1.400074  1291A      1.400935  1292A      1.405419  
    1293A      1.411600  1294A      1.414182  1295A      1.417262  
    1296A      1.418567  1297A      1.418863  1298A      1.420105  
    1299A      1.421016  1300A      1.426981  1301A      1.432775  
    1302A      1.432920  1303A      1.433912  1304A      1.439547  
    1305A      1.441715  1306A      1.444626  1307A      1.444873  
    1308A      1.449454  1309A      1.452471  1310A      1.454085  
    1311A      1.454312  1312A      1.465348  1313A      1.465878  
    1314A      1.482827  1315A      1.486961  1316A      1.488835  
    1317A      1.489260  1318A      1.491761  1319A      1.494792  
    1320A      1.501360  1321A      1.501432  1322A      1.517948  
    1323A      1.531417  1324A      1.533536  1325A      1.540932  
    1326A      1.542384  1327A      1.546031  1328A      1.549563  
    1329A      1.551691  1330A      1.552688  1331A      1.553499  
    1332A      1.554951  1333A      1.555761  1334A      1.558643  
    1335A      1.559017  1336A      1.559575  1337A      1.562262  
    1338A      1.562669  1339A      1.562984  1340A      1.563753  
    1341A      1.564629  1342A      1.567579  1343A      1.568667  
    1344A      1.569368  1345A      1.571631  1346A      1.574047  
    1347A      1.574624  1348A      1.575243  1349A      1.577834  
    1350A      1.578629  1351A      1.581035  1352A      1.583016  
    1353A      1.583753  1354A      1.584726  1355A      1.585442  
    1356A      1.585991  1357A      1.586340  1358A      1.586756  
    1359A      1.587757  1360A      1.589237  1361A      1.589459  
    1362A      1.591309  1363A      1.593322  1364A      1.599887  
    1365A      1.600464  1366A      1.600566  1367A      1.604607  
    1368A      1.604845  1369A      1.605196  1370A      1.612378  
    1371A      1.612974  1372A      1.615836  1373A      1.615991  
    1374A      1.616403  1375A      1.617196  1376A      1.617260  
    1377A      1.618952  1378A      1.623789  1379A      1.625034  
    1380A      1.625373  1381A      1.626115  1382A      1.626719  
    1383A      1.635681  1384A      1.636148  1385A      1.637352  
    1386A      1.641115  1387A      1.643969  1388A      1.644248  
    1389A      1.644834  1390A      1.645960  1391A      1.647941  
    1392A      1.657688  1393A      1.657898  1394A      1.658287  
    1395A      1.662775  1396A      1.664454  1397A      1.664519  
    1398A      1.667426  1399A      1.669112  1400A      1.670216  
    1401A      1.670286  1402A      1.672701  1403A      1.673693  
    1404A      1.680947  1405A      1.685632  1406A      1.685977  
    1407A      1.687594  1408A      1.694275  1409A      1.696122  
    1410A      1.696197  1411A      1.698420  1412A      1.698859  
    1413A      1.699635  1414A      1.702627  1415A      1.711856  
    1416A      1.713685  1417A      1.716694  1418A      1.728274  
    1419A      1.735309  1420A      1.736088  1421A      1.736661  
    1422A      1.746458  1423A      1.750207  1424A      1.750416  
    1425A      1.757395  1426A      1.762306  1427A      1.765250  
    1428A      1.768694  1429A      1.770262  1430A      1.772187  
    1431A      1.775042  1432A      1.775800  1433A      1.776229  
    1434A      1.776592  1435A      1.778350  1436A      1.779558  
    1437A      1.781213  1438A      1.781712  1439A      1.784827  
    1440A      1.784986  1441A      1.785170  1442A      1.786009  
    1443A      1.791812  1444A      1.792913  1445A      1.794147  
    1446A      1.805297  1447A      1.805453  1448A      1.808583  
    1449A      1.808867  1450A      1.811104  1451A      1.811316  
    1452A      1.813907  1453A      1.814007  1454A      1.818165  
    1455A      1.819161  1456A      1.821124  1457A      1.822025  
    1458A      1.823239  1459A      1.824169  1460A      1.828192  
    1461A      1.830228  1462A      1.830972  1463A      1.831595  
    1464A      1.832105  1465A      1.832609  1466A      1.832872  
    1467A      1.833191  1468A      1.833831  1469A      1.834573  
    1470A      1.837461  1471A      1.837985  1472A      1.851477  
    1473A      1.851887  1474A      1.854161  1475A      1.854476  
    1476A      1.858616  1477A      1.859782  1478A      1.863484  
    1479A      1.863933  1480A      1.865063  1481A      1.868947  
    1482A      1.870106  1483A      1.870460  1484A      1.872622  
    1485A      1.873069  1486A      1.873911  1487A      1.875547  
    1488A      1.879874  1489A      1.884784  1490A      1.885490  
    1491A      1.886127  1492A      1.887329  1493A      1.887813  
    1494A      1.887970  1495A      1.889343  1496A      1.890481  
    1497A      1.892217  1498A      1.893039  1499A      1.894501  
    1500A      1.899510  1501A      1.901471  1502A      1.903094  
    1503A      1.906751  1504A      1.907506  1505A      1.908737  
    1506A      1.909170  1507A      1.909504  1508A      1.909522  
    1509A      1.911696  1510A      1.915478  1511A      1.916701  
    1512A      1.918433  1513A      1.919569  1514A      1.920737  
    1515A      1.921740  1516A      1.928704  1517A      1.930026  
    1518A      1.933240  1519A      1.937944  1520A      1.940249  
    1521A      1.940535  1522A      1.941944  1523A      1.942315  
    1524A      1.943486  1525A      1.955219  1526A      1.955438  
    1527A      1.958518  1528A      1.959876  1529A      1.961046  
    1530A      1.961333  1531A      1.964329  1532A      1.964704  
    1533A      1.965398  1534A      1.966072  1535A      1.967557  
    1536A      1.967997  1537A      1.968400  1538A      1.969386  
    1539A      1.972619  1540A      1.975921  1541A      1.978866  
    1542A      1.980501  1543A      1.981251  1544A      1.982398  
    1545A      1.983637  1546A      1.987814  1547A      1.990192  
    1548A      1.990638  1549A      1.995304  1550A      1.997858  
    1551A      2.000674  1552A      2.001535  1553A      2.004236  
    1554A      2.004422  1555A      2.006722  1556A      2.007387  
    1557A      2.008298  1558A      2.008657  1559A      2.014609  
    1560A      2.016764  1561A      2.017565  1562A      2.018776  
    1563A      2.020624  1564A      2.024084  1565A      2.026211  
    1566A      2.028225  1567A      2.028640  1568A      2.029171  
    1569A      2.030167  1570A      2.031116  1571A      2.031404  
    1572A      2.032148  1573A      2.034757  1574A      2.036436  
    1575A      2.037223  1576A      2.038063  1577A      2.039198  
    1578A      2.040013  1579A      2.040500  1580A      2.042063  
    1581A      2.042655  1582A      2.045236  1583A      2.045378  
    1584A      2.046177  1585A      2.046703  1586A      2.049669  
    1587A      2.049723  1588A      2.050985  1589A      2.053970  
    1590A      2.056061  1591A      2.058559  1592A      2.059912  
    1593A      2.060302  1594A      2.060564  1595A      2.061388  
    1596A      2.063064  1597A      2.065301  1598A      2.066352  
    1599A      2.068030  1600A      2.074024  1601A      2.074573  
    1602A      2.075046  1603A      2.075809  1604A      2.075880  
    1605A      2.076554  1606A      2.076949  1607A      2.078825  
    1608A      2.081477  1609A      2.083322  1610A      2.084277  
    1611A      2.084818  1612A      2.088034  1613A      2.090361  
    1614A      2.090624  1615A      2.092422  1616A      2.093515  
    1617A      2.093724  1618A      2.101399  1619A      2.102644  
    1620A      2.103054  1621A      2.104921  1622A      2.105696  
    1623A      2.106618  1624A      2.107480  1625A      2.107890  
    1626A      2.108393  1627A      2.112098  1628A      2.112409  
    1629A      2.119824  1630A      2.120144  1631A      2.128121  
    1632A      2.129631  1633A      2.129672  1634A      2.130949  
    1635A      2.136434  1636A      2.136856  1637A      2.138328  
    1638A      2.138432  1639A      2.140512  1640A      2.141853  
    1641A      2.144189  1642A      2.145377  1643A      2.147065  
    1644A      2.147637  1645A      2.149291  1646A      2.149746  
    1647A      2.150752  1648A      2.151446  1649A      2.153294  
    1650A      2.154546  1651A      2.155761  1652A      2.157915  
    1653A      2.162273  1654A      2.162386  1655A      2.167877  
    1656A      2.171539  1657A      2.171865  1658A      2.172203  
    1659A      2.172291  1660A      2.172873  1661A      2.173945  
    1662A      2.177266  1663A      2.181098  1664A      2.182575  
    1665A      2.183168  1666A      2.185077  1667A      2.186395  
    1668A      2.186550  1669A      2.190353  1670A      2.194621  
    1671A      2.195875  1672A      2.197366  1673A      2.198135  
    1674A      2.210663  1675A      2.212187  1676A      2.212992  
    1677A      2.213827  1678A      2.214910  1679A      2.216074  
    1680A      2.220109  1681A      2.222999  1682A      2.231736  
    1683A      2.232940  1684A      2.237221  1685A      2.239531  
    1686A      2.240581  1687A      2.244212  1688A      2.245839  
    1689A      2.252671  1690A      2.253115  1691A      2.257548  
    1692A      2.261054  1693A      2.262118  1694A      2.271859  
    1695A      2.273614  1696A      2.273654  1697A      2.275485  
    1698A      2.277544  1699A      2.279364  1700A      2.279752  
    1701A      2.280598  1702A      2.281868  1703A      2.283063  
    1704A      2.286957  1705A      2.289886  1706A      2.290483  
    1707A      2.290776  1708A      2.292961  1709A      2.293634  
    1710A      2.294305  1711A      2.296401  1712A      2.296830  
    1713A      2.310006  1714A      2.314423  1715A      2.318865  
    1716A      2.319406  1717A      2.332686  1718A      2.334203  
    1719A      2.336298  1720A      2.337953  1721A      2.339409  
    1722A      2.340345  1723A      2.344433  1724A      2.345956  
    1725A      2.366922  1726A      2.367959  1727A      2.371558  
    1728A      2.376137  1729A      2.379630  1730A      2.390007  
    1731A      2.391781  1732A      2.399815  1733A      2.401008  
    1734A      2.412940  1735A      2.413049  1736A      2.416421  
    1737A      2.416606  1738A      2.420756  1739A      2.421056  
    1740A      2.440410  1741A      2.440864  1742A      2.442363  
    1743A      2.450879  1744A      2.451288  1745A      2.455773  
    1746A      2.456849  1747A      2.460647  1748A      2.465701  
    1749A      2.472132  1750A      2.487127  1751A      2.487416  
    1752A      2.488893  1753A      2.490888  1754A      2.491598  
    1755A      2.492802  1756A      2.496325  1757A      2.497327  
    1758A      2.498877  1759A      2.499941  1760A      2.503735  
    1761A      2.503941  1762A      2.511718  1763A      2.512586  
    1764A      2.519682  1765A      2.521669  1766A      2.530166  
    1767A      2.533958  1768A      2.534067  1769A      2.534534  
    1770A      2.535206  1771A      2.538875  1772A      2.539082  
    1773A      2.541872  1774A      2.544149  1775A      2.550346  
    1776A      2.550445  1777A      2.561603  1778A      2.561897  
    1779A      2.562127  1780A      2.562652  1781A      2.565693  
    1782A      2.566511  1783A      2.581001  1784A      2.585257  
    1785A      2.588871  1786A      2.589983  1787A      2.592109  
    1788A      2.593621  1789A      2.596250  1790A      2.597067  
    1791A      2.597487  1792A      2.602487  1793A      2.605125  
    1794A      2.605422  1795A      2.613176  1796A      2.613948  
    1797A      2.615675  1798A      2.617364  1799A      2.620072  
    1800A      2.620402  1801A      2.621080  1802A      2.626533  
    1803A      2.627345  1804A      2.632961  1805A      2.633762  
    1806A      2.635302  1807A      2.639409  1808A      2.639564  
    1809A      2.639902  1810A      2.640807  1811A      2.644229  
    1812A      2.645598  1813A      2.647616  1814A      2.652109  
    1815A      2.669998  1816A      2.673031  1817A      2.679318  
    1818A      2.679648  1819A      2.680219  1820A      2.681039  
    1821A      2.681588  1822A      2.684956  1823A      2.690306  
    1824A      2.699254  1825A      2.701349  1826A      2.707142  
    1827A      2.707961  1828A      2.718641  1829A      2.719223  
    1830A      2.722705  1831A      2.727463  1832A      2.728109  
    1833A      2.746298  1834A      2.747242  1835A      2.748652  
    1836A      2.748938  1837A      2.749632  1838A      2.749754  
    1839A      2.756379  1840A      2.757642  1841A      2.759025  
    1842A      2.762330  1843A      2.762655  1844A      2.764102  
    1845A      2.764744  1846A      2.775039  1847A      2.775318  
    1848A      2.788055  1849A      2.788370  1850A      2.789754  
    1851A      2.789950  1852A      2.793724  1853A      2.798010  
    1854A      2.808108  1855A      2.812683  1856A      2.813103  
    1857A      2.818698  1858A      2.819833  1859A      2.822764  
    1860A      2.842233  1861A      2.843147  1862A      2.859883  
    1863A      2.867465  1864A      2.867685  1865A      2.877296  
    1866A      2.879491  1867A      2.884261  1868A      2.884445  
    1869A      2.912085  1870A      2.914215  1871A      2.914875  
    1872A      2.925383  1873A      2.933115  1874A      2.941098  
    1875A      2.941882  1876A      2.977434  1877A      2.978142  
    1878A      2.984809  1879A      2.987398  1880A      2.988643  
    1881A      2.995338  1882A      2.996064  1883A      2.997704  
    1884A      3.005420  1885A      3.005617  1886A      3.014286  
    1887A      3.021204  1888A      3.055852  1889A      3.058272  
    1890A      3.062459  1891A      3.062713  1892A      3.071071  
    1893A      3.073878  1894A      3.075201  1895A      3.076249  
    1896A      3.081033  1897A      3.082790  1898A      3.091332  
    1899A      3.092559  1900A      3.096708  1901A      3.097395  
    1902A      3.098755  1903A      3.099620  1904A      3.103260  
    1905A      3.112117  1906A      3.114772  1907A      3.122840  
    1908A      3.124522  1909A      3.124958  1910A      3.142689  
    1911A      3.143320  1912A      3.170029  1913A      3.201605  
    1914A      3.208653  1915A      3.209184  1916A      3.209709  
    1917A      3.210627  1918A      3.213019  1919A      3.216965  
    1920A      3.220056  1921A      3.223463  1922A      3.224118  
    1923A      3.241621  1924A      3.243444  1925A      3.244187  
    1926A      3.251446  1927A      3.308681  1928A      3.309851  
    1929A      3.317336  1930A      3.362900  1931A      3.376863  
    1932A      3.378803  1933A      3.381920  1934A      3.392210  
    1935A      3.395767  1936A      3.407540  1937A      3.411691  
    1938A      3.412375  1939A      3.418143  1940A      3.421194  
    1941A      3.428410  1942A      3.431711  1943A      3.440461  
    1944A      3.450255  1945A      3.456280  1946A      3.485695  
    1947A      3.521736  1948A      3.523422  1949A      3.530441  
    1950A      3.538299  1951A      3.540004  1952A      3.585315  
    1953A      3.587306  1954A      3.612393  1955A      3.614825  
    1956A      3.652540  1957A      3.694389  1958A      3.697716  
    1959A      3.698485  1960A      3.709751  1961A      3.725838  
    1962A      3.727315  1963A      3.790563  1964A      3.791513  
    1965A      3.819891  1966A      3.822887  1967A      3.852580  
    1968A      3.860601  1969A      3.884279  1970A      3.886121  
    1971A      3.896314  1972A      3.897468  1973A      3.905896  
    1974A      3.910636  1975A      3.917799  1976A      3.971677  
    1977A      3.974219  1978A      4.017162  1979A      4.174209  
    1980A      4.246506  1981A      4.338504  

    Final Occupation by Irrep:
              A 
    DOCC [   326 ]
    NA   [   326 ]
    NB   [   326 ]

  @DF-RHF Final Energy: -3953.64563614860072

   => Energetics <=

    Nuclear Repulsion Energy =          17719.0748222236543370
    One-Electron Energy =              -40650.2944201532081934
    Two-Electron Energy =               18977.5739617809522315
    Total Energy =                      -3953.6456361486016249

Computation Completed


Properties will be evaluated at   0.000000,   0.000000,   0.000000 [a0]

Properties computed using the SCF density matrix


 Multipole Moments:

 ------------------------------------------------------------------------------------
     Multipole            Electronic (a.u.)      Nuclear  (a.u.)        Total (a.u.)
 ------------------------------------------------------------------------------------

 L = 1.  Multiply by 2.5417464519 to convert [e a0] to [Debye]
 Dipole X            :          0.0017131            0.0004804            0.0021935
 Dipole Y            :         -1.5386064            1.8866171            0.3480107
 Dipole Z            :        -31.2487478           42.4558451           11.2070974
 Magnitude           :                                                   11.2124996

 ------------------------------------------------------------------------------------

*** tstop() called on n2cn0683 at Sat Jan 27 00:25:21 2024
Module time:
	user time   =   30294.63 seconds =     504.91 minutes
	system time =    2674.58 seconds =      44.58 minutes
	total time  =       3880 seconds =      64.67 minutes
Total time:
	user time   =   30294.63 seconds =     504.91 minutes
	system time =    2674.58 seconds =      44.58 minutes
	total time  =       3880 seconds =      64.67 minutes

  //>>>>>>>>>>>>>>>>>>>>>>>>>>>>>>>>>>>//
  //            Monomer A HF           //
  //<<<<<<<<<<<<<<<<<<<<<<<<<<<<<<<<<<<//

   => Libint2 <=

    Primary   basis highest AM E, G, H:  5, 4, 3
    Auxiliary basis highest AM E, G, H:  6, 5, 4
    Onebody   basis highest AM E, G, H:  6, 5, 4
    Solid Harmonics ordering:            gaussian

*** tstart() called on n2cn0683
*** at Sat Jan 27 00:25:22 2024

   => Loading Basis Set <=

    Name: JUN-CC-PVDZ
    Role: ORBITAL
    Keyword: BASIS
    atoms 1-2, 4-5, 10, 17-34, 41-53, 56-70, 73-89, 92-104, 109-119, 122-130 entry C          line   164 file /opt/software/pc2/EB-SW/software/PSI4/1.9-foss-2022a/share/psi4/basis/jun-cc-pvdz.gbs 
    atoms 3, 6                                                               entry N          line   198 file /opt/software/pc2/EB-SW/software/PSI4/1.9-foss-2022a/share/psi4/basis/jun-cc-pvdz.gbs 
    atoms 7-9, 11-16, 35-40, 54-55, 71-72, 90-91, 105-108, 120-121, 131-136  entry H          line    36 file /opt/software/pc2/EB-SW/software/PSI4/1.9-foss-2022a/share/psi4/basis/jun-cc-pvdz.gbs 


         ---------------------------------------------------------
                                   SCF
               by Justin Turney, Rob Parrish, Andy Simmonett
                          and Daniel G. A. Smith
                              RHF Reference
                       16 Threads,  61035 MiB Core
         ---------------------------------------------------------

  ==> Geometry <==

    Molecular point group: c1
    Full point group: C1

    Geometry (in Angstrom), charge = 1, multiplicity = 1:

       Center              X                  Y                   Z               Mass       
    ------------   -----------------  -----------------  -----------------  -----------------
         C            0.680062820275    -1.215917226251     6.474342959858    12.000000000000
         C           -0.680508179725    -1.215533226251     6.472314959858    12.000000000000
         N           -1.085639179725     0.102790773749     6.471316959858    14.003074004430
[...]
    1579A      2.162323  1580A      2.162882  1581A      2.170210  
    1582A      2.171629  1583A      2.172425  1584A      2.179702  
    1585A      2.180751  1586A      2.181349  1587A      2.182295  
    1588A      2.188087  1589A      2.188857  1590A      2.189780  
    1591A      2.191468  1592A      2.192328  1593A      2.194809  
    1594A      2.196556  1595A      2.196802  1596A      2.198532  
    1597A      2.200513  1598A      2.200712  1599A      2.201186  
    1600A      2.201293  1601A      2.203187  1602A      2.203496  
    1603A      2.205445  1604A      2.209068  1605A      2.209901  
    1606A      2.213793  1607A      2.214310  1608A      2.220146  
    1609A      2.221804  1610A      2.222658  1611A      2.223123  
    1612A      2.224568  1613A      2.224867  1614A      2.225238  
    1615A      2.228815  1616A      2.232043  1617A      2.232316  
    1618A      2.233356  1619A      2.238731  1620A      2.238943  
    1621A      2.239601  1622A      2.241364  1623A      2.247502  
    1624A      2.247808  1625A      2.248338  1626A      2.248941  
    1627A      2.260349  1628A      2.260555  1629A      2.262065  
    1630A      2.263430  1631A      2.264903  1632A      2.266522  
    1633A      2.269529  1634A      2.275318  1635A      2.276675  
    1636A      2.282767  1637A      2.283953  1638A      2.284331  
    1639A      2.290297  1640A      2.291010  1641A      2.296338  
    1642A      2.296775  1643A      2.303685  1644A      2.303772  
    1645A      2.304174  1646A      2.309077  1647A      2.315105  
    1648A      2.320160  1649A      2.324652  1650A      2.324911  
    1651A      2.325203  1652A      2.327182  1653A      2.329451  
    1654A      2.330549  1655A      2.331103  1656A      2.332970  
    1657A      2.334330  1658A      2.335109  1659A      2.338523  
    1660A      2.340113  1661A      2.341531  1662A      2.342187  
    1663A      2.342356  1664A      2.344864  1665A      2.345799  
    1666A      2.346292  1667A      2.348392  1668A      2.349079  
    1669A      2.349407  1670A      2.368086  1671A      2.372400  
    1672A      2.372937  1673A      2.383591  1674A      2.387976  
    1675A      2.389769  1676A      2.390464  1677A      2.391883  
    1678A      2.393164  1679A      2.397049  1680A      2.418317  
    1681A      2.419514  1682A      2.423606  1683A      2.427506  
    1684A      2.431955  1685A      2.441697  1686A      2.443213  
    1687A      2.449693  1688A      2.452167  1689A      2.453057  
    1690A      2.453206  1691A      2.463152  1692A      2.464308  
    1693A      2.464453  1694A      2.467736  1695A      2.467994  
    1696A      2.471900  1697A      2.472158  1698A      2.476325  
    1699A      2.483998  1700A      2.491063  1701A      2.491479  
    1702A      2.494644  1703A      2.501689  1704A      2.506403  
    1705A      2.507369  1706A      2.511307  1707A      2.511742  
    1708A      2.516357  1709A      2.539093  1710A      2.539222  
    1711A      2.540213  1712A      2.542097  1713A      2.542858  
    1714A      2.545053  1715A      2.547606  1716A      2.548588  
    1717A      2.549221  1718A      2.551191  1719A      2.556517  
    1720A      2.556675  1721A      2.564199  1722A      2.571098  
    1723A      2.571624  1724A      2.579713  1725A      2.580375  
    1726A      2.583757  1727A      2.584291  1728A      2.585104  
    1729A      2.586236  1730A      2.588602  1731A      2.588752  
    1732A      2.593194  1733A      2.593525  1734A      2.601325  
    1735A      2.601471  1736A      2.612846  1737A      2.612988  
    1738A      2.613235  1739A      2.613804  1740A      2.616855  
    1741A      2.617683  1742A      2.632670  1743A      2.638799  
    1744A      2.640554  1745A      2.641487  1746A      2.643585  
    1747A      2.645397  1748A      2.647183  1749A      2.648638  
    1750A      2.649161  1751A      2.650111  1752A      2.652805  
    1753A      2.655606  1754A      2.656159  1755A      2.656601  
    1756A      2.665929  1757A      2.666062  1758A      2.667413  
    1759A      2.667750  1760A      2.670417  1761A      2.670591  
    1762A      2.673579  1763A      2.676873  1764A      2.677624  
    1765A      2.682804  1766A      2.684451  1767A      2.685797  
    1768A      2.687039  1769A      2.691231  1770A      2.691267  
    1771A      2.691624  1772A      2.692392  1773A      2.696061  
    1774A      2.697305  1775A      2.704150  1776A      2.720713  
    1777A      2.730689  1778A      2.730817  1779A      2.731031  
    1780A      2.731436  1781A      2.731993  1782A      2.741056  
    1783A      2.752653  1784A      2.753478  1785A      2.760278  
    1786A      2.760965  1787A      2.772447  1788A      2.773995  
    1789A      2.775868  1790A      2.779729  1791A      2.780559  
    1792A      2.799152  1793A      2.799849  1794A      2.801697  
    1795A      2.802175  1796A      2.802203  1797A      2.809428  
    1798A      2.812035  1799A      2.814899  1800A      2.815125  
    1801A      2.815978  1802A      2.816162  1803A      2.817892  
    1804A      2.828040  1805A      2.828312  1806A      2.837426  
    1807A      2.840111  1808A      2.841560  1809A      2.841824  
    1810A      2.842956  1811A      2.845626  1812A      2.860568  
    1813A      2.864961  1814A      2.865434  1815A      2.869865  
    1816A      2.871368  1817A      2.874542  1818A      2.878448  
    1819A      2.895791  1820A      2.895947  1821A      2.896774  
    1822A      2.913539  1823A      2.917192  1824A      2.917753  
    1825A      2.918235  1826A      2.926878  1827A      2.927407  
    1828A      2.929688  1829A      2.934993  1830A      2.935101  
    1831A      2.950946  1832A      2.963197  1833A      2.964799  
    1834A      2.965397  1835A      2.975856  1836A      2.977071  
    1837A      2.992217  1838A      2.992854  1839A      3.000483  
    1840A      3.019995  1841A      3.029390  1842A      3.030051  
    1843A      3.035408  1844A      3.038739  1845A      3.042539  
    1846A      3.046859  1847A      3.047560  1848A      3.048113  
    1849A      3.057556  1850A      3.057696  1851A      3.063515  
    1852A      3.072855  1853A      3.108536  1854A      3.112851  
    1855A      3.113177  1856A      3.122483  1857A      3.127142  
    1858A      3.127726  1859A      3.132509  1860A      3.134329  
    1861A      3.142062  1862A      3.142987  1863A      3.147598  
    1864A      3.148714  1865A      3.149485  1866A      3.149905  
    1867A      3.150626  1868A      3.153543  1869A      3.162175  
    1870A      3.167715  1871A      3.173154  1872A      3.174842  
    1873A      3.175325  1874A      3.193135  1875A      3.193754  
    1876A      3.220102  1877A      3.252801  1878A      3.259426  
    1879A      3.260919  1880A      3.261498  1881A      3.262012  
    1882A      3.264416  1883A      3.268196  1884A      3.271183  
    1885A      3.274630  1886A      3.275434  1887A      3.289125  
    1888A      3.292867  1889A      3.295427  1890A      3.296255  
    1891A      3.302716  1892A      3.306769  1893A      3.320489  
    1894A      3.361259  1895A      3.362398  1896A      3.370133  
    1897A      3.396500  1898A      3.415700  1899A      3.429913  
    1900A      3.432105  1901A      3.436928  1902A      3.446094  
    1903A      3.449679  1904A      3.461247  1905A      3.464616  
    1906A      3.465435  1907A      3.470990  1908A      3.474095  
    1909A      3.481288  1910A      3.485330  1911A      3.493671  
    1912A      3.509101  1913A      3.526095  1914A      3.539018  
    1915A      3.573551  1916A      3.574606  1917A      3.576071  
    1918A      3.582986  1919A      3.589962  1920A      3.638011  
    1921A      3.640131  1922A      3.645875  1923A      3.664713  
    1924A      3.666906  1925A      3.705044  1926A      3.747671  
    1927A      3.749202  1928A      3.750496  1929A      3.758859  
    1930A      3.763163  1931A      3.778632  1932A      3.779267  
    1933A      3.817698  1934A      3.841935  1935A      3.843278  
    1936A      3.868965  1937A      3.871447  1938A      3.874585  
    1939A      3.904572  1940A      3.913000  1941A      3.937736  
    1942A      3.939790  1943A      3.948198  1944A      3.949225  
    1945A      3.958416  1946A      3.959509  1947A      3.964515  
    1948A      3.970985  1949A      4.024628  1950A      4.027415  
    1951A      4.070995  1952A      4.209148  1953A      4.210257  
    1954A      4.228996  1955A      4.301546  1956A      4.352493  
    1957A      4.370578  1958A      4.393550  1959A      4.484935  
    1960A      4.736416  1961A      4.776736  1962A      4.831048  
    1963A      4.848955  1964A      4.938465  1965A      5.050357  
    1966A      5.058226  1967A      5.067056  1968A      5.112126  
    1969A      5.126758  1970A      5.391535  1971A      5.423185  
    1972A      5.735318  1973A      5.751745  1974A      6.068164  
    1975A     18.202039  1976A     18.454310  1977A     18.472334  
    1978A     18.559915  1979A     18.834575  1980A     25.342890  
    1981A     25.376764  

    Final Occupation by Irrep:
              A 
    DOCC [   300 ]
    NA   [   300 ]
    NB   [   300 ]

  @DF-RHF Final Energy: -3650.33768027286123

   => Energetics <=

    Nuclear Repulsion Energy =          15611.4211649754324753
    One-Electron Energy =              -36072.0781590085607604
    Two-Electron Energy =               16810.3193137602684146
    Total Energy =                      -3650.3376802728598705

Computation Completed


Properties will be evaluated at   0.000000,   0.000000,   0.000000 [a0]

Properties computed using the SCF density matrix


 Multipole Moments:

 ------------------------------------------------------------------------------------
     Multipole            Electronic (a.u.)      Nuclear  (a.u.)        Total (a.u.)
 ------------------------------------------------------------------------------------

 L = 1.  Multiply by 2.5417464519 to convert [e a0] to [Debye]
 Dipole X            :         -0.0009094            0.0002112           -0.0006982
 Dipole Y            :          0.0041720           -0.0044281           -0.0002561
 Dipole Z            :        605.1200377         -605.1236197           -0.0035819
 Magnitude           :                                                    0.0036583

 ------------------------------------------------------------------------------------

*** tstop() called on n2cn0683 at Sat Jan 27 01:46:38 2024
Module time:
	user time   =   19836.55 seconds =     330.61 minutes
	system time =    1656.09 seconds =      27.60 minutes
	total time  =       3040 seconds =      50.67 minutes
Total time:
	user time   =   56481.41 seconds =     941.36 minutes
	system time =    4789.07 seconds =      79.82 minutes
	total time  =       8757 seconds =     145.95 minutes
  Constructing Basis Sets for SAPT...

   => Loading Basis Set <=

    Name: (JUN-CC-PVDZ AUX)
    Role: RIFIT
    Keyword: DF_BASIS_SAPT
    atoms 1-2, 4-5, 10, 17-34, 41-53, 56-70, 73-89, 92-104, 109-119, 122-130 entry C          line   100 file /opt/software/pc2/EB-SW/software/PSI4/1.9-foss-2022a/share/psi4/basis/jun-cc-pvdz-ri.gbs 
    atoms 3, 6                                                               entry N          line   144 file /opt/software/pc2/EB-SW/software/PSI4/1.9-foss-2022a/share/psi4/basis/jun-cc-pvdz-ri.gbs 
    atoms 7-9, 11-16, 35-40, 54-55, 71-72, 90-91, 105-108, 120-121, 131-136  entry H          line    30 file /opt/software/pc2/EB-SW/software/PSI4/1.9-foss-2022a/share/psi4/basis/jun-cc-pvdz-ri.gbs 

   => Loading Basis Set <=

    Name: (JUN-CC-PVDZ AUX)
    Role: JKFIT
    Keyword: DF_BASIS_ELST
    atoms 1-2, 4-5, 10, 17-34, 41-53, 56-70, 73-89, 92-104, 109-119, 122-130 entry C          line   146 file /opt/software/pc2/EB-SW/software/PSI4/1.9-foss-2022a/share/psi4/basis/jun-cc-pvdz-jkfit.gbs 
    atoms 3, 6                                                               entry N          line   202 file /opt/software/pc2/EB-SW/software/PSI4/1.9-foss-2022a/share/psi4/basis/jun-cc-pvdz-jkfit.gbs 
    atoms 7-9, 11-16, 35-40, 54-55, 71-72, 90-91, 105-108, 120-121, 131-136  entry H          line    70 file /opt/software/pc2/EB-SW/software/PSI4/1.9-foss-2022a/share/psi4/basis/jun-cc-pvdz-jkfit.gbs 


  //>>>>>>>>>>>>>>>>>>>>>>>>>>>>>>>>>>>//
  //               SSAPT0              //
  //<<<<<<<<<<<<<<<<<<<<<<<<<<<<<<<<<<<//


*** tstart() called on n2cn0683
*** at Sat Jan 27 01:46:40 2024

        SAPT0  
    Ed Hohenstein
     6 June 2009

      Orbital Information
  --------------------------
    NSO        =      2019
    NMO        =      1981
    NRI        =      7157
    NRI (Elst) =      8896
    NOCC A     =        26
    NOCC B     =       300
    FOCC A     =         7
    FOCC B     =        96
    NVIR A     =      1955
    NVIR B     =      1681

    Elst10,r            =    -0.008026133864 [Eh]
    Exch10              =    -0.000000341135 [Eh]
    Exch10 (S^2)        =    -0.000000341135 [Eh]

    Iter     Energy [mEh]          dE [mEh]         Residual      Time [s]
       1      -0.01125727       0.011257275       0.917479722           197
       2      -0.01024852      -0.001008752       0.189570935           417
       3      -0.01106945       0.000820924       0.034524791           635
       4      -0.01106487      -0.000004573       0.013601336           817
       5      -0.01104918      -0.000015688       0.002821791          1007
       6      -0.01104966       0.000000477       0.001418847          1223
       7      -0.01105029       0.000000625       0.000606208          1430
       8      -0.01105027      -0.000000013       0.000232005          1628
       9      -0.01105020      -0.000000074       0.000074394          1871
      10      -0.01105019      -0.000000012       0.000016538          2040
      11      -0.01105019       0.000000007       0.000005729          2276
      12      -0.01105020       0.000000001       0.000001868          2473
      13      -0.01105020      -0.000000001       0.000000741          2652

    CHF Iterations converged


    Iter     Energy [mEh]          dE [mEh]         Residual      Time [s]
       1      -3.99278335       3.992783355      34.602019547           216
       2      -2.58512718      -1.407656180       3.974485286           437
       3      -2.57671182      -0.008415357       1.379075109           667
       4      -2.62402816       0.047316346       0.420436794           998
       5      -2.62991263       0.005884464       0.144150368          1259
       6      -2.62941216      -0.000500463       0.094590812          1509
       7      -2.62804113      -0.001371030       0.044735652          1749
       8      -2.62818850       0.000147365       0.027225217          2024
       9      -2.62855713       0.000368634       0.016579343          2282
      10      -2.62843933      -0.000117803       0.012326313          2556
      11      -2.62838288      -0.000056455       0.005223884          2835
      12      -2.62838915       0.000006270       0.002497118          3126
      13      -2.62840233       0.000013180       0.001094893          3417
      14      -2.62840550       0.000003177       0.000592890          3708
      15      -2.62840304      -0.000002466       0.000402142          4003
      16      -2.62840078      -0.000002256       0.000171569          4333
      17      -2.62840215       0.000001372       0.000063583          4615
      18      -2.62840233       0.000000176       0.000027186          4916
      19      -2.62840219      -0.000000137       0.000017416          5204
      20      -2.62840212      -0.000000069       0.000007936          5495
      21      -2.62840215       0.000000032       0.000003777          5789
      22      -2.62840217       0.000000013       0.000001586          6147
      23      -2.62840217      -0.000000003       0.000000557          6457

    CHF Iterations converged

    Ind20,r (A<-B)      =    -0.000011050195 [Eh]
    Ind20,r (B<-A)      =    -0.002628402165 [Eh]
    Ind20,r             =    -0.002639452360 [Eh]
    Exch-Ind20,r (A<-B) =     0.000000064506 [Eh]
    Exch-Ind20,r (B<-A) =     0.000000373181 [Eh]
    Exch-Ind20,r        =     0.000000437687 [Eh]
    Disp20              =    -0.001481153346 [Eh]
    Disp20 (SS)         =    -0.000740576673 [Eh]
    Disp20 (OS)         =    -0.000740576673 [Eh]
    Exch-Disp20         =     0.000000136623 [Eh]
    Exch-Disp20 (SS)    =     0.000000104141 [Eh]
    Exch-Disp20 (OS)    =     0.000000032482 [Eh]

    SAPT Results 
  --------------------------------------------------------------------------------------------------------
    Electrostatics                 -8.02613386 [mEh]      -5.03647504 [kcal/mol]     -21.07261156 [kJ/mol]
      Elst10,r                     -8.02613386 [mEh]      -5.03647504 [kcal/mol]     -21.07261156 [kJ/mol]

    Exchange                       -0.00034114 [mEh]      -0.00021407 [kcal/mol]      -0.00089565 [kJ/mol]
      Exch10                       -0.00034114 [mEh]      -0.00021407 [kcal/mol]      -0.00089565 [kJ/mol]
      Exch10(S^2)                  -0.00034114 [mEh]      -0.00021407 [kcal/mol]      -0.00089565 [kJ/mol]

    Induction                      -2.67235987 [mEh]      -1.67693114 [kcal/mol]      -7.01627987 [kJ/mol]
      Ind20,r                      -2.63945236 [mEh]      -1.65628136 [kcal/mol]      -6.92988122 [kJ/mol]
      Exch-Ind20,r                  0.00043769 [mEh]       0.00027465 [kcal/mol]       0.00114915 [kJ/mol]
      delta HF,r (2)               -0.03334520 [mEh]      -0.02092443 [kcal/mol]      -0.08754780 [kJ/mol]

    Dispersion                     -1.48101672 [mEh]      -0.92935202 [kcal/mol]      -3.88840887 [kJ/mol]
      Disp20                       -1.48115335 [mEh]      -0.92943776 [kcal/mol]      -3.88876757 [kJ/mol]
      Exch-Disp20                   0.00013662 [mEh]       0.00008573 [kcal/mol]       0.00035870 [kJ/mol]
      Disp20 (SS)                  -0.74057667 [mEh]      -0.46471888 [kcal/mol]      -1.94438379 [kJ/mol]
      Disp20 (OS)                  -0.74057667 [mEh]      -0.46471888 [kcal/mol]      -1.94438379 [kJ/mol]
      Exch-Disp20 (SS)              0.00010414 [mEh]       0.00006535 [kcal/mol]       0.00027342 [kJ/mol]
      Exch-Disp20 (OS)              0.00003248 [mEh]       0.00002038 [kcal/mol]       0.00008528 [kJ/mol]

  Total HF                        -10.69883487 [mEh]      -6.71362024 [kcal/mol]     -28.08978708 [kJ/mol]
  Total SAPT0                     -12.17985159 [mEh]      -7.64297226 [kcal/mol]     -31.97819595 [kJ/mol]

  Special recipe for scaled SAPT0 (see Manual):
    Electrostatics sSAPT0          -8.02613386 [mEh]      -5.03647504 [kcal/mol]     -21.07261156 [kJ/mol]
    Exchange sSAPT0                -0.00034114 [mEh]      -0.00021407 [kcal/mol]      -0.00089565 [kJ/mol]
    Induction sSAPT0               -2.67235987 [mEh]      -1.67693114 [kcal/mol]      -7.01627987 [kJ/mol]
    Dispersion sSAPT0              -1.48101672 [mEh]      -0.92935202 [kcal/mol]      -3.88840887 [kJ/mol]
  Total sSAPT0                    -12.17985159 [mEh]      -7.64297226 [kcal/mol]     -31.97819595 [kJ/mol]
  --------------------------------------------------------------------------------------------------------

*** tstop() called on n2cn0683 at Sat Jan 27 08:58:20 2024
Module time:
	user time   =   80238.08 seconds =    1337.30 minutes
	system time =    4138.17 seconds =      68.97 minutes
	total time  =      25900 seconds =     431.67 minutes
Total time:
	user time   =  136720.91 seconds =    2278.68 minutes
	system time =    8927.25 seconds =     148.79 minutes
	total time  =      34659 seconds =     577.65 minutes

    Psi4 stopped on: Saturday, 27 January 2024 08:58AM
    Psi4 wall time for execution: 9:37:40.17

*** Psi4 exiting successfully. Buy a developer a beer!
