
    -----------------------------------------------------------------------
          Psi4: An Open-Source Ab Initio Electronic Structure Package
                               Psi4 1.9 release

                         Git: Rev {} zzzzzzz 


    D. G. A. Smith, L. A. Burns, A. C. Simmonett, R. M. Parrish,
    M. C. Schieber, R. Galvelis, P. Kraus, H. Kruse, R. Di Remigio,
    A. Alenaizan, A. M. James, S. Lehtola, J. P. Misiewicz, M. Scheurer,
    R. A. Shaw, J. B. Schriber, Y. Xie, Z. L. Glick, D. A. Sirianni,
    J. S. O'Brien, J. M. Waldrop, A. Kumar, E. G. Hohenstein,
    B. P. Pritchard, B. R. Brooks, H. F. Schaefer III, A. Yu. Sokolov,
    K. Patkowski, A. E. DePrince III, U. Bozkaya, R. A. King,
    F. A. Evangelista, J. M. Turney, T. D. Crawford, C. D. Sherrill,
    J. Chem. Phys. 152(18) 184108 (2020). https://doi.org/10.1063/5.0006002

                            Additional Code Authors
    E. T. Seidl, C. L. Janssen, E. F. Valeev, M. L. Leininger,
    J. F. Gonthier, R. M. Richard, H. R. McAlexander, M. Saitow, X. Wang,
    P. Verma, M. H. Lechner, A. Jiang, S. Behnle, A. G. Heide,
    M. F. Herbst, and D. L. Poole

             Previous Authors, Complete List of Code Contributors,
                       and Citations for Specific Modules
    https://github.com/psi4/psi4/blob/master/codemeta.json
    https://github.com/psi4/psi4/graphs/contributors
    http://psicode.org/psi4manual/master/introduction.html#citing-psifour

    -----------------------------------------------------------------------


    Psi4 started on: Monday, 22 January 2024 11:52AM

    Process ID: 1548862
    Host:       d-17-1-1
    PSIDATADIR: /home/gridsan/tfroembgen/.conda/envs/psi4test/share/psi4
    Memory:     500.0 MiB
    Threads:    12
    
  ==> Input File <==

--------------------------------------------------------------------------
memory 32 GB # how much memory is available ! Depends on the nodes/cores !

molecule dimer {
# monomer A
-1 1    # Charge and multiplicity
B -0.000046  0.000337 4.399994
F -1.153597  0.000048 5.215641
F  1.153661 -0.000581 5.215641
F -0.000019 -1.153637 3.584360
F -0.000019  1.153978 3.584360
--
# monomer B
0 1     # Charge and multiplicity
C   1.22531237526482      0.70753866091955      0.00613762728373
C   1.22532433589282     -0.70753852257020     -0.00619318228664
C   -0.00000567409046      1.41496628609039     -0.00672680580738
C   2.45644923379077      1.41832825917820      0.00902448468363
C   0.00001130712078     -1.41497612663474      0.00347275151708
C   -1.22530046906674      0.70754574598412      0.00838914760619
C   2.45643823516184     -1.41832293188077     -0.00843833914343
C   -0.00000085313587      2.83680140328112     -0.00913035594137
C   3.68182717731192      0.70931832800114     -0.00808954934571
C   2.45512052870677      2.83422403348893     -0.00819210630633
C   3.68182158506039     -0.70933346742900      0.00798293467272
C   -1.22531311884624     -0.70752714354401     -0.00512042085974
C   1.22670006104402      3.54346985599427      0.00816696660346
C   0.00000526469929     -2.83678176723568      0.00832091913869
C   -2.45643555300670      1.41831729028492      0.00842454345199
C   2.45512389762097     -2.83422965658853      0.00783102630520
C   -1.22671388474763      3.54346943575023      0.00827029982280
C   4.91451777504333      1.42717324448953     -0.00160886631602
C   3.69315067131765      3.54279566454522     -0.00155906667985
C   -2.45643712022637     -1.41831290883911     -0.00846337726810
C   1.22670532178455     -3.54347386990643     -0.00780316414624
C   -2.45512491866593      2.83421703463423     -0.00818572995999
C   4.91452486062398     -1.42718653794377      0.00136387641845
C   1.22142509354026      4.97013443726031      0.00150231067809
C   4.89300870916237      2.82518837202648     -0.00039219795739
C   -1.22669652864725     -3.54347062507680     -0.00753595973677
C   -3.68181849668397      0.70932533873199     -0.00807686886569
C   3.69314758099218     -3.54280096939050      0.00148176697923
C   -1.22143177215231      4.97012866986289      0.00168580605083
C   6.13477145276790      0.68054831910577     -0.00083909176631
C   3.65678936045204      4.97295361556775     -0.00065042889723
C   -2.45512642789169     -2.83421472106065      0.00758666850712
C   -3.68181869921921     -0.70932533146830      0.00810055625144
C   4.89301309775526     -2.82519973363176      0.00021895393805
C   -0.00000059327114      5.65044773803267      0.00045449734393
C   6.13477559217374     -0.68055448207492      0.00042622874941
C   2.47813196269732      5.65357712333155      0.00063835075260
C   1.22142288457925     -4.97012668293268     -0.00129718634452
C   -3.69316190412301      3.54279732619245     -0.00139355922051
C   -1.22142804110313     -4.97011793159564     -0.00140994817719
C   -4.91452132810043      1.42717581899491     -0.00153192130862
C   3.65678749952045     -4.97295485423912      0.00080007163680
C   -2.47813805026426      5.65357479452875      0.00092287576113
C   -3.69314125872231     -3.54278984697859      0.00136564082345
C   -4.91451200321153     -1.42718062802730      0.00139857359209
C   -0.00000552908399     -5.65043791501335      0.00005899322272
C   -4.89302000425900      2.82518897091939     -0.00040227981744
C   2.47812647313991     -5.65357317188818     -0.00029052915548
C   -3.65679823041642      4.97295655404175     -0.00047374852278
C   -4.89299899901461     -2.82519139505969      0.00006491824035
C   -2.47812801824129     -5.65356579800621     -0.00056571680280
C   -6.13477002348955      0.68054913825639     -0.00086464346868
C   -3.65678835334731     -4.97294365097028      0.00058578382008
C   -6.13476456307132     -0.68055354348201      0.00040575295444
H   5.83528897565761      3.36927626695423      0.00396712770529
H   7.07385965258860      1.22821762089947     -0.00037744837300
H   4.60066374401555      5.51238117445323     -0.00014522814529
H   5.83528386714679     -3.36930568472863     -0.00423551337640
H   -0.00001167146422      6.73853104613662     -0.00389474766392
H   7.07386165167227     -1.22822657074368     -0.00008250934481
H   2.47331421164041      6.74068466339473      0.00017162982210
H   4.60066897122302     -5.51237575717576      0.00039007446835
H   -2.47331820069565      6.74068209160650      0.00047297644710
H   -0.00000978838621     -6.73852780445195      0.00458867820736
H   -5.83530143450167      3.36927132229595      0.00410314985360
H   2.47330840367253     -6.74068500242887      0.00027980126949
H   -4.60067436136587      5.51237839860371      0.00002010017831
H   -5.83527902699321     -3.36928859177951     -0.00451481925734
H   -2.47329986759855     -6.74067870613986     -0.00016951527498
H   -7.07385728692578      1.22822084484047     -0.00046143985387
H   -4.60067330624313     -5.51236229778631      0.00021776644566
H   -7.07385645456741     -1.22822025997701     -0.00017736581114

    units angstrom      # Angstroms are the default
    no_reorient         # Geometry fixed, default
    symmetry c1         # C1 symmetry, default
}

set {
    scf_type DF         # Density fitting, faster than exact integrals
    freeze_core True    # Freeze core electrons
    basis jun-cc-pVDZ   # Jun-cc-pVDZ basis set, recommended for sSAPT0 in https://doi.org/10.1063/1.4867135
}

energy('ssapt0')        # Compute sSAPT0 energy, includes also SAPT0
--------------------------------------------------------------------------

  Memory set to  29.802 GiB by Python driver.

Scratch directory: /state/partition1/slurm_tmp/24792921.4294967291.0/
   => Loading Basis Set <=

    Name: JUN-CC-PVDZ
    Role: ORBITAL
    Keyword: BASIS
    atoms 1     entry B          line   130 file /home/gridsan/tfroembgen/.conda/envs/psi4test/share/psi4/basis/jun-cc-pvdz.gbs 
    atoms 2-5   entry F          line   266 file /home/gridsan/tfroembgen/.conda/envs/psi4test/share/psi4/basis/jun-cc-pvdz.gbs 
    atoms 6-59  entry C          line   164 file /home/gridsan/tfroembgen/.conda/envs/psi4test/share/psi4/basis/jun-cc-pvdz.gbs 
    atoms 60-77 entry H          line    36 file /home/gridsan/tfroembgen/.conda/envs/psi4test/share/psi4/basis/jun-cc-pvdz.gbs 

   => Loading Basis Set <=

    Name: JUN-CC-PVDZ
    Role: ORBITAL
    Keyword: BASIS
    atoms 1     entry B          line   130 file /home/gridsan/tfroembgen/.conda/envs/psi4test/share/psi4/basis/jun-cc-pvdz.gbs 
    atoms 2-5   entry F          line   266 file /home/gridsan/tfroembgen/.conda/envs/psi4test/share/psi4/basis/jun-cc-pvdz.gbs 
    atoms 6-59  entry C          line   164 file /home/gridsan/tfroembgen/.conda/envs/psi4test/share/psi4/basis/jun-cc-pvdz.gbs 
    atoms 60-77 entry H          line    36 file /home/gridsan/tfroembgen/.conda/envs/psi4test/share/psi4/basis/jun-cc-pvdz.gbs 


  //>>>>>>>>>>>>>>>>>>>>>>>>>>>>>>>>>>>//
  //              Dimer HF             //
  //<<<<<<<<<<<<<<<<<<<<<<<<<<<<<<<<<<<//

   => Libint2 <=

    Primary   basis highest AM E, G, H:  7, 7, 4
    Auxiliary basis highest AM E, G, H:  7, 7, 5
    Onebody   basis highest AM E, G, H:  7, 7, 5
    Solid Harmonics ordering:            gaussian

*** tstart() called on d-17-1-1
*** at Mon Jan 22 11:52:20 2024

   => Loading Basis Set <=

    Name: JUN-CC-PVDZ
    Role: ORBITAL
    Keyword: BASIS
    atoms 1     entry B          line   130 file /home/gridsan/tfroembgen/.conda/envs/psi4test/share/psi4/basis/jun-cc-pvdz.gbs 
    atoms 2-5   entry F          line   266 file /home/gridsan/tfroembgen/.conda/envs/psi4test/share/psi4/basis/jun-cc-pvdz.gbs 
    atoms 6-59  entry C          line   164 file /home/gridsan/tfroembgen/.conda/envs/psi4test/share/psi4/basis/jun-cc-pvdz.gbs 
    atoms 60-77 entry H          line    36 file /home/gridsan/tfroembgen/.conda/envs/psi4test/share/psi4/basis/jun-cc-pvdz.gbs 


         ---------------------------------------------------------
                                   SCF
               by Justin Turney, Rob Parrish, Andy Simmonett
                          and Daniel G. A. Smith
                              RHF Reference
                       12 Threads,  30517 MiB Core
         ---------------------------------------------------------

  ==> Geometry <==

    Molecular point group: c1
    Full point group: C1

    Geometry (in Angstrom), charge = -1, multiplicity = 1:

       Center              X                  Y                   Z               Mass       
    ------------   -----------------  -----------------  -----------------  -----------------
         B           -0.000046449334     0.000336519434     3.891709727517    11.009305360000
         F           -1.153597449334     0.000047519434     4.707356727517    18.998403162730
         F            1.153660550666    -0.000581480566     4.707356727517    18.998403162730
         F           -0.000019449334    -1.153637480566     3.076075727517    18.998403162730
         F           -0.000019449334     1.153977519434     3.076075727517    18.998403162730
         C            1.225311925931     0.707538180353    -0.502146645200    12.000000000000
         C            1.225323886559    -0.707539003137    -0.514477454770    12.000000000000
         C           -0.000006123424     1.414965805524    -0.515011078291    12.000000000000
         C            2.456448784457     1.418327778612    -0.499259787800    12.000000000000
         C            0.000010857787    -1.414976607201    -0.504811520966    12.000000000000
         C           -1.225300918401     0.707545265418    -0.499895124877    12.000000000000
         C            2.456437785828    -1.418323412447    -0.516722611627    12.000000000000
         C           -0.000001302470     2.836800922715    -0.517414628425    12.000000000000
         C            3.681826727978     0.709317847435    -0.516373821829    12.000000000000
         C            2.455120079373     2.834223552923    -0.516476378790    12.000000000000
         C            3.681821135726    -0.709333947995    -0.500301337811    12.000000000000
         C           -1.225313568180    -0.707527624110    -0.513404693343    12.000000000000
         C            1.226699611710     3.543469375428    -0.500117305880    12.000000000000
         C            0.000004815365    -2.836782247802    -0.499963353345    12.000000000000
         C           -2.456436002341     1.418316809719    -0.499859729031    12.000000000000
         C            2.455123448287    -2.834230137155    -0.500453246178    12.000000000000
         C           -1.226714334082     3.543468955184    -0.500013972661    12.000000000000
         C            4.914517325709     1.427172763923    -0.509893138800    12.000000000000
         C            3.693150221984     3.542795183979    -0.509843339163    12.000000000000
         C           -2.456437569560    -1.418313389406    -0.516747649752    12.000000000000
         C            1.226704872451    -3.543474350473    -0.516087436630    12.000000000000
         C           -2.455125368000     2.834216554068    -0.516470002443    12.000000000000
         C            4.914524411290    -1.427187018510    -0.506920396065    12.000000000000
         C            1.221424644206     4.970133956694    -0.506781961805    12.000000000000
         C            4.893008259828     2.825187891460    -0.508676470441    12.000000000000
         C           -1.226696977981    -3.543471105643    -0.515820232220    12.000000000000
         C           -3.681818946018     0.709324858166    -0.516361141349    12.000000000000
         C            3.693147131658    -3.542801449957    -0.506802505504    12.000000000000
         C           -1.221432221486     4.970128189296    -0.506598466433    12.000000000000
         C            6.134771003434     0.680547838539    -0.509123364250    12.000000000000
         C            3.656788911118     4.972953135001    -0.508934701381    12.000000000000
         C           -2.455126877226    -2.834215201627    -0.500697603976    12.000000000000
         C           -3.681819148553    -0.709325812035    -0.500183716232    12.000000000000
         C            4.893012648421    -2.825200214198    -0.508065318545    12.000000000000
         C           -0.000001042605     5.650447257466    -0.507829775140    12.000000000000
         C            6.134775142840    -0.680554962641    -0.507858043734    12.000000000000
         C            2.478131513363     5.653576642765    -0.507645921731    12.000000000000
         C            1.221422435245    -4.970127163499    -0.509581458828    12.000000000000
         C           -3.693162353457     3.542796845626    -0.509677831704    12.000000000000
         C           -1.221428490437    -4.970118412162    -0.509694220661    12.000000000000
         C           -4.914521777434     1.427175338429    -0.509816193792    12.000000000000
         C            3.656787050187    -4.972955334806    -0.507484200847    12.000000000000
         C           -2.478138499598     5.653574313962    -0.507361396722    12.000000000000
         C           -3.693141708056    -3.542790327545    -0.506918631660    12.000000000000
         C           -4.914512452545    -1.427181108594    -0.506885698891    12.000000000000
         C           -0.000005978418    -5.650438395580    -0.508225279261    12.000000000000
         C           -4.893020453593     2.825188490353    -0.508686552301    12.000000000000
         C            2.478126023806    -5.653573652455    -0.508574801639    12.000000000000
         C           -3.656798679750     4.972956073475    -0.508758021006    12.000000000000
         C           -4.892999448349    -2.825191875626    -0.508219354243    12.000000000000
         C           -2.478128467575    -5.653566278573    -0.508849989286    12.000000000000
         C           -6.134770472823     0.680548657690    -0.509148915952    12.000000000000
         C           -3.656788802681    -4.972944131537    -0.507698488663    12.000000000000
         C           -6.134765012405    -0.680554024048    -0.507878519529    12.000000000000
         H            5.835288526324     3.369275786388    -0.504317144778     1.007825032230
         H            7.073859203255     1.228217140333    -0.508661720856     1.007825032230
         H            4.600663294682     5.512380693887    -0.508429500629     1.007825032230
         H            5.835283417813    -3.369306165295    -0.512519785860     1.007825032230
         H           -0.000012120798     6.738530565570    -0.512179020147     1.007825032230
         H            7.073861202338    -1.228227051310    -0.508366781828     1.007825032230
         H            2.473313762307     6.740684182828    -0.508112642661     1.007825032230
         H            4.600668521889    -5.512376237742    -0.507894198015     1.007825032230
         H           -2.473318650030     6.740681611040    -0.507811296036     1.007825032230
         H           -0.000010237720    -6.738528285018    -0.503695594276     1.007825032230
         H           -5.835301883836     3.369270841730    -0.504181122630     1.007825032230
         H            2.473307954339    -6.740685482995    -0.508004471214     1.007825032230
         H           -4.600674810700     5.512377918037    -0.508264172305     1.007825032230
         H           -5.835279476327    -3.369289072346    -0.512799091741     1.007825032230
         H           -2.473300316932    -6.740679186706    -0.508453787758     1.007825032230
         H           -7.073857736260     1.228220364274    -0.508745712337     1.007825032230
         H           -4.600673755577    -5.512362778353    -0.508066506038     1.007825032230
         H           -7.073856903901    -1.228220740543    -0.508461638295     1.007825032230

  Running in c1 symmetry.

  Rotational constants: A =      0.00183  B =      0.00183  C =      0.00110 [cm^-1]
  Rotational constants: A =     54.98144  B =     54.97423  C =     33.02250 [MHz]
  Nuclear repulsion = 7813.502204217721555

  Charge       = -1
  Multiplicity = 1
  Electrons    = 384
  Nalpha       = 192
  Nbeta        = 192

  ==> Algorithm <==

  SCF Algorithm Type is DF.
  DIIS enabled.
  MOM disabled.
  Fractional occupation disabled.
  Guess Type is SAD.
  Energy threshold   = 1.00e-08
  Density threshold  = 1.00e-08
  Integral threshold = 1.00e-12

  ==> Primary Basis <==

  Basis Set: JUN-CC-PVDZ
    Blend: JUN-CC-PVDZ
    Number of shells: 526
    Number of basis functions: 1152
    Number of Cartesian functions: 1211
    Spherical Harmonics?: true
    Max angular momentum: 2

   => Loading Basis Set <=

    Name: (JUN-CC-PVDZ AUX)
    Role: JKFIT
    Keyword: DF_BASIS_SCF
    atoms 1     entry B          line    90 file /home/gridsan/tfroembgen/.conda/envs/psi4test/share/psi4/basis/jun-cc-pvdz-jkfit.gbs 
    atoms 2-5   entry F          line   314 file /home/gridsan/tfroembgen/.conda/envs/psi4test/share/psi4/basis/jun-cc-pvdz-jkfit.gbs 
    atoms 6-59  entry C          line   146 file /home/gridsan/tfroembgen/.conda/envs/psi4test/share/psi4/basis/jun-cc-pvdz-jkfit.gbs 
    atoms 60-77 entry H          line    70 file /home/gridsan/tfroembgen/.conda/envs/psi4test/share/psi4/basis/jun-cc-pvdz-jkfit.gbs 

  ==> Integral Setup <==

  ==> DiskDFJK: Density-Fitted J/K Matrices <==

    J tasked:                  Yes
    K tasked:                  Yes
    wK tasked:                  No
    OpenMP threads:             12
    Integrals threads:          12
    Memory [MiB]:            22888
    Algorithm:                Core
    Integral Cache:           SAVE
    Schwarz Cutoff:          1E-12
    Fitting Condition:       1E-10

   => Auxiliary Basis Set <=

  Basis Set: (JUN-CC-PVDZ AUX)
    Blend: JUN-CC-PVDZ-JKFIT
    Number of shells: 1755
    Number of basis functions: 5075
    Number of Cartesian functions: 5819
    Spherical Harmonics?: true
    Max angular momentum: 3

  Minimum eigenvalue in the overlap matrix is 7.7146001864E-10.
  Reciprocal condition number of the overlap matrix is 3.3586479920E-11.
    Using canonical orthogonalization.
  Overall, 14 of 1152 possible MOs eliminated.


  ==> Pre-Iterations <==

  SCF Guess: Superposition of Atomic Densities via on-the-fly atomic UHF (no occupation information).

   -------------------------
    Irrep   Nso     Nmo    
   -------------------------
     A       1152    1138 
   -------------------------
    Total    1152    1138
   -------------------------

  ==> Iterations <==

                           Total Energy        Delta E     RMS |[F,P]|

   @DF-RHF iter SAD: -2483.30274690038914   -2.48330e+03   0.00000e+00 
   @DF-RHF iter   1: -2477.60668471628060    5.69606e+00   1.10658e-03 ADIIS/DIIS
   @DF-RHF iter   2: -2478.50358789938218   -8.96903e-01   4.88217e-04 ADIIS/DIIS
   @DF-RHF iter   3: -2478.64441797209656   -1.40830e-01   1.39764e-04 ADIIS/DIIS
   @DF-RHF iter   4: -2478.65863256674947   -1.42146e-02   6.30774e-05 DIIS
   @DF-RHF iter   5: -2478.66192235974995   -3.28979e-03   1.73494e-05 DIIS
   @DF-RHF iter   6: -2478.66224191810761   -3.19558e-04   5.41211e-06 DIIS
   @DF-RHF iter   7: -2478.66232460705760   -8.26889e-05   2.67418e-06 DIIS
   @DF-RHF iter   8: -2478.66234761757414   -2.30105e-05   1.21345e-06 DIIS
   @DF-RHF iter   9: -2478.66235441723802   -6.79966e-06   2.63805e-07 DIIS
   @DF-RHF iter  10: -2478.66235465769614   -2.40458e-07   9.40155e-08 DIIS
   @DF-RHF iter  11: -2478.66235467570687   -1.80107e-08   3.70266e-08 DIIS
   @DF-RHF iter  12: -2478.66235467938895   -3.68209e-09   1.53251e-08 DIIS
   @DF-RHF iter  13: -2478.66235467992874   -5.39785e-10   6.53329e-09 DIIS
  Energy and wave function converged.


  ==> Post-Iterations <==

    Orbital Energies [Eh]
    ---------------------

    Doubly Occupied:                                                      

       1A    -26.075177     2A    -26.075006     3A    -26.071470  
       4A    -26.071434     5A    -11.184582     6A    -11.184580  
       7A    -11.184519     8A    -11.184518     9A    -11.184435  
      10A    -11.184432    11A    -11.184374    12A    -11.184374  
      13A    -11.184266    14A    -11.184222    15A    -11.184181  
      16A    -11.184135    17A    -11.181872    18A    -11.181871  
      19A    -11.181667    20A    -11.181663    21A    -11.181663  
      22A    -11.181659    23A    -11.181219    24A    -11.181211  
      25A    -11.180998    26A    -11.180935    27A    -11.180814  
      28A    -11.180626    29A    -11.180600    30A    -11.180457  
      31A    -11.180452    32A    -11.180320    33A    -11.180265  
      34A    -11.180248    35A    -11.180247    36A    -11.180245  
      37A    -11.180234    38A    -11.179947    39A    -11.179908  
      40A    -11.179630    41A    -11.179577    42A    -11.179375  
      43A    -11.179279    44A    -11.179192    45A    -11.178966  
      46A    -11.178952    47A    -11.177916    48A    -11.177915  
      49A    -11.177883    50A    -11.177882    51A    -11.177763  
      52A    -11.177603    53A    -11.177550    54A    -11.177311  
      55A    -11.177250    56A    -11.176246    57A    -11.176183  
      58A    -11.175686    59A     -7.545220    60A     -1.417180  
      61A     -1.359218    62A     -1.357381    63A     -1.355558  
      64A     -1.164559    65A     -1.143115    66A     -1.142747  
      67A     -1.114126    68A     -1.114115    69A     -1.102773  
      70A     -1.083593    71A     -1.073903    72A     -1.058505  
      73A     -1.058177    74A     -1.039397    75A     -1.039353  
      76A     -1.006260    77A     -1.006238    78A     -1.002028  
      79A     -0.992521    80A     -0.992512    81A     -0.964811  
      82A     -0.947019    83A     -0.944197    84A     -0.944136  
      85A     -0.943991    86A     -0.939608    87A     -0.911270  
      88A     -0.911221    89A     -0.887717    90A     -0.887703  
      91A     -0.820531    92A     -0.820526    93A     -0.810700  
      94A     -0.808669    95A     -0.808459    96A     -0.805603  
      97A     -0.805588    98A     -0.787995    99A     -0.765465  
     100A     -0.744011   101A     -0.740223   102A     -0.736621  
     103A     -0.736480   104A     -0.721508   105A     -0.721484  
     106A     -0.670440   107A     -0.669224   108A     -0.658823  
     109A     -0.658816   110A     -0.657560   111A     -0.657444  
     112A     -0.641448   113A     -0.625164   114A     -0.625035  
     115A     -0.619073   116A     -0.618941   117A     -0.608509  
     118A     -0.588143   119A     -0.577878   120A     -0.577492  
     121A     -0.577484   122A     -0.575058   123A     -0.565879  
     124A     -0.565794   125A     -0.554579   126A     -0.552579  
     127A     -0.552518   128A     -0.535568   129A     -0.535531  
     130A     -0.534539   131A     -0.533928   132A     -0.526219  
     133A     -0.526105   134A     -0.526075   135A     -0.525499  
     136A     -0.518663   137A     -0.514659   138A     -0.514520  
     139A     -0.513710   140A     -0.499140   141A     -0.498644  
     142A     -0.494646   143A     -0.494631   144A     -0.490840  
     145A     -0.490748   146A     -0.483156   147A     -0.481733  
     148A     -0.481678   149A     -0.465595   150A     -0.465570  
     151A     -0.462718   152A     -0.462690   153A     -0.455548  
     154A     -0.455077   155A     -0.453371   156A     -0.448740  
     157A     -0.448628   158A     -0.447492   159A     -0.427766  
     160A     -0.421997   161A     -0.419882   162A     -0.414938  
     163A     -0.414443   164A     -0.414414   165A     -0.412962  
     166A     -0.409852   167A     -0.407248   168A     -0.407237  
     169A     -0.394315   170A     -0.392642   171A     -0.391059  
     172A     -0.389904   173A     -0.389744   174A     -0.374301  
     175A     -0.374142   176A     -0.365812   177A     -0.365729  
     178A     -0.328014   179A     -0.327969   180A     -0.325705  
     181A     -0.302703   182A     -0.302663   183A     -0.274300  
     184A     -0.258113   185A     -0.256579   186A     -0.256022  
     187A     -0.237418   188A     -0.226177   189A     -0.207160  
     190A     -0.206946   191A     -0.149937   192A     -0.149796  

    Virtual:                                                              

     193A      0.088340   194A      0.088528   195A      0.105555  
     196A      0.105723   197A      0.107374   198A      0.108075  
     199A      0.108124   200A      0.114872   201A      0.119007  
     202A      0.130012   203A      0.130039   204A      0.140665  
     205A      0.140668   206A      0.144799   207A      0.144801  
     208A      0.146097   209A      0.152707   210A      0.152715  
     211A      0.152752   212A      0.152853   213A      0.153779  
     214A      0.158827   215A      0.158975   216A      0.159312  
     217A      0.161343   218A      0.164535   219A      0.167305  
     220A      0.174146   221A      0.174268   222A      0.175155  
     223A      0.176997   224A      0.178607   225A      0.185931  
     226A      0.186102   227A      0.188033   228A      0.188645  
     229A      0.188914   230A      0.189534   231A      0.191173  
     232A      0.193026   233A      0.193978   234A      0.196723  
     235A      0.198046   236A      0.198085   237A      0.204268  
     238A      0.211834   239A      0.211871   240A      0.212840  
     241A      0.214406   242A      0.217119   243A      0.217387  
     244A      0.221008   245A      0.221242   246A      0.221475  
     247A      0.232701   248A      0.235865   249A      0.235915  
     250A      0.241855   251A      0.246992   252A      0.249149  
     253A      0.249186   254A      0.249842   255A      0.249924  
     256A      0.253299   257A      0.256163   258A      0.257606  
     259A      0.258847   260A      0.259917   261A      0.261999  
     262A      0.265537   263A      0.265576   264A      0.266361  
     265A      0.266572   266A      0.268202   267A      0.272145  
     268A      0.272330   269A      0.273968   270A      0.274543  
     271A      0.274991   272A      0.275960   273A      0.276264  
     274A      0.278396   275A      0.280350   276A      0.287802  
     277A      0.288849   278A      0.289079   279A      0.290578  
     280A      0.291766   281A      0.293366   282A      0.294322  
     283A      0.294535   284A      0.299746   285A      0.300146  
     286A      0.302201   287A      0.303360   288A      0.305483  
     289A      0.306885   290A      0.306944   291A      0.309805  
     292A      0.314414   293A      0.318535   294A      0.319011  
     295A      0.320951   296A      0.321281   297A      0.323861  
     298A      0.324445   299A      0.327045   300A      0.329297  
     301A      0.330379   302A      0.334679   303A      0.338848  
     304A      0.338938   305A      0.339310   306A      0.339558  
     307A      0.345543   308A      0.351019   309A      0.351753  
     310A      0.354071   311A      0.355450   312A      0.357110  
     313A      0.359100   314A      0.359481   315A      0.360018  
     316A      0.361713   317A      0.363865   318A      0.365606  
     319A      0.368294   320A      0.368350   321A      0.370064  
     322A      0.375352   323A      0.375942   324A      0.376412  
     325A      0.376706   326A      0.376976   327A      0.379349  
     328A      0.381968   329A      0.383212   330A      0.383418  
     331A      0.386731   332A      0.387649   333A      0.388038  
     334A      0.388778   335A      0.388829   336A      0.393270  
     337A      0.395059   338A      0.397658   339A      0.400614  
     340A      0.402773   341A      0.404471   342A      0.406989  
     343A      0.407101   344A      0.409893   345A      0.410693  
     346A      0.410835   347A      0.417661   348A      0.419479  
     349A      0.419627   350A      0.420092   351A      0.420976  
     352A      0.422359   353A      0.423731   354A      0.432888  
     355A      0.433866   356A      0.434893   357A      0.436451  
     358A      0.439517   359A      0.440549   360A      0.444668  
     361A      0.449445   362A      0.451730   363A      0.453072  
     364A      0.454141   365A      0.454893   366A      0.456201  
     367A      0.456660   368A      0.459899   369A      0.460803  
     370A      0.460859   371A      0.461545   372A      0.461959  
     373A      0.463285   374A      0.464067   375A      0.468014  
     376A      0.468114   377A      0.468763   378A      0.469730  
     379A      0.472255   380A      0.473953   381A      0.476556  
     382A      0.476607   383A      0.477424   384A      0.482673  
     385A      0.485025   386A      0.486953   387A      0.487494  
     388A      0.489219   389A      0.489662   390A      0.491070  
     391A      0.491357   392A      0.492293   393A      0.496408  
     394A      0.497255   395A      0.497523   396A      0.498745  
     397A      0.500254   398A      0.501265   399A      0.504289  
     400A      0.507734   401A      0.508663   402A      0.508825  
     403A      0.510435   404A      0.511054   405A      0.513379  
     406A      0.517397   407A      0.518138   408A      0.519619  
     409A      0.522158   410A      0.522746   411A      0.523211  
     412A      0.523633   413A      0.524497   414A      0.528265  
     415A      0.533328   416A      0.535237   417A      0.536188  
     418A      0.536576   419A      0.542398   420A      0.542791  
     421A      0.543255   422A      0.544676   423A      0.546801  
     424A      0.547325   425A      0.549539   426A      0.551812  
     427A      0.556253   428A      0.559894   429A      0.560011  
     430A      0.563701   431A      0.563808   432A      0.563850  
     433A      0.565833   434A      0.568289   435A      0.569937  
     436A      0.570662   437A      0.571162   438A      0.573946  
     439A      0.577615   440A      0.577992   441A      0.580294  
     442A      0.581948   443A      0.585593   444A      0.587522  
     445A      0.591147   446A      0.593089   447A      0.599086  
     448A      0.602473   449A      0.602675   450A      0.603312  
     451A      0.607398   452A      0.609368   453A      0.613037  
     454A      0.613292   455A      0.615723   456A      0.616686  
     457A      0.618264   458A      0.620577   459A      0.620670  
     460A      0.623575   461A      0.623634   462A      0.625572  
     463A      0.627390   464A      0.633012   465A      0.635787  
     466A      0.636458   467A      0.641334   468A      0.641652  
     469A      0.642385   470A      0.642968   471A      0.644407  
     472A      0.652803   473A      0.655890   474A      0.666476  
     475A      0.668776   476A      0.669213   477A      0.672703  
     478A      0.674586   479A      0.682858   480A      0.688730  
     481A      0.693541   482A      0.694803   483A      0.699351  
     484A      0.701348   485A      0.703217   486A      0.709559  
     487A      0.710942   488A      0.714994   489A      0.720508  
     490A      0.723521   491A      0.728400   492A      0.730033  
     493A      0.735027   494A      0.737245   495A      0.743462  
     496A      0.750859   497A      0.751577   498A      0.751594  
     499A      0.754507   500A      0.760788   501A      0.765594  
     502A      0.790567   503A      0.790713   504A      0.805472  
     505A      0.812328   506A      0.814933   507A      0.815814  
     508A      0.819549   509A      0.819759   510A      0.820493  
     511A      0.821171   512A      0.828164   513A      0.830256  
     514A      0.840635   515A      0.844034   516A      0.851996  
     517A      0.865089   518A      0.867837   519A      0.874231  
     520A      0.875131   521A      0.880972   522A      0.885556  
     523A      0.886895   524A      0.892386   525A      0.892999  
     526A      0.896028   527A      0.898093   528A      0.900223  
     529A      0.900278   530A      0.901422   531A      0.901777  
     532A      0.912806   533A      0.927385   534A      0.928563  
     535A      0.933395   536A      0.935946   537A      0.936949  
     538A      0.938814   539A      0.941149   540A      0.948025  
     541A      0.948224   542A      0.950570   543A      0.951651  
     544A      0.953027   545A      0.960930   546A      0.961121  
     547A      0.967784   548A      0.968928   549A      0.970402  
     550A      0.970688   551A      0.974536   552A      0.978420  
     553A      0.980623   554A      0.983102   555A      0.984205  
     556A      0.984654   557A      0.988635   558A      0.990938  
     559A      0.992090   560A      0.992610   561A      0.995941  
     562A      0.997476   563A      1.001038   564A      1.004844  
     565A      1.008373   566A      1.009707   567A      1.009846  
     568A      1.013639   569A      1.016139   570A      1.017215  
     571A      1.021536   572A      1.022390   573A      1.026968  
     574A      1.030139   575A      1.039012   576A      1.041489  
     577A      1.041924   578A      1.044211   579A      1.045626  
     580A      1.045731   581A      1.047242   582A      1.052260  
     583A      1.054676   584A      1.060447   585A      1.061841  
     586A      1.067480   587A      1.067975   588A      1.068047  
     589A      1.073650   590A      1.082750   591A      1.084374  
     592A      1.086199   593A      1.087583   594A      1.089320  
     595A      1.089829   596A      1.098284   597A      1.099067  
     598A      1.100832   599A      1.106528   600A      1.108319  
     601A      1.110214   602A      1.110524   603A      1.112269  
     604A      1.114751   605A      1.116719   606A      1.119044  
     607A      1.119230   608A      1.121262   609A      1.123632  
     610A      1.124791   611A      1.125476   612A      1.127723  
     613A      1.128581   614A      1.130079   615A      1.131958  
     616A      1.133911   617A      1.143666   618A      1.144310  
     619A      1.150341   620A      1.153463   621A      1.153571  
     622A      1.159177   623A      1.159554   624A      1.160882  
     625A      1.161681   626A      1.163012   627A      1.167209  
     628A      1.170916   629A      1.173640   630A      1.174096  
     631A      1.175528   632A      1.176896   633A      1.181209  
     634A      1.181693   635A      1.183159   636A      1.183569  
     637A      1.184989   638A      1.190228   639A      1.190544  
     640A      1.200191   641A      1.201456   642A      1.206682  
     643A      1.208447   644A      1.209222   645A      1.217602  
     646A      1.218139   647A      1.218600   648A      1.221086  
     649A      1.221908   650A      1.224307   651A      1.226444  
     652A      1.227152   653A      1.229294   654A      1.230034  
     655A      1.237346   656A      1.242277   657A      1.251155  
     658A      1.258230   659A      1.262325   660A      1.263980  
     661A      1.266934   662A      1.269668   663A      1.271857  
     664A      1.275642   665A      1.275939   666A      1.276674  
     667A      1.278909   668A      1.282435   669A      1.289786  
     670A      1.293037   671A      1.295904   672A      1.297297  
     673A      1.297669   674A      1.306711   675A      1.309987  
     676A      1.311567   677A      1.312744   678A      1.332028  
     679A      1.333117   680A      1.334923   681A      1.336654  
     682A      1.337871   683A      1.338142   684A      1.339091  
     685A      1.343292   686A      1.349983   687A      1.350062  
     688A      1.353497   689A      1.369112   690A      1.370009  
     691A      1.371185   692A      1.372044   693A      1.372550  
     694A      1.376680   695A      1.380805   696A      1.382391  
     697A      1.383234   698A      1.383983   699A      1.387839  
     700A      1.393213   701A      1.396746   702A      1.398314  
     703A      1.398872   704A      1.405316   705A      1.405619  
     706A      1.412591   707A      1.414267   708A      1.417988  
     709A      1.420477   710A      1.423011   711A      1.428482  
     712A      1.429399   713A      1.431845   714A      1.432090  
     715A      1.433671   716A      1.434820   717A      1.438928  
     718A      1.448772   719A      1.451347   720A      1.456551  
     721A      1.457883   722A      1.467464   723A      1.469116  
     724A      1.478043   725A      1.479600   726A      1.485977  
     727A      1.486173   728A      1.487618   729A      1.488529  
     730A      1.493752   731A      1.497175   732A      1.505161  
     733A      1.506568   734A      1.506784   735A      1.510070  
     736A      1.511090   737A      1.512595   738A      1.514793  
     739A      1.515120   740A      1.515998   741A      1.522898  
     742A      1.524150   743A      1.525048   744A      1.527120  
     745A      1.544811   746A      1.545926   747A      1.553331  
     748A      1.554575   749A      1.590881   750A      1.590930  
     751A      1.597272   752A      1.597961   753A      1.603700  
     754A      1.626582   755A      1.628501   756A      1.651349  
     757A      1.655456   758A      1.659111   759A      1.667767  
     760A      1.678396   761A      1.681772   762A      1.683707  
     763A      1.689032   764A      1.690264   765A      1.690640  
     766A      1.693469   767A      1.699251   768A      1.700988  
     769A      1.704431   770A      1.707407   771A      1.714418  
     772A      1.715171   773A      1.717676   774A      1.719479  
     775A      1.720290   776A      1.721992   777A      1.724623  
     778A      1.726240   779A      1.736093   780A      1.736297  
     781A      1.742211   782A      1.750384   783A      1.750836  
     784A      1.751612   785A      1.753681   786A      1.755755  
     787A      1.755995   788A      1.760234   789A      1.763470  
     790A      1.764028   791A      1.770444   792A      1.772951  
     793A      1.772978   794A      1.773605   795A      1.780036  
     796A      1.783172   797A      1.783386   798A      1.789927  
     799A      1.790370   800A      1.817166   801A      1.828167  
     802A      1.831856   803A      1.832720   804A      1.833370  
     805A      1.836535   806A      1.851550   807A      1.851794  
     808A      1.866547   809A      1.866870   810A      1.889438  
     811A      1.889793   812A      1.891029   813A      1.901028  
     814A      1.901948   815A      1.902107   816A      1.907617  
     817A      1.910120   818A      1.915223   819A      1.918730  
     820A      1.924196   821A      1.933595   822A      1.933755  
     823A      1.938292   824A      1.941244   825A      1.942595  
     826A      1.944940   827A      1.948019   828A      1.956513  
     829A      1.956921   830A      1.971979   831A      1.972505  
     832A      1.973304   833A      1.975136   834A      1.975456  
     835A      1.978136   836A      1.985163   837A      1.985353  
     838A      1.989825   839A      1.992862   840A      1.993283  
     841A      1.994230   842A      1.994851   843A      1.997373  
     844A      1.997823   845A      2.011241   846A      2.014721  
     847A      2.016389   848A      2.017304   849A      2.017869  
     850A      2.018341   851A      2.028860   852A      2.030577  
     853A      2.032513   854A      2.032909   855A      2.033351  
     856A      2.033955   857A      2.037698   858A      2.056814  
     859A      2.058453   860A      2.059772   861A      2.066458  
     862A      2.069987   863A      2.071531   864A      2.072247  
     865A      2.073005   866A      2.080339   867A      2.081704  
     868A      2.086952   869A      2.087434   870A      2.091379  
     871A      2.103095   872A      2.104321   873A      2.105308  
     874A      2.105416   875A      2.106382   876A      2.108247  
     877A      2.111035   878A      2.111784   879A      2.120282  
     880A      2.123582   881A      2.129602   882A      2.131163  
     883A      2.131927   884A      2.135735   885A      2.139507  
     886A      2.141138   887A      2.144318   888A      2.148827  
     889A      2.151523   890A      2.154790   891A      2.156408  
     892A      2.156643   893A      2.161183   894A      2.163392  
     895A      2.166610   896A      2.167066   897A      2.170015  
     898A      2.170665   899A      2.172452   900A      2.173627  
     901A      2.176281   902A      2.178060   903A      2.178795  
     904A      2.181651   905A      2.183950   906A      2.184897  
     907A      2.185353   908A      2.190705   909A      2.191678  
     910A      2.192324   911A      2.194219   912A      2.197916  
     913A      2.199539   914A      2.200586   915A      2.202591  
     916A      2.205420   917A      2.207376   918A      2.209008  
     919A      2.210353   920A      2.211263   921A      2.216429  
     922A      2.217474   923A      2.217844   924A      2.231082  
     925A      2.238812   926A      2.239507   927A      2.239654  
     928A      2.245847   929A      2.249003   930A      2.254841  
     931A      2.255996   932A      2.264158   933A      2.264940  
     934A      2.265674   935A      2.268951   936A      2.273202  
     937A      2.275359   938A      2.281435   939A      2.294664  
     940A      2.297617   941A      2.298477   942A      2.301834  
     943A      2.302016   944A      2.310631   945A      2.311765  
     946A      2.314287   947A      2.315351   948A      2.317003  
     949A      2.317876   950A      2.320364   951A      2.332333  
     952A      2.332829   953A      2.341643   954A      2.343977  
     955A      2.344338   956A      2.345279   957A      2.349461  
     958A      2.351864   959A      2.363642   960A      2.374289  
     961A      2.380204   962A      2.389734   963A      2.394171  
     964A      2.400063   965A      2.409384   966A      2.410239  
     967A      2.410621   968A      2.412878   969A      2.417984  
     970A      2.427510   971A      2.429011   972A      2.429658  
     973A      2.431753   974A      2.443794   975A      2.446354  
     976A      2.454357   977A      2.461818   978A      2.489127  
     979A      2.499032   980A      2.499419   981A      2.499701  
     982A      2.509627   983A      2.517753   984A      2.518328  
     985A      2.546179   986A      2.548580   987A      2.550512  
     988A      2.559991   989A      2.561525   990A      2.577641  
     991A      2.594142   992A      2.605134   993A      2.606961  
     994A      2.619974   995A      2.620116   996A      2.621672  
     997A      2.625990   998A      2.626105   999A      2.632937  
    1000A      2.634575  1001A      2.634823  1002A      2.647095  
    1003A      2.647641  1004A      2.648128  1005A      2.648272  
    1006A      2.659490  1007A      2.660692  1008A      2.662903  
    1009A      2.663839  1010A      2.665970  1011A      2.682582  
    1012A      2.697579  1013A      2.697927  1014A      2.703842  
    1015A      2.707792  1016A      2.708886  1017A      2.714393  
    1018A      2.715226  1019A      2.724564  1020A      2.724811  
    1021A      2.730071  1022A      2.757953  1023A      2.759828  
    1024A      2.759979  1025A      2.762314  1026A      2.781288  
    1027A      2.782491  1028A      2.789316  1029A      2.789696  
    1030A      2.794525  1031A      2.794818  1032A      2.799248  
    1033A      2.799507  1034A      2.817239  1035A      2.826921  
    1036A      2.828884  1037A      2.854326  1038A      2.872014  
    1039A      2.872470  1040A      2.892724  1041A      2.904322  
    1042A      2.904690  1043A      2.928269  1044A      2.930497  
    1045A      2.935031  1046A      2.936763  1047A      2.936953  
    1048A      2.937290  1049A      2.945051  1050A      2.990966  
    1051A      2.991377  1052A      2.996672  1053A      3.006794  
    1054A      3.009468  1055A      3.011296  1056A      3.024784  
    1057A      3.025588  1058A      3.038298  1059A      3.083069  
    1060A      3.084147  1061A      3.086381  1062A      3.097312  
    1063A      3.123539  1064A      3.141761  1065A      3.142084  
    1066A      3.146759  1067A      3.150454  1068A      3.152654  
    1069A      3.185444  1070A      3.190617  1071A      3.201755  
    1072A      3.204125  1073A      3.205984  1074A      3.211472  
    1075A      3.221104  1076A      3.221677  1077A      3.222144  
    1078A      3.222681  1079A      3.224615  1080A      3.232979  
    1081A      3.233766  1082A      3.239871  1083A      3.240304  
    1084A      3.263970  1085A      3.283021  1086A      3.295764  
    1087A      3.313405  1088A      3.328233  1089A      3.351910  
    1090A      3.352647  1091A      3.354600  1092A      3.358501  
    1093A      3.363583  1094A      3.495381  1095A      3.496422  
    1096A      3.531895  1097A      3.561848  1098A      3.566147  
    1099A      3.631352  1100A      3.659595  1101A      3.663374  
    1102A      3.675149  1103A      3.703299  1104A      3.706056  
    1105A      3.739157  1106A      3.747020  1107A      3.846393  
    1108A      3.864227  1109A      3.865859  1110A      3.944837  
    1111A      3.944934  1112A      3.988132  1113A      3.988908  
    1114A      4.054425  1115A      4.088527  1116A      4.125587  
    1117A      4.141306  1118A      4.169098  1119A      4.170035  
    1120A      4.171114  1121A      4.171825  1122A      4.198159  
    1123A      4.198298  1124A      4.199471  1125A      4.205600  
    1126A      4.206653  1127A      4.236127  1128A      4.243064  
    1129A      4.258295  1130A      4.444745  1131A      4.445121  
    1132A      4.445688  1133A      4.647667  1134A      4.656285  
    1135A      4.658734  1136A      4.746857  1137A      4.782338  
    1138A      4.783736  

    Final Occupation by Irrep:
              A 
    DOCC [   192 ]
    NA   [   192 ]
    NB   [   192 ]

  @DF-RHF Final Energy: -2478.66235467992874

   => Energetics <=

    Nuclear Repulsion Energy =           7813.5022042177215553
    One-Electron Energy =              -18983.9042409145149577
    Two-Electron Energy =                8691.7396820168632985
    Total Energy =                      -2478.6623546799291944

Computation Completed


Properties will be evaluated at   0.000000,   0.000000,   0.000000 [a0]

Properties computed using the SCF density matrix


 Multipole Moments:

 ------------------------------------------------------------------------------------
     Multipole            Electronic (a.u.)      Nuclear  (a.u.)        Total (a.u.)
 ------------------------------------------------------------------------------------

 L = 1.  Multiply by 2.5417464519 to convert [e a0] to [Debye]
 Dipole X            :         -0.0002348           -0.0000160           -0.0002508
 Dipole Y            :          0.0012216           -0.0001716            0.0010500
 Dipole Z            :         20.8378471          -26.9732930           -6.1354459
 Magnitude           :                                                    6.1354460

 ------------------------------------------------------------------------------------

*** tstop() called on d-17-1-1 at Mon Jan 22 11:59:55 2024
Module time:
	user time   =    3609.07 seconds =      60.15 minutes
	system time =     125.32 seconds =       2.09 minutes
	total time  =        455 seconds =       7.58 minutes
Total time:
	user time   =    3609.07 seconds =      60.15 minutes
	system time =     125.32 seconds =       2.09 minutes
	total time  =        455 seconds =       7.58 minutes

  //>>>>>>>>>>>>>>>>>>>>>>>>>>>>>>>>>>>//
  //            Monomer A HF           //
  //<<<<<<<<<<<<<<<<<<<<<<<<<<<<<<<<<<<//

   => Libint2 <=

    Primary   basis highest AM E, G, H:  7, 7, 4
    Auxiliary basis highest AM E, G, H:  7, 7, 5
    Onebody   basis highest AM E, G, H:  7, 7, 5
    Solid Harmonics ordering:            gaussian

*** tstart() called on d-17-1-1
*** at Mon Jan 22 11:59:55 2024

   => Loading Basis Set <=

    Name: JUN-CC-PVDZ
    Role: ORBITAL
    Keyword: BASIS
    atoms 1     entry B          line   130 file /home/gridsan/tfroembgen/.conda/envs/psi4test/share/psi4/basis/jun-cc-pvdz.gbs 
    atoms 2-5   entry F          line   266 file /home/gridsan/tfroembgen/.conda/envs/psi4test/share/psi4/basis/jun-cc-pvdz.gbs 
    atoms 6-59  entry C          line   164 file /home/gridsan/tfroembgen/.conda/envs/psi4test/share/psi4/basis/jun-cc-pvdz.gbs 
    atoms 60-77 entry H          line    36 file /home/gridsan/tfroembgen/.conda/envs/psi4test/share/psi4/basis/jun-cc-pvdz.gbs 


         ---------------------------------------------------------
                                   SCF
               by Justin Turney, Rob Parrish, Andy Simmonett
                          and Daniel G. A. Smith
                              RHF Reference
                       12 Threads,  30517 MiB Core
         ---------------------------------------------------------

  ==> Geometry <==

    Molecular point group: c1
    Full point group: C1

    Geometry (in Angstrom), charge = -1, multiplicity = 1:

       Center              X                  Y                   Z               Mass       
    ------------   -----------------  -----------------  -----------------  -----------------
         B           -0.000046449334     0.000336519434     3.891709727517    11.009305360000
         F           -1.153597449334     0.000047519434     4.707356727517    18.998403162730
         F            1.153660550666    -0.000581480566     4.707356727517    18.998403162730
         F           -0.000019449334    -1.153637480566     3.076075727517    18.998403162730
         F           -0.000019449334     1.153977519434     3.076075727517    18.998403162730
      Gh(C)           1.225311925931     0.707538180353    -0.502146645200    12.000000000000
      Gh(C)           1.225323886559    -0.707539003137    -0.514477454770    12.000000000000
      Gh(C)          -0.000006123424     1.414965805524    -0.515011078291    12.000000000000
      Gh(C)           2.456448784457     1.418327778612    -0.499259787800    12.000000000000
      Gh(C)           0.000010857787    -1.414976607201    -0.504811520966    12.000000000000
      Gh(C)          -1.225300918401     0.707545265418    -0.499895124877    12.000000000000
      Gh(C)           2.456437785828    -1.418323412447    -0.516722611627    12.000000000000
      Gh(C)          -0.000001302470     2.836800922715    -0.517414628425    12.000000000000
      Gh(C)           3.681826727978     0.709317847435    -0.516373821829    12.000000000000
      Gh(C)           2.455120079373     2.834223552923    -0.516476378790    12.000000000000
      Gh(C)           3.681821135726    -0.709333947995    -0.500301337811    12.000000000000
      Gh(C)          -1.225313568180    -0.707527624110    -0.513404693343    12.000000000000
      Gh(C)           1.226699611710     3.543469375428    -0.500117305880    12.000000000000
      Gh(C)           0.000004815365    -2.836782247802    -0.499963353345    12.000000000000
      Gh(C)          -2.456436002341     1.418316809719    -0.499859729031    12.000000000000
      Gh(C)           2.455123448287    -2.834230137155    -0.500453246178    12.000000000000
      Gh(C)          -1.226714334082     3.543468955184    -0.500013972661    12.000000000000
      Gh(C)           4.914517325709     1.427172763923    -0.509893138800    12.000000000000
      Gh(C)           3.693150221984     3.542795183979    -0.509843339163    12.000000000000
      Gh(C)          -2.456437569560    -1.418313389406    -0.516747649752    12.000000000000
      Gh(C)           1.226704872451    -3.543474350473    -0.516087436630    12.000000000000
      Gh(C)          -2.455125368000     2.834216554068    -0.516470002443    12.000000000000
      Gh(C)           4.914524411290    -1.427187018510    -0.506920396065    12.000000000000
      Gh(C)           1.221424644206     4.970133956694    -0.506781961805    12.000000000000
      Gh(C)           4.893008259828     2.825187891460    -0.508676470441    12.000000000000
      Gh(C)          -1.226696977981    -3.543471105643    -0.515820232220    12.000000000000
      Gh(C)          -3.681818946018     0.709324858166    -0.516361141349    12.000000000000
      Gh(C)           3.693147131658    -3.542801449957    -0.506802505504    12.000000000000
      Gh(C)          -1.221432221486     4.970128189296    -0.506598466433    12.000000000000
      Gh(C)           6.134771003434     0.680547838539    -0.509123364250    12.000000000000
      Gh(C)           3.656788911118     4.972953135001    -0.508934701381    12.000000000000
      Gh(C)          -2.455126877226    -2.834215201627    -0.500697603976    12.000000000000
      Gh(C)          -3.681819148553    -0.709325812035    -0.500183716232    12.000000000000
      Gh(C)           4.893012648421    -2.825200214198    -0.508065318545    12.000000000000
      Gh(C)          -0.000001042605     5.650447257466    -0.507829775140    12.000000000000
      Gh(C)           6.134775142840    -0.680554962641    -0.507858043734    12.000000000000
      Gh(C)           2.478131513363     5.653576642765    -0.507645921731    12.000000000000
      Gh(C)           1.221422435245    -4.970127163499    -0.509581458828    12.000000000000
      Gh(C)          -3.693162353457     3.542796845626    -0.509677831704    12.000000000000
      Gh(C)          -1.221428490437    -4.970118412162    -0.509694220661    12.000000000000
      Gh(C)          -4.914521777434     1.427175338429    -0.509816193792    12.000000000000
      Gh(C)           3.656787050187    -4.972955334806    -0.507484200847    12.000000000000
      Gh(C)          -2.478138499598     5.653574313962    -0.507361396722    12.000000000000
      Gh(C)          -3.693141708056    -3.542790327545    -0.506918631660    12.000000000000
      Gh(C)          -4.914512452545    -1.427181108594    -0.506885698891    12.000000000000
      Gh(C)          -0.000005978418    -5.650438395580    -0.508225279261    12.000000000000
      Gh(C)          -4.893020453593     2.825188490353    -0.508686552301    12.000000000000
      Gh(C)           2.478126023806    -5.653573652455    -0.508574801639    12.000000000000
      Gh(C)          -3.656798679750     4.972956073475    -0.508758021006    12.000000000000
      Gh(C)          -4.892999448349    -2.825191875626    -0.508219354243    12.000000000000
      Gh(C)          -2.478128467575    -5.653566278573    -0.508849989286    12.000000000000
      Gh(C)          -6.134770472823     0.680548657690    -0.509148915952    12.000000000000
      Gh(C)          -3.656788802681    -4.972944131537    -0.507698488663    12.000000000000
      Gh(C)          -6.134765012405    -0.680554024048    -0.507878519529    12.000000000000
      Gh(H)           5.835288526324     3.369275786388    -0.504317144778     1.007825032230
      Gh(H)           7.073859203255     1.228217140333    -0.508661720856     1.007825032230
      Gh(H)           4.600663294682     5.512380693887    -0.508429500629     1.007825032230
      Gh(H)           5.835283417813    -3.369306165295    -0.512519785860     1.007825032230
      Gh(H)          -0.000012120798     6.738530565570    -0.512179020147     1.007825032230
      Gh(H)           7.073861202338    -1.228227051310    -0.508366781828     1.007825032230
      Gh(H)           2.473313762307     6.740684182828    -0.508112642661     1.007825032230
      Gh(H)           4.600668521889    -5.512376237742    -0.507894198015     1.007825032230
      Gh(H)          -2.473318650030     6.740681611040    -0.507811296036     1.007825032230
      Gh(H)          -0.000010237720    -6.738528285018    -0.503695594276     1.007825032230
      Gh(H)          -5.835301883836     3.369270841730    -0.504181122630     1.007825032230
      Gh(H)           2.473307954339    -6.740685482995    -0.508004471214     1.007825032230
      Gh(H)          -4.600674810700     5.512377918037    -0.508264172305     1.007825032230
      Gh(H)          -5.835279476327    -3.369289072346    -0.512799091741     1.007825032230
      Gh(H)          -2.473300316932    -6.740679186706    -0.508453787758     1.007825032230
      Gh(H)          -7.073857736260     1.228220364274    -0.508745712337     1.007825032230
      Gh(H)          -4.600673755577    -5.512362778353    -0.508066506038     1.007825032230
      Gh(H)          -7.073856903901    -1.228220740543    -0.508461638295     1.007825032230

  Running in c1 symmetry.

  Rotational constants: A =      0.00183  B =      0.00183  C =      0.00110 [cm^-1]
  Rotational constants: A =     54.98144  B =     54.97423  C =     33.02250 [MHz]
  Nuclear repulsion =  178.879482610381331

  Charge       = -1
  Multiplicity = 1
  Electrons    = 42
  Nalpha       = 21
  Nbeta        = 21

  ==> Algorithm <==

  SCF Algorithm Type is DF.
  DIIS enabled.
  MOM disabled.
  Fractional occupation disabled.
  Guess Type is SAD.
  Energy threshold   = 1.00e-08
  Density threshold  = 1.00e-08
  Integral threshold = 1.00e-12

  ==> Primary Basis <==

  Basis Set: JUN-CC-PVDZ
    Blend: JUN-CC-PVDZ
    Number of shells: 526
    Number of basis functions: 1152
    Number of Cartesian functions: 1211
    Spherical Harmonics?: true
    Max angular momentum: 2

   => Loading Basis Set <=

    Name: (JUN-CC-PVDZ AUX)
    Role: JKFIT
    Keyword: DF_BASIS_SCF
    atoms 1     entry B          line    90 file /home/gridsan/tfroembgen/.conda/envs/psi4test/share/psi4/basis/jun-cc-pvdz-jkfit.gbs 
    atoms 2-5   entry F          line   314 file /home/gridsan/tfroembgen/.conda/envs/psi4test/share/psi4/basis/jun-cc-pvdz-jkfit.gbs 
    atoms 6-59  entry C          line   146 file /home/gridsan/tfroembgen/.conda/envs/psi4test/share/psi4/basis/jun-cc-pvdz-jkfit.gbs 
    atoms 60-77 entry H          line    70 file /home/gridsan/tfroembgen/.conda/envs/psi4test/share/psi4/basis/jun-cc-pvdz-jkfit.gbs 

  ==> Integral Setup <==

  ==> DiskDFJK: Density-Fitted J/K Matrices <==

    J tasked:                  Yes
    K tasked:                  Yes
    wK tasked:                  No
    OpenMP threads:             12
    Integrals threads:          12
    Memory [MiB]:            22888
    Algorithm:                Core
    Integral Cache:           LOAD
    Schwarz Cutoff:          1E-12
    Fitting Condition:       1E-10

   => Auxiliary Basis Set <=

  Basis Set: (JUN-CC-PVDZ AUX)
    Blend: JUN-CC-PVDZ-JKFIT
    Number of shells: 1755
    Number of basis functions: 5075
    Number of Cartesian functions: 5819
    Spherical Harmonics?: true
    Max angular momentum: 3

  Minimum eigenvalue in the overlap matrix is 7.7146001864E-10.
  Reciprocal condition number of the overlap matrix is 3.3586479920E-11.
    Using canonical orthogonalization.
  Overall, 14 of 1152 possible MOs eliminated.


  ==> Pre-Iterations <==

  SCF Guess: Superposition of Atomic Densities via on-the-fly atomic UHF (no occupation information).

   -------------------------
    Irrep   Nso     Nmo    
   -------------------------
     A       1152    1138 
   -------------------------
    Total    1152    1138
   -------------------------

  ==> Iterations <==

                           Total Energy        Delta E     RMS |[F,P]|

   @DF-RHF iter SAD:  -421.23044840185412   -4.21230e+02   0.00000e+00 
   @DF-RHF iter   1:  -422.65066106089432   -1.42021e+00   5.30373e-04 ADIIS/DIIS
   @DF-RHF iter   2:  -422.73356615400837   -8.29051e-02   3.23520e-04 ADIIS/DIIS
   @DF-RHF iter   3:  -422.77211405004937   -3.85479e-02   1.74513e-05 DIIS
   @DF-RHF iter   4:  -422.77247585289126   -3.61803e-04   2.76946e-06 DIIS
   @DF-RHF iter   5:  -422.77248455685026   -8.70396e-06   7.12868e-07 DIIS
   @DF-RHF iter   6:  -422.77248513276356   -5.75913e-07   1.46403e-07 DIIS
   @DF-RHF iter   7:  -422.77248515449924   -2.17357e-08   1.51997e-08 DIIS
   @DF-RHF iter   8:  -422.77248515473207   -2.32831e-10   5.30870e-09 DIIS
  Energy and wave function converged.


  ==> Post-Iterations <==

    Orbital Energies [Eh]
    ---------------------

    Doubly Occupied:                                                      

       1A    -26.067074     2A    -26.067041     3A    -26.067021  
       4A    -26.066850     5A     -7.538918     6A     -1.410770  
       7A     -1.351188     8A     -1.351076     9A     -1.350859  
      10A     -0.602047    11A     -0.528254    12A     -0.528236  
      13A     -0.528155    14A     -0.447108    15A     -0.447069  
      16A     -0.408367    17A     -0.408307    18A     -0.408263  
      19A     -0.384907    20A     -0.384770    21A     -0.384668  

    Virtual:                                                              

      22A      0.088908    23A      0.089437    24A      0.089616  
      25A      0.096427    26A      0.096452    27A      0.107924  
      28A      0.108534    29A      0.117035    30A      0.124172  
      31A      0.124193    32A      0.130332    33A      0.130367  
      34A      0.142158    35A      0.142175    36A      0.143109  
      37A      0.145196    38A      0.146287    39A      0.146435  
      40A      0.146474    41A      0.156393    42A      0.158109  
      43A      0.158135    44A      0.163562    45A      0.163721  
      46A      0.166810    47A      0.173555    48A      0.176249  
      49A      0.178273    50A      0.178886    51A      0.179063  
      52A      0.179102    53A      0.185626    54A      0.186623  
      55A      0.186854    56A      0.186955    57A      0.191113  
      58A      0.192843    59A      0.193114    60A      0.199412  
      61A      0.199451    62A      0.200326    63A      0.200998  
      64A      0.202312    65A      0.202323    66A      0.204476  
      67A      0.210614    68A      0.210779    69A      0.212032  
      70A      0.212109    71A      0.217858    72A      0.218968  
      73A      0.221708    74A      0.221766    75A      0.222827  
      76A      0.226947    77A      0.228331    78A      0.231059  
      79A      0.231091    80A      0.232581    81A      0.232745  
      82A      0.232804    83A      0.236399    84A      0.240164  
      85A      0.243513    86A      0.243544    87A      0.245249  
      88A      0.245634    89A      0.250560    90A      0.253508  
      91A      0.257673    92A      0.258632    93A      0.262083  
      94A      0.264416    95A      0.266439    96A      0.267632  
      97A      0.267865    98A      0.268453    99A      0.268620  
     100A      0.269628   101A      0.274333   102A      0.274872  
     103A      0.278049   104A      0.279204   105A      0.282234  
     106A      0.282243   107A      0.286758   108A      0.286771  
     109A      0.290404   110A      0.292815   111A      0.293284  
     112A      0.296955   113A      0.298953   114A      0.299847  
     115A      0.301045   116A      0.301608   117A      0.302815  
     118A      0.305501   119A      0.305856   120A      0.307757  
     121A      0.310478   122A      0.314264   123A      0.317066  
     124A      0.322354   125A      0.323234   126A      0.326014  
     127A      0.326135   128A      0.327369   129A      0.327450  
     130A      0.328440   131A      0.330039   132A      0.333569  
     133A      0.337677   134A      0.338435   135A      0.343562  
     136A      0.344185   137A      0.346879   138A      0.349334  
     139A      0.350798   140A      0.350851   141A      0.351143  
     142A      0.353852   143A      0.353988   144A      0.355671  
     145A      0.356358   146A      0.356367   147A      0.362281  
     148A      0.366252   149A      0.375329   150A      0.378000  
     151A      0.380928   152A      0.381034   153A      0.382305  
     154A      0.382820   155A      0.386946   156A      0.389880  
     157A      0.390662   158A      0.395172   159A      0.398344  
     160A      0.398473   161A      0.399090   162A      0.402989  
     163A      0.403920   164A      0.405855   165A      0.406174  
     166A      0.408624   167A      0.410300   168A      0.410358  
     169A      0.416049   170A      0.416890   171A      0.420088  
     172A      0.426301   173A      0.429585   174A      0.430464  
     175A      0.430498   176A      0.432499   177A      0.433786  
     178A      0.436962   179A      0.438359   180A      0.438597  
     181A      0.438831   182A      0.439825   183A      0.440083  
     184A      0.443087   185A      0.443322   186A      0.445536  
     187A      0.450004   188A      0.452200   189A      0.454048  
     190A      0.454280   191A      0.457812   192A      0.458114  
     193A      0.460851   194A      0.462373   195A      0.463692  
     196A      0.464410   197A      0.469330   198A      0.477124  
     199A      0.477371   200A      0.477417   201A      0.484026  
     202A      0.487743   203A      0.489739   204A      0.490754  
     205A      0.491624   206A      0.493083   207A      0.496249  
     208A      0.499669   209A      0.500934   210A      0.502697  
     211A      0.504151   212A      0.505488   213A      0.507550  
     214A      0.508828   215A      0.511976   216A      0.512018  
     217A      0.513554   218A      0.514119   219A      0.514838  
     220A      0.516466   221A      0.517219   222A      0.518415  
     223A      0.521246   224A      0.522024   225A      0.523587  
     226A      0.527406   227A      0.527904   228A      0.531249  
     229A      0.532158   230A      0.536624   231A      0.536776  
     232A      0.542089   233A      0.542673   234A      0.544699  
     235A      0.548085   236A      0.553512   237A      0.555735  
     238A      0.557071   239A      0.559063   240A      0.559384  
     241A      0.560000   242A      0.561900   243A      0.562119  
     244A      0.565598   245A      0.567944   246A      0.570984  
     247A      0.575373   248A      0.578287   249A      0.579352  
     250A      0.581152   251A      0.581903   252A      0.585979  
     253A      0.587613   254A      0.591578   255A      0.592778  
     256A      0.593324   257A      0.594462   258A      0.598595  
     259A      0.600235   260A      0.601876   261A      0.601987  
     262A      0.602050   263A      0.604044   264A      0.605476  
     265A      0.605674   266A      0.607705   267A      0.611527  
     268A      0.617152   269A      0.623332   270A      0.627204  
     271A      0.627509   272A      0.628980   273A      0.629874  
     274A      0.633872   275A      0.639057   276A      0.641539  
     277A      0.642564   278A      0.643355   279A      0.644669  
     280A      0.650220   281A      0.651257   282A      0.653070  
     283A      0.653844   284A      0.656548   285A      0.656620  
     286A      0.660853   287A      0.667116   288A      0.668767  
     289A      0.671765   290A      0.673936   291A      0.675258  
     292A      0.679014   293A      0.683203   294A      0.685744  
     295A      0.688007   296A      0.688089   297A      0.688469  
     298A      0.690665   299A      0.693217   300A      0.693242  
     301A      0.694158   302A      0.696947   303A      0.700010  
     304A      0.713171   305A      0.718914   306A      0.719150  
     307A      0.719269   308A      0.720941   309A      0.721834  
     310A      0.722350   311A      0.723111   312A      0.725024  
     313A      0.726688   314A      0.728869   315A      0.739256  
     316A      0.742795   317A      0.744103   318A      0.745417  
     319A      0.746992   320A      0.754536   321A      0.755323  
     322A      0.755974   323A      0.757116   324A      0.757534  
     325A      0.759583   326A      0.761891   327A      0.764631  
     328A      0.764757   329A      0.775717   330A      0.777273  
     331A      0.778361   332A      0.780514   333A      0.787781  
     334A      0.792291   335A      0.792479   336A      0.794019  
     337A      0.801034   338A      0.806351   339A      0.809416  
     340A      0.809973   341A      0.812101   342A      0.812196  
     343A      0.817882   344A      0.819271   345A      0.819418  
     346A      0.820196   347A      0.820593   348A      0.826424  
     349A      0.831454   350A      0.833663   351A      0.836082  
     352A      0.836909   353A      0.844097   354A      0.850132  
     355A      0.850508   356A      0.854031   357A      0.855424  
     358A      0.856214   359A      0.859932   360A      0.864233  
     361A      0.864416   362A      0.866880   363A      0.867760  
     364A      0.869068   365A      0.870489   366A      0.872598  
     367A      0.874179   368A      0.876864   369A      0.878170  
     370A      0.882279   371A      0.883736   372A      0.884474  
     373A      0.884636   374A      0.887281   375A      0.888477  
     376A      0.889979   377A      0.901160   378A      0.901248  
     379A      0.902952   380A      0.909866   381A      0.910059  
     382A      0.924867   383A      0.925428   384A      0.931350  
     385A      0.945193   386A      0.956344   387A      0.957585  
     388A      0.960697   389A      0.960867   390A      0.968652  
     391A      0.972263   392A      0.973263   393A      0.974064  
     394A      0.976707   395A      0.977060   396A      0.980409  
     397A      0.986542   398A      1.010776   399A      1.014064  
     400A      1.015810   401A      1.026222   402A      1.028070  
     403A      1.029141   404A      1.035923   405A      1.036095  
     406A      1.044042   407A      1.047619   408A      1.048057  
     409A      1.055581   410A      1.058365   411A      1.066522  
     412A      1.066571   413A      1.093032   414A      1.093160  
     415A      1.119769   416A      1.120596   417A      1.138691  
     418A      1.138915   419A      1.140764   420A      1.141631  
     421A      1.142670   422A      1.154227   423A      1.154283  
     424A      1.175579   425A      1.176452   426A      1.176725  
     427A      1.186919   428A      1.242969   429A      1.243223  
     430A      1.243699   431A      1.244794   432A      1.245225  
     433A      1.257543   434A      1.257692   435A      1.260576  
     436A      1.279672   437A      1.280087   438A      1.302024  
     439A      1.302180   440A      1.304280   441A      1.309343  
     442A      1.318336   443A      1.360942   444A      1.366929  
     445A      1.376081   446A      1.382316   447A      1.382857  
     448A      1.389017   449A      1.389201   450A      1.391732  
     451A      1.401979   452A      1.402115   453A      1.413792  
     454A      1.417647   455A      1.440944   456A      1.455983  
     457A      1.456095   458A      1.498145   459A      1.533626  
     460A      1.535312   461A      1.545466   462A      1.550560  
     463A      1.552632   464A      1.558614   465A      1.559214  
     466A      1.561058   467A      1.571698   468A      1.572904  
     469A      1.591777   470A      1.636640   471A      1.642941  
     472A      1.643581   473A      1.645376   474A      1.650188  
     475A      1.659826   476A      1.661554   477A      1.663744  
     478A      1.670829   479A      1.717470   480A      1.724434  
     481A      1.731277   482A      1.741894   483A      1.744436  
     484A      1.747367   485A      1.760033   486A      1.760590  
     487A      1.771295   488A      1.774617   489A      1.779281  
     490A      1.787574   491A      1.792166   492A      1.825683  
     493A      1.826124   494A      1.826898   495A      1.827485  
     496A      1.830430   497A      1.831982   498A      1.836908  
     499A      1.837565   500A      1.853699   501A      1.856977  
     502A      1.859708   503A      1.860706   504A      1.872369  
     505A      1.872955   506A      1.877162   507A      1.878403  
     508A      1.894337   509A      1.899622   510A      1.908524  
     511A      1.909048   512A      1.909597   513A      1.910198  
     514A      1.911700   515A      1.912110   516A      1.913735  
     517A      1.918741   518A      1.919367   519A      1.921606  
     520A      1.928831   521A      1.929947   522A      1.932212  
     523A      1.938976   524A      1.940949   525A      1.941912  
     526A      1.957105   527A      1.964230   528A      1.965132  
     529A      1.966429   530A      1.966839   531A      1.967933  
     532A      1.972124   533A      1.974776   534A      1.986925  
     535A      1.987370   536A      1.990584   537A      1.993817  
     538A      1.995770   539A      1.997844   540A      1.998622  
     541A      2.000181   542A      2.000907   543A      2.003988  
     544A      2.010222   545A      2.012791   546A      2.014021  
     547A      2.018964   548A      2.020746   549A      2.021226  
     550A      2.030610   551A      2.033640   552A      2.037430  
     553A      2.038445   554A      2.051539   555A      2.052059  
     556A      2.053582   557A      2.054570   558A      2.056664  
     559A      2.066214   560A      2.067643   561A      2.071336  
     562A      2.072285   563A      2.072803   564A      2.077183  
     565A      2.079319   566A      2.080711   567A      2.082404  
     568A      2.083009   569A      2.085908   570A      2.088309  
     571A      2.093564   572A      2.101665   573A      2.108810  
     574A      2.111798   575A      2.112625   576A      2.120941  
     577A      2.122770   578A      2.124915   579A      2.156380  
     580A      2.156616   581A      2.157770   582A      2.160508  
     583A      2.164199   584A      2.171715   585A      2.172555  
     586A      2.174178   587A      2.174516   588A      2.176630  
     589A      2.178075   590A      2.179015   591A      2.184731  
     592A      2.198725   593A      2.199176   594A      2.202002  
     595A      2.206117   596A      2.206326   597A      2.214693  
     598A      2.216675   599A      2.217956   600A      2.219248  
     601A      2.221329   602A      2.222381   603A      2.224206  
     604A      2.225775   605A      2.229802   606A      2.230600  
     607A      2.231849   608A      2.234546   609A      2.236896  
     610A      2.238761   611A      2.238961   612A      2.241367  
     613A      2.242886   614A      2.243153   615A      2.244423  
     616A      2.245608   617A      2.246083   618A      2.246589  
     619A      2.249870   620A      2.251543   621A      2.253345  
     622A      2.257995   623A      2.258401   624A      2.261361  
     625A      2.265721   626A      2.266374   627A      2.266567  
     628A      2.268684   629A      2.269104   630A      2.271003  
     631A      2.273390   632A      2.273605   633A      2.273936  
     634A      2.275642   635A      2.280391   636A      2.286482  
     637A      2.292144   638A      2.301352   639A      2.304413  
     640A      2.306253   641A      2.309290   642A      2.317702  
     643A      2.321517   644A      2.322594   645A      2.324581  
     646A      2.327773   647A      2.331943   648A      2.336756  
     649A      2.337935   650A      2.339438   651A      2.347538  
     652A      2.351807   653A      2.354706   654A      2.355098  
     655A      2.357115   656A      2.357939   657A      2.358995  
     658A      2.360476   659A      2.368183   660A      2.368902  
     661A      2.373537   662A      2.374356   663A      2.380182  
     664A      2.390464   665A      2.392277   666A      2.399358  
     667A      2.410806   668A      2.415044   669A      2.415569  
     670A      2.416176   671A      2.419947   672A      2.422768  
     673A      2.431521   674A      2.431931   675A      2.440791  
     676A      2.445668   677A      2.449839   678A      2.452214  
     679A      2.453659   680A      2.455510   681A      2.457198  
     682A      2.458011   683A      2.461072   684A      2.462854  
     685A      2.463082   686A      2.472985   687A      2.473253  
     688A      2.474987   689A      2.478615   690A      2.478904  
     691A      2.480856   692A      2.481235   693A      2.488011  
     694A      2.492955   695A      2.496112   696A      2.501955  
     697A      2.504262   698A      2.504693   699A      2.512623  
     700A      2.526931   701A      2.529015   702A      2.529732  
     703A      2.541610   704A      2.541888   705A      2.543357  
     706A      2.547488   707A      2.548233   708A      2.553383  
     709A      2.555718   710A      2.557475   711A      2.565039  
     712A      2.565902   713A      2.571844   714A      2.573552  
     715A      2.575522   716A      2.582167   717A      2.585759  
     718A      2.587041   719A      2.587750   720A      2.596440  
     721A      2.600224   722A      2.606128   723A      2.608385  
     724A      2.609194   725A      2.618607   726A      2.619566  
     727A      2.624532   728A      2.628452   729A      2.633371  
     730A      2.634424   731A      2.635256   732A      2.637888  
     733A      2.639311   734A      2.643591   735A      2.643884  
     736A      2.645974   737A      2.648420   738A      2.654581  
     739A      2.663882   740A      2.664460   741A      2.669727  
     742A      2.688326   743A      2.688446   744A      2.707400  
     745A      2.707681   746A      2.707818   747A      2.713192  
     748A      2.713976   749A      2.714628   750A      2.717897  
     751A      2.718535   752A      2.727234   753A      2.734033  
     754A      2.736627   755A      2.737435   756A      2.737877  
     757A      2.740247   758A      2.742798   759A      2.744373  
     760A      2.746911   761A      2.758540   762A      2.763542  
     763A      2.772906   764A      2.774882   765A      2.783206  
     766A      2.784702   767A      2.788351   768A      2.791798  
     769A      2.798304   770A      2.799660   771A      2.801025  
     772A      2.801088   773A      2.802265   774A      2.806765  
     775A      2.806973   776A      2.825503   777A      2.830042  
     778A      2.830364   779A      2.831724   780A      2.836463  
     781A      2.837100   782A      2.840573   783A      2.842676  
     784A      2.842990   785A      2.851552   786A      2.870822  
     787A      2.879815   788A      2.893067   789A      2.906930  
[...]
     715A      1.413356   716A      1.415000   717A      1.415265  
     718A      1.418057   719A      1.420797   720A      1.424348  
     721A      1.429767   722A      1.433466   723A      1.437013  
     724A      1.438377   725A      1.440445   726A      1.441720  
     727A      1.445030   728A      1.446951   729A      1.449797  
     730A      1.450369   731A      1.450994   732A      1.451348  
     733A      1.456825   734A      1.470788   735A      1.473606  
     736A      1.478069   737A      1.487982   738A      1.517085  
     739A      1.518281   740A      1.521951   741A      1.522648  
     742A      1.534927   743A      1.552431   744A      1.581095  
     745A      1.601980   746A      1.603250   747A      1.605359  
     748A      1.609999   749A      1.612821   750A      1.613313  
     751A      1.613526   752A      1.614352   753A      1.622951  
     754A      1.625278   755A      1.626456   756A      1.634942  
     757A      1.635956   758A      1.642110   759A      1.642787  
     760A      1.643672   761A      1.645463   762A      1.646955  
     763A      1.647258   764A      1.651989   765A      1.661446  
     766A      1.661895   767A      1.667905   768A      1.675675  
     769A      1.677142   770A      1.677192   771A      1.677383  
     772A      1.677609   773A      1.683792   774A      1.683940  
     775A      1.687906   776A      1.690054   777A      1.690140  
     778A      1.698861   779A      1.699223   780A      1.699757  
     781A      1.702067   782A      1.704567   783A      1.704710  
     784A      1.708150   785A      1.715929   786A      1.716315  
     787A      1.742055   788A      1.746753   789A      1.751841  
     790A      1.760929   791A      1.761164   792A      1.761613  
     793A      1.762294   794A      1.767787   795A      1.774603  
     796A      1.780464   797A      1.780721   798A      1.792894  
     799A      1.793368   800A      1.804017   801A      1.816885  
     802A      1.817876   803A      1.819855   804A      1.825058  
     805A      1.825120   806A      1.832631   807A      1.835000  
     808A      1.840909   809A      1.842554   810A      1.843891  
     811A      1.854807   812A      1.861267   813A      1.862259  
     814A      1.865466   815A      1.868513   816A      1.869885  
     817A      1.873048   818A      1.873647   819A      1.880415  
     820A      1.880473   821A      1.896757   822A      1.896860  
     823A      1.899848   824A      1.903552   825A      1.904805  
     826A      1.909120   827A      1.909415   828A      1.917238  
     829A      1.917951   830A      1.918109   831A      1.919926  
     832A      1.921264   833A      1.922334   834A      1.922578  
     835A      1.941388   836A      1.942873   837A      1.943245  
     838A      1.944253   839A      1.947294   840A      1.947885  
     841A      1.955099   842A      1.955377   843A      1.958087  
     844A      1.958198   845A      1.960757   846A      1.968619  
     847A      1.984525   848A      1.984754   849A      1.987426  
     850A      1.995702   851A      1.997278   852A      1.999306  
     853A      2.003743   854A      2.008807   855A      2.012834  
     856A      2.014316   857A      2.018905   858A      2.028713  
     859A      2.030577   860A      2.030836   861A      2.031472  
     862A      2.032091   863A      2.032879   864A      2.035427  
     865A      2.048762   866A      2.053169   867A      2.054247  
     868A      2.060125   869A      2.061962   870A      2.062657  
     871A      2.064938   872A      2.070762   873A      2.075531  
     874A      2.075796   875A      2.077762   876A      2.079168  
     877A      2.081595   878A      2.089224   879A      2.090101  
     880A      2.093599   881A      2.095009   882A      2.095618  
     883A      2.097943   884A      2.098797   885A      2.101850  
     886A      2.103993   887A      2.109531   888A      2.109671  
     889A      2.110516   890A      2.111593   891A      2.115083  
     892A      2.118861   893A      2.120134   894A      2.120881  
     895A      2.121868   896A      2.122963   897A      2.123164  
     898A      2.128533   899A      2.129868   900A      2.134711  
     901A      2.136614   902A      2.136789   903A      2.143689  
     904A      2.143855   905A      2.144124   906A      2.157044  
     907A      2.160820   908A      2.163459   909A      2.163478  
     910A      2.164477   911A      2.172792   912A      2.179757  
     913A      2.181541   914A      2.191824   915A      2.192574  
     916A      2.192795   917A      2.195357   918A      2.196174  
     919A      2.196812   920A      2.205414   921A      2.219844  
     922A      2.220661   923A      2.221122   924A      2.229322  
     925A      2.229702   926A      2.234064   927A      2.235216  
     928A      2.243689   929A      2.244822   930A      2.245192  
     931A      2.245655   932A      2.248506   933A      2.260547  
     934A      2.260958   935A      2.270523   936A      2.270899  
     937A      2.272680   938A      2.273160   939A      2.281169  
     940A      2.301007   941A      2.306814   942A      2.313733  
     943A      2.315380   944A      2.323669   945A      2.331392  
     946A      2.331512   947A      2.333728   948A      2.334630  
     949A      2.339075   950A      2.351359   951A      2.353574  
     952A      2.353590   953A      2.354288   954A      2.367560  
     955A      2.368993   956A      2.374931   957A      2.387054  
     958A      2.416352   959A      2.424232   960A      2.424631  
     961A      2.424722   962A      2.436576   963A      2.441786  
     964A      2.441992   965A      2.470734   966A      2.474862  
     967A      2.476557   968A      2.486091   969A      2.487285  
     970A      2.502766   971A      2.521281   972A      2.530453  
     973A      2.531915   974A      2.546343   975A      2.546697  
     976A      2.548161   977A      2.554632   978A      2.554666  
     979A      2.555041   980A      2.560324   981A      2.560436  
     982A      2.573216   983A      2.573314   984A      2.575672  
     985A      2.576251   986A      2.586069   987A      2.586775  
     988A      2.588083   989A      2.590478   990A      2.591869  
     991A      2.609407   992A      2.624544   993A      2.624985  
     994A      2.630266   995A      2.631984   996A      2.633114  
     997A      2.641979   998A      2.642243   999A      2.652222  
    1000A      2.652551  1001A      2.657128  1002A      2.684243  
    1003A      2.684311  1004A      2.686429  1005A      2.689660  
    1006A      2.702948  1007A      2.703697  1008A      2.713274  
    1009A      2.713368  1010A      2.719039  1011A      2.719095  
    1012A      2.724073  1013A      2.724261  1014A      2.740364  
    1015A      2.753455  1016A      2.755230  1017A      2.777746  
    1018A      2.795313  1019A      2.795479  1020A      2.818548  
    1021A      2.827180  1022A      2.828874  1023A      2.835581  
    1024A      2.853648  1025A      2.855016  1026A      2.855338  
    1027A      2.856287  1028A      2.858566  1029A      2.860285  
    1030A      2.861966  1031A      2.871546  1032A      2.890840  
    1033A      2.917919  1034A      2.919156  1035A      2.926496  
    1036A      2.934199  1037A      2.936844  1038A      2.951753  
    1039A      2.953149  1040A      2.964022  1041A      3.010661  
    1042A      3.012417  1043A      3.012953  1044A      3.032374  
    1045A      3.064514  1046A      3.064810  1047A      3.071053  
    1048A      3.072619  1049A      3.112216  1050A      3.113869  
    1051A      3.129455  1052A      3.130345  1053A      3.131901  
    1054A      3.137911  1055A      3.147697  1056A      3.147763  
    1057A      3.148049  1058A      3.149737  1059A      3.149784  
    1060A      3.159429  1061A      3.160609  1062A      3.166766  
    1063A      3.167184  1064A      3.191977  1065A      3.211241  
    1066A      3.220225  1067A      3.239770  1068A      3.275679  
    1069A      3.277352  1070A      3.277475  1071A      3.283525  
    1072A      3.286258  1073A      3.418093  1074A      3.418482  
    1075A      3.445460  1076A      3.483727  1077A      3.487735  
    1078A      3.551921  1079A      3.580541  1080A      3.582440  
    1081A      3.596489  1082A      3.628183  1083A      3.630657  
    1084A      3.663671  1085A      3.671482  1086A      3.770179  
    1087A      3.785571  1088A      3.786588  1089A      3.871403  
    1090A      3.871437  1091A      3.913781  1092A      3.914157  
    1093A      3.977223  1094A      4.011263  1095A      4.045734  
    1096A      4.061143  1097A      4.089140  1098A      4.242517  
    1099A      4.348055  1100A      4.359108  1101A      4.400275  
    1102A      5.752684  1103A      5.753716  1104A      5.760639  
    1105A      5.763319  1106A      5.763925  1107A      5.765174  
    1108A      5.767828  1109A      5.767883  1110A      5.793350  
    1111A      5.798201  1112A      5.809543  1113A      6.024755  
    1114A      6.025788  1115A      6.027212  1116A      6.203659  
    1117A      6.331659  1118A      6.331909  1119A      6.384721  
    1120A      6.386129  1121A      6.386674  1122A      7.195863  
    1123A      7.262784  1124A      7.274638  1125A      7.290767  
    1126A      7.316121  1127A      7.349578  1128A      7.352349  
    1129A      7.362739  1130A      7.499184  1131A      7.550728  
    1132A      7.634969  1133A      7.723345  1134A     12.666053  
    1135A     42.920736  1136A     42.940441  1137A     42.949145  
    1138A     42.955653  

    Final Occupation by Irrep:
              A 
    DOCC [   171 ]
    NA   [   171 ]
    NB   [   171 ]

  @DF-RHF Final Energy: -2055.89344411579259

   => Energetics <=

    Nuclear Repulsion Energy =           6452.5568002797781446
    One-Electron Energy =              -15636.4737908986899129
    Two-Electron Energy =                7128.0235465031200874
    Total Energy =                      -2055.8934441157925903

Computation Completed


Properties will be evaluated at   0.000000,   0.000000,   0.000000 [a0]

Properties computed using the SCF density matrix


 Multipole Moments:

 ------------------------------------------------------------------------------------
     Multipole            Electronic (a.u.)      Nuclear  (a.u.)        Total (a.u.)
 ------------------------------------------------------------------------------------

 L = 1.  Multiply by 2.5417464519 to convert [e a0] to [Debye]
 Dipole X            :          0.0000661            0.0000112            0.0000773
 Dipole Y            :          0.0003062           -0.0000531            0.0002531
 Dipole Z            :        328.4969388         -328.4986225           -0.0016837
 Magnitude           :                                                    0.0017044

 ------------------------------------------------------------------------------------

*** tstop() called on d-17-1-1 at Mon Jan 22 12:10:39 2024
Module time:
	user time   =    2476.53 seconds =      41.28 minutes
	system time =      58.63 seconds =       0.98 minutes
	total time  =        362 seconds =       6.03 minutes
Total time:
	user time   =    7431.99 seconds =     123.87 minutes
	system time =     218.10 seconds =       3.63 minutes
	total time  =       1099 seconds =      18.32 minutes
  Constructing Basis Sets for SAPT...

   => Loading Basis Set <=

    Name: (JUN-CC-PVDZ AUX)
    Role: RIFIT
    Keyword: DF_BASIS_SAPT
    atoms 1     entry B          line    56 file /home/gridsan/tfroembgen/.conda/envs/psi4test/share/psi4/basis/jun-cc-pvdz-ri.gbs 
    atoms 2-5   entry F          line   232 file /home/gridsan/tfroembgen/.conda/envs/psi4test/share/psi4/basis/jun-cc-pvdz-ri.gbs 
    atoms 6-59  entry C          line   100 file /home/gridsan/tfroembgen/.conda/envs/psi4test/share/psi4/basis/jun-cc-pvdz-ri.gbs 
    atoms 60-77 entry H          line    30 file /home/gridsan/tfroembgen/.conda/envs/psi4test/share/psi4/basis/jun-cc-pvdz-ri.gbs 

   => Loading Basis Set <=

    Name: (JUN-CC-PVDZ AUX)
    Role: JKFIT
    Keyword: DF_BASIS_ELST
    atoms 1     entry B          line    90 file /home/gridsan/tfroembgen/.conda/envs/psi4test/share/psi4/basis/jun-cc-pvdz-jkfit.gbs 
    atoms 2-5   entry F          line   314 file /home/gridsan/tfroembgen/.conda/envs/psi4test/share/psi4/basis/jun-cc-pvdz-jkfit.gbs 
    atoms 6-59  entry C          line   146 file /home/gridsan/tfroembgen/.conda/envs/psi4test/share/psi4/basis/jun-cc-pvdz-jkfit.gbs 
    atoms 60-77 entry H          line    70 file /home/gridsan/tfroembgen/.conda/envs/psi4test/share/psi4/basis/jun-cc-pvdz-jkfit.gbs 


  //>>>>>>>>>>>>>>>>>>>>>>>>>>>>>>>>>>>//
  //               SSAPT0              //
  //<<<<<<<<<<<<<<<<<<<<<<<<<<<<<<<<<<<//


*** tstart() called on d-17-1-1
*** at Mon Jan 22 12:10:40 2024

        SAPT0  
    Ed Hohenstein
     6 June 2009

      Orbital Information
  --------------------------
    NSO        =      1152
    NMO        =      1138
    NRI        =      4087
    NRI (Elst) =      5075
    NOCC A     =        21
    NOCC B     =       171
    FOCC A     =         5
    FOCC B     =        54
    NVIR A     =      1117
    NVIR B     =       967

    Elst10,r            =     0.011944054208 [Eh]
    Exch10              =     0.001172822121 [Eh]
    Exch10 (S^2)        =     0.001172778552 [Eh]

    Iter     Energy [mEh]          dE [mEh]         Residual      Time [s]
       1      -0.09373902       0.093739021       1.351260841           152
       2      -0.11143325       0.017694227       0.543130699           330
       3      -0.11333226       0.001899013       0.082504931           350
       4      -0.11311786      -0.000214400       0.023265475           370
       5      -0.11310258      -0.000015279       0.005788852           388
       6      -0.11310990       0.000007322       0.001851099           408
       7      -0.11311251       0.000002609       0.000327068           432
       8      -0.11311195      -0.000000558       0.000088447           452
       9      -0.11311191      -0.000000048       0.000017199           471
      10      -0.11311194       0.000000031       0.000002274           491
      11      -0.11311194      -0.000000002       0.000000519           511

    CHF Iterations converged


    Iter     Energy [mEh]          dE [mEh]         Residual      Time [s]
       1     -14.08728475      14.087284753      62.790385656           132
       2      -9.49699322      -4.590291536       8.154297378           210
       3      -9.47749506      -0.019498155       2.734172340           231
       4      -9.68513588       0.207640821       0.676740381           251
       5      -9.69859682       0.013460933       0.202811065           272
       6      -9.69262680      -0.005970017       0.096643409           290
       7      -9.69133664      -0.001290157       0.040192961           308
       8      -9.69215179       0.000815152       0.018261316           327
       9      -9.69239151       0.000239716       0.009134685           347
      10      -9.69229829      -0.000093224       0.008320445           363
      11      -9.69222354      -0.000074751       0.004565311           379
      12      -9.69224625       0.000022718       0.001840899           398
      13      -9.69226705       0.000020796       0.000652010           417
      14      -9.69226549      -0.000001562       0.000224252           439
      15      -9.69226222      -0.000003266       0.000084094           461
      16      -9.69226280       0.000000573       0.000045228           483
      17      -9.69226321       0.000000411       0.000020726           503
      18      -9.69226319      -0.000000015       0.000007306           522
      19      -9.69226311      -0.000000086       0.000003222           540
      20      -9.69226309      -0.000000015       0.000001504           560
      21      -9.69226311       0.000000018       0.000000834           580

    CHF Iterations converged

    Ind20,r (A<-B)      =    -0.000113111936 [Eh]
    Ind20,r (B<-A)      =    -0.009692263109 [Eh]
    Ind20,r             =    -0.009805375045 [Eh]
    Exch-Ind20,r (A<-B) =     0.000093946878 [Eh]
    Exch-Ind20,r (B<-A) =     0.000164788414 [Eh]
    Exch-Ind20,r        =     0.000258735292 [Eh]
    Disp20              =    -0.004568216503 [Eh]
    Disp20 (SS)         =    -0.002284108251 [Eh]
    Disp20 (OS)         =    -0.002284108251 [Eh]
    Exch-Disp20         =     0.000219448380 [Eh]
    Exch-Disp20 (SS)    =     0.000137504967 [Eh]
    Exch-Disp20 (OS)    =     0.000081943414 [Eh]

    SAPT Results 
  --------------------------------------------------------------------------------------------------------
    Electrostatics                 11.94405421 [mEh]       7.49500717 [kcal/mol]      31.35911000 [kJ/mol]
      Elst10,r                     11.94405421 [mEh]       7.49500717 [kcal/mol]      31.35911000 [kJ/mol]

    Exchange                        1.17282212 [mEh]       0.73595699 [kcal/mol]       3.07924405 [kJ/mol]
      Exch10                        1.17282212 [mEh]       0.73595699 [kcal/mol]       3.07924405 [kJ/mol]
      Exch10(S^2)                   1.17277855 [mEh]       0.73592965 [kcal/mol]       3.07912966 [kJ/mol]

    Induction                      -9.54228573 [mEh]      -5.98787470 [kcal/mol]     -25.05326774 [kJ/mol]
      Ind20,r                      -9.80537504 [mEh]      -6.15296573 [kcal/mol]     -25.74400863 [kJ/mol]
      Exch-Ind20,r                  0.25873529 [mEh]       0.16235885 [kcal/mol]       0.67930942 [kJ/mol]
      delta HF,r (2)                0.00435402 [mEh]       0.00273219 [kcal/mol]       0.01143148 [kJ/mol]

    Dispersion                     -4.34876812 [mEh]      -2.72889320 [kcal/mol]     -11.41768913 [kJ/mol]
      Disp20                       -4.56821650 [mEh]      -2.86659913 [kcal/mol]     -11.99385078 [kJ/mol]
      Exch-Disp20                   0.21944838 [mEh]       0.13770594 [kcal/mol]       0.57616164 [kJ/mol]
      Disp20 (SS)                  -2.28410825 [mEh]      -1.43329957 [kcal/mol]      -5.99692539 [kJ/mol]
      Disp20 (OS)                  -2.28410825 [mEh]      -1.43329957 [kcal/mol]      -5.99692539 [kJ/mol]
      Exch-Disp20 (SS)              0.13750497 [mEh]       0.08628567 [kcal/mol]       0.36101924 [kJ/mol]
      Exch-Disp20 (OS)              0.08194341 [mEh]       0.05142027 [kcal/mol]       0.21514240 [kJ/mol]

  Total HF                          3.57459060 [mEh]       2.24308946 [kcal/mol]       9.38508632 [kJ/mol]
  Total SAPT0                      -0.77417753 [mEh]      -0.48580373 [kcal/mol]      -2.03260282 [kJ/mol]

  Special recipe for scaled SAPT0 (see Manual):
    Electrostatics sSAPT0          11.94405421 [mEh]       7.49500717 [kcal/mol]      31.35911000 [kJ/mol]
    Exchange sSAPT0                 1.17282212 [mEh]       0.73595699 [kcal/mol]       3.07924405 [kJ/mol]
    Induction sSAPT0               -9.54225689 [mEh]      -5.98785660 [kcal/mol]     -25.05319203 [kJ/mol]
    Dispersion sSAPT0              -4.34874366 [mEh]      -2.72887785 [kcal/mol]     -11.41762492 [kJ/mol]
  Total sSAPT0                     -0.77412423 [mEh]      -0.48577029 [kcal/mol]      -2.03246289 [kJ/mol]
  --------------------------------------------------------------------------------------------------------

*** tstop() called on d-17-1-1 at Mon Jan 22 13:07:43 2024
Module time:
	user time   =    7050.87 seconds =     117.51 minutes
	system time =     828.34 seconds =      13.81 minutes
	total time  =       3423 seconds =      57.05 minutes
Total time:
	user time   =   14484.18 seconds =     241.40 minutes
	system time =    1046.46 seconds =      17.44 minutes
	total time  =       4523 seconds =      75.38 minutes

    Psi4 stopped on: Monday, 22 January 2024 01:07PM
    Psi4 wall time for execution: 1:15:25.00

*** Psi4 exiting successfully. Buy a developer a beer!
