
    -----------------------------------------------------------------------
          Psi4: An Open-Source Ab Initio Electronic Structure Package
                               Psi4 1.9 release

                         Git: Rev {} zzzzzzz 


    D. G. A. Smith, L. A. Burns, A. C. Simmonett, R. M. Parrish,
    M. C. Schieber, R. Galvelis, P. Kraus, H. Kruse, R. Di Remigio,
    A. Alenaizan, A. M. James, S. Lehtola, J. P. Misiewicz, M. Scheurer,
    R. A. Shaw, J. B. Schriber, Y. Xie, Z. L. Glick, D. A. Sirianni,
    J. S. O'Brien, J. M. Waldrop, A. Kumar, E. G. Hohenstein,
    B. P. Pritchard, B. R. Brooks, H. F. Schaefer III, A. Yu. Sokolov,
    K. Patkowski, A. E. DePrince III, U. Bozkaya, R. A. King,
    F. A. Evangelista, J. M. Turney, T. D. Crawford, C. D. Sherrill,
    J. Chem. Phys. 152(18) 184108 (2020). https://doi.org/10.1063/5.0006002

                            Additional Code Authors
    E. T. Seidl, C. L. Janssen, E. F. Valeev, M. L. Leininger,
    J. F. Gonthier, R. M. Richard, H. R. McAlexander, M. Saitow, X. Wang,
    P. Verma, M. H. Lechner, A. Jiang, S. Behnle, A. G. Heide,
    M. F. Herbst, and D. L. Poole

             Previous Authors, Complete List of Code Contributors,
                       and Citations for Specific Modules
    https://github.com/psi4/psi4/blob/master/codemeta.json
    https://github.com/psi4/psi4/graphs/contributors
    http://psicode.org/psi4manual/master/introduction.html#citing-psifour

    -----------------------------------------------------------------------


    Psi4 started on: Monday, 22 January 2024 07:19PM

    Process ID: 365379
    Host:       d-16-5-1
    PSIDATADIR: /home/gridsan/tfroembgen/.conda/envs/psi4test/share/psi4
    Memory:     500.0 MiB
    Threads:    12
    
  ==> Input File <==

--------------------------------------------------------------------------
memory 32 GB # how much memory is available ! Depends on the nodes/cores !

molecule dimer {
# monomer A
+1 1    # Charge and multiplicity
C  0.680067 -0.008042 -6.215929
C -0.680504 -0.006014 -6.215545
N -1.085635 -0.005016 -4.897221
C  0.000108 -0.001740 -4.115820
C -2.477365  0.044390 -4.429242
N  1.085222 -0.005016 -4.897221
H  1.385146 -0.015870 -7.033368
H -1.385302 -0.006204 -7.033214
H -0.000009  0.000007 -3.034731
C  2.478117 -0.021908 -4.432123
H  2.490592  0.005437 -3.341870
H  2.967028 -0.935354 -4.779299
H  3.001428  0.853575 -4.823595
H -2.857359  1.066461 -4.509201
H -3.082679 -0.625694 -5.042306
H -2.518128 -0.282594 -3.389294
--
# monomer B
0 1     # Charge and multiplicity
C   1.22531237526482      0.70753866091955      0.00613762728373
C   1.22532433589282     -0.70753852257020     -0.00619318228664
C   -0.00000567409046      1.41496628609039     -0.00672680580738
C   2.45644923379077      1.41832825917820      0.00902448468363
C   0.00001130712078     -1.41497612663474      0.00347275151708
C   -1.22530046906674      0.70754574598412      0.00838914760619
C   2.45643823516184     -1.41832293188077     -0.00843833914343
C   -0.00000085313587      2.83680140328112     -0.00913035594137
C   3.68182717731192      0.70931832800114     -0.00808954934571
C   2.45512052870677      2.83422403348893     -0.00819210630633
C   3.68182158506039     -0.70933346742900      0.00798293467272
C   -1.22531311884624     -0.70752714354401     -0.00512042085974
C   1.22670006104402      3.54346985599427      0.00816696660346
C   0.00000526469929     -2.83678176723568      0.00832091913869
C   -2.45643555300670      1.41831729028492      0.00842454345199
C   2.45512389762097     -2.83422965658853      0.00783102630520
C   -1.22671388474763      3.54346943575023      0.00827029982280
C   4.91451777504333      1.42717324448953     -0.00160886631602
C   3.69315067131765      3.54279566454522     -0.00155906667985
C   -2.45643712022637     -1.41831290883911     -0.00846337726810
C   1.22670532178455     -3.54347386990643     -0.00780316414624
C   -2.45512491866593      2.83421703463423     -0.00818572995999
C   4.91452486062398     -1.42718653794377      0.00136387641845
C   1.22142509354026      4.97013443726031      0.00150231067809
C   4.89300870916237      2.82518837202648     -0.00039219795739
C   -1.22669652864725     -3.54347062507680     -0.00753595973677
C   -3.68181849668397      0.70932533873199     -0.00807686886569
C   3.69314758099218     -3.54280096939050      0.00148176697923
C   -1.22143177215231      4.97012866986289      0.00168580605083
C   6.13477145276790      0.68054831910577     -0.00083909176631
C   3.65678936045204      4.97295361556775     -0.00065042889723
C   -2.45512642789169     -2.83421472106065      0.00758666850712
C   -3.68181869921921     -0.70932533146830      0.00810055625144
C   4.89301309775526     -2.82519973363176      0.00021895393805
C   -0.00000059327114      5.65044773803267      0.00045449734393
C   6.13477559217374     -0.68055448207492      0.00042622874941
C   2.47813196269732      5.65357712333155      0.00063835075260
C   1.22142288457925     -4.97012668293268     -0.00129718634452
C   -3.69316190412301      3.54279732619245     -0.00139355922051
C   -1.22142804110313     -4.97011793159564     -0.00140994817719
C   -4.91452132810043      1.42717581899491     -0.00153192130862
C   3.65678749952045     -4.97295485423912      0.00080007163680
C   -2.47813805026426      5.65357479452875      0.00092287576113
C   -3.69314125872231     -3.54278984697859      0.00136564082345
C   -4.91451200321153     -1.42718062802730      0.00139857359209
C   -0.00000552908399     -5.65043791501335      0.00005899322272
C   -4.89302000425900      2.82518897091939     -0.00040227981744
C   2.47812647313991     -5.65357317188818     -0.00029052915548
C   -3.65679823041642      4.97295655404175     -0.00047374852278
C   -4.89299899901461     -2.82519139505969      0.00006491824035
C   -2.47812801824129     -5.65356579800621     -0.00056571680280
C   -6.13477002348955      0.68054913825639     -0.00086464346868
C   -3.65678835334731     -4.97294365097028      0.00058578382008
C   -6.13476456307132     -0.68055354348201      0.00040575295444
H   5.83528897565761      3.36927626695423      0.00396712770529
H   7.07385965258860      1.22821762089947     -0.00037744837300
H   4.60066374401555      5.51238117445323     -0.00014522814529
H   5.83528386714679     -3.36930568472863     -0.00423551337640
H   -0.00001167146422      6.73853104613662     -0.00389474766392
H   7.07386165167227     -1.22822657074368     -0.00008250934481
H   2.47331421164041      6.74068466339473      0.00017162982210
H   4.60066897122302     -5.51237575717576      0.00039007446835
H   -2.47331820069565      6.74068209160650      0.00047297644710
H   -0.00000978838621     -6.73852780445195      0.00458867820736
H   -5.83530143450167      3.36927132229595      0.00410314985360
H   2.47330840367253     -6.74068500242887      0.00027980126949
H   -4.60067436136587      5.51237839860371      0.00002010017831
H   -5.83527902699321     -3.36928859177951     -0.00451481925734
H   -2.47329986759855     -6.74067870613986     -0.00016951527498
H   -7.07385728692578      1.22822084484047     -0.00046143985387
H   -4.60067330624313     -5.51236229778631      0.00021776644566
H   -7.07385645456741     -1.22822025997701     -0.00017736581114

    units angstrom      # Angstroms are the default
    no_reorient         # Geometry fixed, default
    symmetry c1         # C1 symmetry, default
}

set {
    scf_type DF         # Density fitting, faster than exact integrals
    freeze_core True    # Freeze core electrons
    basis jun-cc-pVDZ   # Jun-cc-pVDZ basis set, recommended for sSAPT0 in https://doi.org/10.1063/1.4867135
}

energy('ssapt0')        # Compute sSAPT0 energy, includes also SAPT0
--------------------------------------------------------------------------

  Memory set to  29.802 GiB by Python driver.

Scratch directory: /state/partition1/slurm_tmp/24798267.4294967291.0/
   => Loading Basis Set <=

    Name: JUN-CC-PVDZ
    Role: ORBITAL
    Keyword: BASIS
    atoms 1-2, 4-5, 10, 17-70 entry C          line   164 file /home/gridsan/tfroembgen/.conda/envs/psi4test/share/psi4/basis/jun-cc-pvdz.gbs 
    atoms 3, 6                entry N          line   198 file /home/gridsan/tfroembgen/.conda/envs/psi4test/share/psi4/basis/jun-cc-pvdz.gbs 
    atoms 7-9, 11-16, 71-88   entry H          line    36 file /home/gridsan/tfroembgen/.conda/envs/psi4test/share/psi4/basis/jun-cc-pvdz.gbs 

   => Loading Basis Set <=

    Name: JUN-CC-PVDZ
    Role: ORBITAL
    Keyword: BASIS
    atoms 1-2, 4-5, 10, 17-70 entry C          line   164 file /home/gridsan/tfroembgen/.conda/envs/psi4test/share/psi4/basis/jun-cc-pvdz.gbs 
    atoms 3, 6                entry N          line   198 file /home/gridsan/tfroembgen/.conda/envs/psi4test/share/psi4/basis/jun-cc-pvdz.gbs 
    atoms 7-9, 11-16, 71-88   entry H          line    36 file /home/gridsan/tfroembgen/.conda/envs/psi4test/share/psi4/basis/jun-cc-pvdz.gbs 


  //>>>>>>>>>>>>>>>>>>>>>>>>>>>>>>>>>>>//
  //              Dimer HF             //
  //<<<<<<<<<<<<<<<<<<<<<<<<<<<<<<<<<<<//

   => Libint2 <=

    Primary   basis highest AM E, G, H:  7, 7, 4
    Auxiliary basis highest AM E, G, H:  7, 7, 5
    Onebody   basis highest AM E, G, H:  7, 7, 5
    Solid Harmonics ordering:            gaussian

*** tstart() called on d-16-5-1
*** at Mon Jan 22 19:19:06 2024

   => Loading Basis Set <=

    Name: JUN-CC-PVDZ
    Role: ORBITAL
    Keyword: BASIS
    atoms 1-2, 4-5, 10, 17-70 entry C          line   164 file /home/gridsan/tfroembgen/.conda/envs/psi4test/share/psi4/basis/jun-cc-pvdz.gbs 
    atoms 3, 6                entry N          line   198 file /home/gridsan/tfroembgen/.conda/envs/psi4test/share/psi4/basis/jun-cc-pvdz.gbs 
    atoms 7-9, 11-16, 71-88   entry H          line    36 file /home/gridsan/tfroembgen/.conda/envs/psi4test/share/psi4/basis/jun-cc-pvdz.gbs 


         ---------------------------------------------------------
                                   SCF
               by Justin Turney, Rob Parrish, Andy Simmonett
                          and Daniel G. A. Smith
                              RHF Reference
                       12 Threads,  30517 MiB Core
         ---------------------------------------------------------

  ==> Geometry <==

    Molecular point group: c1
    Full point group: C1

    Geometry (in Angstrom), charge = 1, multiplicity = 1:

       Center              X                  Y                   Z               Mass       
    ------------   -----------------  -----------------  -----------------  -----------------
         C            0.680066520158    -0.008042372515    -5.579961948708    12.000000000000
         C           -0.680504479842    -0.006014372515    -5.579577948708    12.000000000000
         N           -1.085635479842    -0.005016372515    -4.261253948708    14.003074004430
         C            0.000107520158    -0.001740372515    -3.479852948708    12.000000000000
         C           -2.477365479842     0.044389627485    -3.793274948708    12.000000000000
         N            1.085221520158    -0.005016372515    -4.261253948708    14.003074004430
         H            1.385145520158    -0.015870372515    -6.397400948708     1.007825032230
         H           -1.385302479842    -0.006204372515    -6.397246948708     1.007825032230
         H           -0.000009479842     0.000006627485    -2.398763948708     1.007825032230
         C            2.478116520158    -0.021908372515    -3.796155948708    12.000000000000
         H            2.490591520158     0.005436627485    -2.705902948708     1.007825032230
         H            2.967027520158    -0.935354372515    -4.143331948708     1.007825032230
         H            3.001427520158     0.853574627485    -4.187627948708     1.007825032230
         H           -2.857359479842     1.066460627485    -3.873233948708     1.007825032230
         H           -3.082679479842    -0.625694372515    -4.406338948708     1.007825032230
         H           -2.518128479842    -0.282594372515    -2.753326948708     1.007825032230
         C            1.225311895423     0.707538288405     0.642104678576    12.000000000000
         C            1.225323856051    -0.707538895085     0.629773869006    12.000000000000
         C           -0.000006153932     1.414965913575     0.629240245485    12.000000000000
         C            2.456448753949     1.418327886663     0.644991535976    12.000000000000
         C            0.000010827279    -1.414976499150     0.639439802809    12.000000000000
         C           -1.225300948908     0.707545373469     0.644356198898    12.000000000000
         C            2.456437755320    -1.418323304396     0.627528712149    12.000000000000
         C           -0.000001332978     2.836801030766     0.626836695351    12.000000000000
         C            3.681826697470     0.709317955486     0.627877501946    12.000000000000
         C            2.455120048865     2.834223660974     0.627774944986    12.000000000000
         C            3.681821105219    -0.709333839944     0.643949985965    12.000000000000
         C           -1.225313598688    -0.707527516059     0.630846630432    12.000000000000
         C            1.226699581202     3.543469483479     0.644134017896    12.000000000000
         C            0.000004784858    -2.836782139751     0.644287970431    12.000000000000
         C           -2.456436032848     1.418316917770     0.644391594744    12.000000000000
         C            2.455123417779    -2.834230029103     0.643798077597    12.000000000000
         C           -1.226714364589     3.543469063235     0.644237351115    12.000000000000
         C            4.914517295202     1.427172871975     0.634358184976    12.000000000000
         C            3.693150191476     3.542795292030     0.634407984612    12.000000000000
         C           -2.456437600068    -1.418313281354     0.627503674024    12.000000000000
         C            1.226704841943    -3.543474242421     0.628163887146    12.000000000000
         C           -2.455125398508     2.834216662119     0.627781321332    12.000000000000
         C            4.914524380782    -1.427186910459     0.637330927711    12.000000000000
         C            1.221424613699     4.970134064745     0.637469361970    12.000000000000
         C            4.893008229321     2.825187999512     0.635574853335    12.000000000000
         C           -1.226697008489    -3.543470997592     0.628431091555    12.000000000000
         C           -3.681818976526     0.709324966217     0.627890182426    12.000000000000
         C            3.693147101150    -3.542801341905     0.637448818271    12.000000000000
         C           -1.221432251994     4.970128297348     0.637652857343    12.000000000000
         C            6.134770972926     0.680547946591     0.635127959526    12.000000000000
         C            3.656788880610     4.972953243053     0.635316622395    12.000000000000
         C           -2.455126907733    -2.834215093576     0.643553719799    12.000000000000
         C           -3.681819179061    -0.709325703983     0.644067607544    12.000000000000
         C            4.893012617914    -2.825200106147     0.636186005230    12.000000000000
         C           -0.000001073113     5.650447365518     0.636421548636    12.000000000000
         C            6.134775112332    -0.680554854590     0.636393280042    12.000000000000
         C            2.478131482856     5.653576750817     0.636605402045    12.000000000000
         C            1.221422404738    -4.970127055448     0.634669864948    12.000000000000
         C           -3.693162383965     3.542796953677     0.634573492072    12.000000000000
         C           -1.221428520945    -4.970118304111     0.634557103115    12.000000000000
         C           -4.914521807942     1.427175446480     0.634435129984    12.000000000000
         C            3.656787019679    -4.972955226754     0.636767122929    12.000000000000
         C           -2.478138530106     5.653574422014     0.636889927053    12.000000000000
         C           -3.693141738564    -3.542790219494     0.637332692116    12.000000000000
         C           -4.914512483053    -1.427181000542     0.637365624884    12.000000000000
         C           -0.000006008926    -5.650438287528     0.636026044515    12.000000000000
         C           -4.893020484101     2.825188598404     0.635564771475    12.000000000000
         C            2.478125993298    -5.653573544403     0.635676522137    12.000000000000
         C           -3.656798710258     4.972956181527     0.635493302769    12.000000000000
         C           -4.892999478856    -2.825191767575     0.636031969532    12.000000000000
         C           -2.478128498083    -5.653566170521     0.635401334489    12.000000000000
         C           -6.134770503331     0.680548765741     0.635102407823    12.000000000000
         C           -3.656788833189    -4.972944023485     0.636552835112    12.000000000000
         C           -6.134765042913    -0.680553915997     0.636372804247    12.000000000000
         H            5.835288495816     3.369275894439     0.639934178997     1.007825032230
         H            7.073859172747     1.228217248385     0.635589602919     1.007825032230
         H            4.600663264174     5.512380801938     0.635821823147     1.007825032230
         H            5.835283387305    -3.369306057244     0.631731537916     1.007825032230
         H           -0.000012151306     6.738530673622     0.632072303628     1.007825032230
         H            7.073861171831    -1.228226943259     0.635884541947     1.007825032230
         H            2.473313731799     6.740684290880     0.636138681114     1.007825032230
         H            4.600668491381    -5.512376129691     0.636357125760     1.007825032230
         H           -2.473318680537     6.740681719092     0.636440027739     1.007825032230
         H           -0.000010268228    -6.738528176967     0.640555729500     1.007825032230
         H           -5.835301914343     3.369270949781     0.640070201146     1.007825032230
         H            2.473307923831    -6.740685374944     0.636246852562     1.007825032230
         H           -4.600674841208     5.512378026089     0.635987151470     1.007825032230
         H           -5.835279506835    -3.369288964294     0.631452232035     1.007825032230
         H           -2.473300347440    -6.740679078655     0.635797536017     1.007825032230
         H           -7.073857766768     1.228220472326     0.635505611438     1.007825032230
         H           -4.600673786085    -5.512362670301     0.636184817738     1.007825032230
         H           -7.073856934409    -1.228220632492     0.635789685481     1.007825032230

  Running in c1 symmetry.

  Rotational constants: A =      0.00172  B =      0.00168  C =      0.00109 [cm^-1]
  Rotational constants: A =     51.59890  B =     50.36824  C =     32.71081 [MHz]
  Nuclear repulsion = 8173.195433375914945

  Charge       = 1
  Multiplicity = 1
  Electrons    = 394
  Nalpha       = 197
  Nbeta        = 197

  ==> Algorithm <==

  SCF Algorithm Type is DF.
  DIIS enabled.
  MOM disabled.
  Fractional occupation disabled.
  Guess Type is SAD.
  Energy threshold   = 1.00e-08
  Density threshold  = 1.00e-08
  Integral threshold = 1.00e-12

  ==> Primary Basis <==

  Basis Set: JUN-CC-PVDZ
    Blend: JUN-CC-PVDZ
    Number of shells: 569
    Number of basis functions: 1233
    Number of Cartesian functions: 1294
    Spherical Harmonics?: true
    Max angular momentum: 2

   => Loading Basis Set <=

    Name: (JUN-CC-PVDZ AUX)
    Role: JKFIT
    Keyword: DF_BASIS_SCF
    atoms 1-2, 4-5, 10, 17-70 entry C          line   146 file /home/gridsan/tfroembgen/.conda/envs/psi4test/share/psi4/basis/jun-cc-pvdz-jkfit.gbs 
    atoms 3, 6                entry N          line   202 file /home/gridsan/tfroembgen/.conda/envs/psi4test/share/psi4/basis/jun-cc-pvdz-jkfit.gbs 
    atoms 7-9, 11-16, 71-88   entry H          line    70 file /home/gridsan/tfroembgen/.conda/envs/psi4test/share/psi4/basis/jun-cc-pvdz-jkfit.gbs 

  ==> Integral Setup <==

  ==> DiskDFJK: Density-Fitted J/K Matrices <==

    J tasked:                  Yes
    K tasked:                  Yes
    wK tasked:                  No
    OpenMP threads:             12
    Integrals threads:          12
    Memory [MiB]:            22888
    Algorithm:                Disk
    Integral Cache:           SAVE
    Schwarz Cutoff:          1E-12
    Fitting Condition:       1E-10

   => Auxiliary Basis Set <=

  Basis Set: (JUN-CC-PVDZ AUX)
    Blend: JUN-CC-PVDZ-JKFIT
    Number of shells: 1890
    Number of basis functions: 5440
    Number of Cartesian functions: 6226
    Spherical Harmonics?: true
    Max angular momentum: 3

  Minimum eigenvalue in the overlap matrix is 7.5575604007E-10.
  Reciprocal condition number of the overlap matrix is 3.2591904042E-11.
    Using canonical orthogonalization.
  Overall, 14 of 1233 possible MOs eliminated.


  ==> Pre-Iterations <==

  SCF Guess: Superposition of Atomic Densities via on-the-fly atomic UHF (no occupation information).

   -------------------------
    Irrep   Nso     Nmo    
   -------------------------
     A       1233    1219 
   -------------------------
    Total    1233    1219
   -------------------------

  ==> Iterations <==

                           Total Energy        Delta E     RMS |[F,P]|

   @DF-RHF iter SAD: -2365.47775368818520   -2.36548e+03   0.00000e+00 
   @DF-RHF iter   1: -2358.21330182732527    7.26445e+00   9.44044e-04 DIIS/ADIIS
   @DF-RHF iter   2: -2359.10738051914495   -8.94079e-01   3.19489e-04 DIIS/ADIIS
   @DF-RHF iter   3: -2359.19641583291832   -8.90353e-02   1.18053e-04 DIIS/ADIIS
   @DF-RHF iter   4: -2359.20935415220401   -1.29383e-02   4.27890e-05 DIIS
   @DF-RHF iter   5: -2359.21111507804244   -1.76093e-03   8.77426e-06 DIIS
   @DF-RHF iter   6: -2359.21128409776975   -1.69020e-04   4.37629e-06 DIIS
   @DF-RHF iter   7: -2359.21134350718012   -5.94094e-05   2.03088e-06 DIIS
   @DF-RHF iter   8: -2359.21136148592950   -1.79787e-05   1.09489e-06 DIIS
   @DF-RHF iter   9: -2359.21136508765721   -3.60173e-06   3.13314e-07 DIIS
   @DF-RHF iter  10: -2359.21136532897299   -2.41316e-07   9.68461e-08 DIIS
   @DF-RHF iter  11: -2359.21136534782727   -1.88543e-08   3.91213e-08 DIIS
   @DF-RHF iter  12: -2359.21136535172263   -3.89537e-09   1.96815e-08 DIIS
   @DF-RHF iter  13: -2359.21136535252617   -8.03539e-10   6.55201e-09 DIIS
  Energy and wave function converged.


  ==> Post-Iterations <==

    Orbital Energies [Eh]
    ---------------------

    Doubly Occupied:                                                      

       1A    -15.808026     2A    -15.807535     3A    -11.501737  
       4A    -11.436397     5A    -11.434839     6A    -11.422904  
       7A    -11.422860     8A    -11.341286     9A    -11.340906  
      10A    -11.340647    11A    -11.339834    12A    -11.339519  
      13A    -11.339133    14A    -11.336119    15A    -11.336114  
      16A    -11.336033    17A    -11.335981    18A    -11.335075  
      19A    -11.334976    20A    -11.333679    21A    -11.333654  
      22A    -11.332792    23A    -11.332765    24A    -11.332682  
      25A    -11.332633    26A    -11.332609    27A    -11.332554  
      28A    -11.331609    29A    -11.331607    30A    -11.331486  
      31A    -11.331485    32A    -11.331323    33A    -11.331312  
      34A    -11.331235    35A    -11.331234    36A    -11.330734  
      37A    -11.330730    38A    -11.330722    39A    -11.330702  
      40A    -11.330039    41A    -11.329991    42A    -11.329967  
      43A    -11.329917    44A    -11.323906    45A    -11.323874  
      46A    -11.323832    47A    -11.323816    48A    -11.322858  
      49A    -11.322841    50A    -11.322349    51A    -11.322347  
      52A    -11.321138    53A    -11.321121    54A    -11.321110  
      55A    -11.321108    56A    -11.320913    57A    -11.320911  
      58A    -11.319690    59A    -11.319679    60A    -11.319669  
      61A    -11.319660    62A     -1.552107    63A     -1.407536  
      64A     -1.322087    65A     -1.295640    66A     -1.294742  
      67A     -1.263547    68A     -1.263439    69A     -1.257188  
      70A     -1.230138    71A     -1.222541    72A     -1.213272  
      73A     -1.211297    74A     -1.210549    75A     -1.185598  
      76A     -1.185543    77A     -1.162856    78A     -1.156936  
      79A     -1.156921    80A     -1.153395    81A     -1.137983  
      82A     -1.137973    83A     -1.112371    84A     -1.099721  
      85A     -1.097903    86A     -1.097379    87A     -1.092570  
      88A     -1.089879    89A     -1.084420    90A     -1.061162  
      91A     -1.060928    92A     -1.034410    93A     -1.034289  
      94A     -0.997196    95A     -0.970304    96A     -0.967510  
      97A     -0.967338    98A     -0.963500    99A     -0.961261  
     100A     -0.960931   101A     -0.955568   102A     -0.955468  
     103A     -0.934300   104A     -0.908065   105A     -0.891301  
     106A     -0.890908   107A     -0.890804   108A     -0.886287  
     109A     -0.885919   110A     -0.866450   111A     -0.866387  
     112A     -0.824498   113A     -0.821252   114A     -0.819057  
     115A     -0.807867   116A     -0.807434   117A     -0.804098  
     118A     -0.803974   119A     -0.791400   120A     -0.789990  
     121A     -0.785348   122A     -0.771659   123A     -0.771171  
     124A     -0.766943   125A     -0.766457   126A     -0.764743  
     127A     -0.760311   128A     -0.757588   129A     -0.732859  
     130A     -0.726991   131A     -0.725540   132A     -0.721799  
     133A     -0.721712   134A     -0.711564   135A     -0.711279  
     136A     -0.703576   137A     -0.702995   138A     -0.700992  
     139A     -0.700923   140A     -0.699163   141A     -0.691400  
     142A     -0.685071   143A     -0.675413   144A     -0.674795  
     145A     -0.671979   146A     -0.671396   147A     -0.667041  
     148A     -0.666221   149A     -0.665759   150A     -0.655468  
     151A     -0.652988   152A     -0.651699   153A     -0.640228  
     154A     -0.639830   155A     -0.638385   156A     -0.638204  
     157A     -0.632410   158A     -0.626353   159A     -0.626003  
     160A     -0.612459   161A     -0.612216   162A     -0.610061  
     163A     -0.610052   164A     -0.605449   165A     -0.602235  
     166A     -0.595435   167A     -0.594956   168A     -0.571627  
     169A     -0.570864   170A     -0.567926   171A     -0.564946  
     172A     -0.561266   173A     -0.558464   174A     -0.554496  
     175A     -0.554362   176A     -0.547199   177A     -0.546072  
     178A     -0.525884   179A     -0.525521   180A     -0.511029  
     181A     -0.511015   182A     -0.499544   183A     -0.480064  
     184A     -0.479655   185A     -0.478552   186A     -0.446859  
     187A     -0.446672   188A     -0.422314   189A     -0.415129  
     190A     -0.414948   191A     -0.414218   192A     -0.383355  
     193A     -0.368517   194A     -0.359728   195A     -0.359604  
     196A     -0.298300   197A     -0.297966  

    Virtual:                                                              

     198A     -0.059355   199A     -0.058981   200A     -0.042540  
     201A     -0.041634   202A     -0.036066   203A     -0.022560  
     204A     -0.015136   205A     -0.014150   206A     -0.011259  
     207A     -0.010326   208A     -0.009881   209A     -0.007211  
     210A     -0.003623   211A     -0.003271   212A      0.001550  
     213A      0.003400   214A      0.004876   215A      0.007970  
     216A      0.010595   217A      0.011630   218A      0.011915  
     219A      0.013523   220A      0.014545   221A      0.017982  
     222A      0.018273   223A      0.020258   224A      0.020366  
     225A      0.020562   226A      0.022204   227A      0.022686  
     228A      0.026679   229A      0.031844   230A      0.033052  
     231A      0.035942   232A      0.036111   233A      0.037785  
     234A      0.042737   235A      0.043975   236A      0.046776  
     237A      0.048178   238A      0.049024   239A      0.051540  
     240A      0.053796   241A      0.054227   242A      0.055943  
     243A      0.056722   244A      0.062403   245A      0.062748  
     246A      0.064205   247A      0.066001   248A      0.067141  
     249A      0.072097   250A      0.072222   251A      0.074833  
     252A      0.075678   253A      0.078287   254A      0.078582  
     255A      0.084801   256A      0.085057   257A      0.086727  
     258A      0.087844   259A      0.092105   260A      0.092551  
     261A      0.093589   262A      0.095285   263A      0.098124  
     264A      0.100009   265A      0.101964   266A      0.102855  
     267A      0.103959   268A      0.104878   269A      0.111148  
     270A      0.111376   271A      0.111875   272A      0.113319  
     273A      0.116193   274A      0.120166   275A      0.122311  
     276A      0.122628   277A      0.123670   278A      0.124244  
     279A      0.125058   280A      0.126339   281A      0.129816  
     282A      0.130020   283A      0.134417   284A      0.137281  
     285A      0.140510   286A      0.143194   287A      0.143936  
     288A      0.145544   289A      0.147465   290A      0.148436  
     291A      0.148913   292A      0.152598   293A      0.152927  
     294A      0.152938   295A      0.153376   296A      0.154000  
     297A      0.154803   298A      0.156482   299A      0.158538  
     300A      0.160537   301A      0.161888   302A      0.164413  
     303A      0.164706   304A      0.166042   305A      0.166548  
     306A      0.167640   307A      0.169968   308A      0.170923  
     309A      0.172096   310A      0.173388   311A      0.173442  
     312A      0.173507   313A      0.179098   314A      0.179611  
     315A      0.179928   316A      0.182892   317A      0.185116  
     318A      0.190734   319A      0.190908   320A      0.191621  
     321A      0.193593   322A      0.194278   323A      0.196600  
     324A      0.198366   325A      0.198591   326A      0.198791  
     327A      0.199505   328A      0.201249   329A      0.201298  
     330A      0.204350   331A      0.205571   332A      0.207576  
     333A      0.208882   334A      0.209044   335A      0.211770  
     336A      0.213934   337A      0.215703   338A      0.217115  
     339A      0.218580   340A      0.220841   341A      0.223426  
     342A      0.227427   343A      0.229088   344A      0.229810  
     345A      0.232399   346A      0.235466   347A      0.237556  
     348A      0.238118   349A      0.239482   350A      0.239627  
     351A      0.240775   352A      0.242357   353A      0.243485  
     354A      0.244246   355A      0.244892   356A      0.245580  
     357A      0.247190   358A      0.247642   359A      0.249178  
     360A      0.249403   361A      0.251524   362A      0.252342  
     363A      0.254299   364A      0.254670   365A      0.255745  
     366A      0.256431   367A      0.257895   368A      0.259206  
     369A      0.260659   370A      0.265201   371A      0.266672  
     372A      0.268356   373A      0.269169   374A      0.271540  
     375A      0.273816   376A      0.274517   377A      0.276230  
     378A      0.281513   379A      0.282472   380A      0.283238  
     381A      0.284257   382A      0.285220   383A      0.286431  
     384A      0.287614   385A      0.288146   386A      0.288832  
     387A      0.290788   388A      0.290875   389A      0.292759  
     390A      0.294198   391A      0.294990   392A      0.300969  
     393A      0.302143   394A      0.304308   395A      0.305412  
     396A      0.306378   397A      0.306713   398A      0.307518  
     399A      0.310506   400A      0.313550   401A      0.317286  
     402A      0.319347   403A      0.320092   404A      0.320512  
     405A      0.321185   406A      0.323681   407A      0.324931  
     408A      0.326324   409A      0.327829   410A      0.329828  
     411A      0.330346   412A      0.330702   413A      0.332276  
     414A      0.332685   415A      0.334775   416A      0.335708  
     417A      0.336180   418A      0.338095   419A      0.339180  
     420A      0.339805   421A      0.341646   422A      0.341943  
     423A      0.343448   424A      0.344521   425A      0.344981  
     426A      0.346047   427A      0.349302   428A      0.350615  
     429A      0.352295   430A      0.353351   431A      0.354384  
     432A      0.355669   433A      0.356853   434A      0.359263  
     435A      0.363303   436A      0.366911   437A      0.367355  
     438A      0.372028   439A      0.374802   440A      0.374955  
     441A      0.376246   442A      0.376624   443A      0.378874  
     444A      0.382401   445A      0.384174   446A      0.384979  
     447A      0.385682   448A      0.387318   449A      0.388620  
     450A      0.389698   451A      0.390822   452A      0.391001  
     453A      0.393423   454A      0.394232   455A      0.399247  
     456A      0.400419   457A      0.403833   458A      0.404183  
     459A      0.406380   460A      0.407889   461A      0.408818  
     462A      0.412007   463A      0.413336   464A      0.417639  
     465A      0.418336   466A      0.421960   467A      0.424526  
     468A      0.425824   469A      0.426814   470A      0.427323  
     471A      0.428413   472A      0.429512   473A      0.430041  
     474A      0.432435   475A      0.436826   476A      0.437564  
     477A      0.439026   478A      0.443540   479A      0.445616  
     480A      0.448038   481A      0.449571   482A      0.450445  
     483A      0.453885   484A      0.455491   485A      0.455980  
     486A      0.456776   487A      0.462916   488A      0.464411  
     489A      0.466563   490A      0.469322   491A      0.472260  
     492A      0.474977   493A      0.475904   494A      0.478390  
     495A      0.480490   496A      0.481094   497A      0.482972  
     498A      0.484420   499A      0.485126   500A      0.486004  
     501A      0.487257   502A      0.488929   503A      0.492429  
     504A      0.493438   505A      0.499204   506A      0.499415  
     507A      0.514290   508A      0.515732   509A      0.520680  
     510A      0.525470   511A      0.525752   512A      0.526472  
     513A      0.530896   514A      0.534146   515A      0.540177  
     516A      0.543232   517A      0.547094   518A      0.548657  
     519A      0.551290   520A      0.554639   521A      0.555651  
     522A      0.559714   523A      0.569676   524A      0.576363  
     525A      0.583631   526A      0.584193   527A      0.594893  
     528A      0.598148   529A      0.600466   530A      0.605503  
     531A      0.606195   532A      0.615100   533A      0.644250  
     534A      0.644424   535A      0.668981   536A      0.669824  
     537A      0.670565   538A      0.671673   539A      0.673899  
     540A      0.674397   541A      0.677028   542A      0.685858  
     543A      0.686344   544A      0.688093   545A      0.697746  
     546A      0.702475   547A      0.708980   548A      0.713318  
     549A      0.716397   550A      0.719805   551A      0.727064  
     552A      0.728223   553A      0.735423   554A      0.737213  
     555A      0.738978   556A      0.742880   557A      0.743131  
     558A      0.746917   559A      0.748877   560A      0.752792  
     561A      0.756396   562A      0.757220   563A      0.758316  
     564A      0.763419   565A      0.766925   566A      0.767132  
     567A      0.770001   568A      0.778534   569A      0.781112  
     570A      0.785596   571A      0.790220   572A      0.792354  
     573A      0.794006   574A      0.795762   575A      0.798115  
     576A      0.806957   577A      0.807119   578A      0.808577  
     579A      0.811451   580A      0.811928   581A      0.812633  
     582A      0.815475   583A      0.818452   584A      0.820641  
     585A      0.822383   586A      0.827200   587A      0.829315  
     588A      0.830353   589A      0.832153   590A      0.835633  
     591A      0.837534   592A      0.841320   593A      0.841823  
     594A      0.842811   595A      0.845957   596A      0.847271  
     597A      0.847607   598A      0.851341   599A      0.851910  
     600A      0.852635   601A      0.854865   602A      0.859308  
     603A      0.862594   604A      0.864288   605A      0.867334  
     606A      0.867782   607A      0.869450   608A      0.870910  
     609A      0.873120   610A      0.876256   611A      0.877320  
     612A      0.882186   613A      0.885460   614A      0.885995  
     615A      0.888752   616A      0.891824   617A      0.893437  
     618A      0.898491   619A      0.901336   620A      0.901832  
     621A      0.903144   622A      0.906554   623A      0.907336  
     624A      0.907720   625A      0.908517   626A      0.910300  
     627A      0.913810   628A      0.915276   629A      0.919411  
     630A      0.922401   631A      0.925706   632A      0.928291  
     633A      0.930001   634A      0.933833   635A      0.939468  
     636A      0.944448   637A      0.946641   638A      0.946795  
     639A      0.949326   640A      0.950781   641A      0.952039  
     642A      0.956105   643A      0.956907   644A      0.959253  
     645A      0.963120   646A      0.965384   647A      0.967229  
     648A      0.971504   649A      0.972398   650A      0.973866  
     651A      0.974230   652A      0.974528   653A      0.977109  
     654A      0.977430   655A      0.979212   656A      0.980841  
     657A      0.982024   658A      0.983833   659A      0.986612  
     660A      0.989200   661A      0.989677   662A      0.991749  
     663A      0.993467   664A      1.000040   665A      1.002549  
     666A      1.003545   667A      1.004083   668A      1.007863  
     669A      1.009220   670A      1.011096   671A      1.011822  
     672A      1.014679   673A      1.019919   674A      1.021718  
     675A      1.023390   676A      1.024450   677A      1.030687  
     678A      1.030763   679A      1.032679   680A      1.035268  
     681A      1.037168   682A      1.038253   683A      1.038782  
     684A      1.039399   685A      1.040766   686A      1.045329  
     687A      1.045811   688A      1.047341   689A      1.048065  
     690A      1.048841   691A      1.055521   692A      1.057597  
     693A      1.058008   694A      1.063540   695A      1.063666  
     696A      1.065592   697A      1.067267   698A      1.070409  
     699A      1.072520   700A      1.073316   701A      1.076178  
     702A      1.078818   703A      1.081434   704A      1.084951  
     705A      1.096250   706A      1.097533   707A      1.100581  
     708A      1.101700   709A      1.103977   710A      1.107534  
     711A      1.110996   712A      1.111626   713A      1.114645  
     714A      1.117017   715A      1.123523   716A      1.126821  
     717A      1.128625   718A      1.131552   719A      1.137973  
     720A      1.139340   721A      1.145487   722A      1.148525  
     723A      1.149711   724A      1.150615   725A      1.152464  
     726A      1.154914   727A      1.158065   728A      1.170452  
     729A      1.172875   730A      1.173926   731A      1.176179  
     732A      1.179598   733A      1.187357   734A      1.187883  
     735A      1.188803   736A      1.190689   737A      1.192601  
     738A      1.193728   739A      1.194272   740A      1.194452  
     741A      1.196296   742A      1.197659   743A      1.200178  
     744A      1.202895   745A      1.209024   746A      1.225022  
     747A      1.226873   748A      1.227158   749A      1.229315  
     750A      1.230734   751A      1.231631   752A      1.240082  
     753A      1.242503   754A      1.243173   755A      1.249551  
     756A      1.250461   757A      1.252172   758A      1.254951  
     759A      1.256337   760A      1.258023   761A      1.259187  
     762A      1.261117   763A      1.267791   764A      1.275693  
     765A      1.276608   766A      1.278816   767A      1.280458  
     768A      1.281105   769A      1.285329   770A      1.287164  
     771A      1.289972   772A      1.291308   773A      1.294106  
     774A      1.300102   775A      1.304783   776A      1.307283  
     777A      1.311866   778A      1.319216   779A      1.323546  
     780A      1.334324   781A      1.334932   782A      1.337660  
     783A      1.339880   784A      1.341863   785A      1.343447  
     786A      1.345698   787A      1.354201   788A      1.355043  
     789A      1.355215   790A      1.359474   791A      1.362905  
     792A      1.364527   793A      1.367126   794A      1.368144  
     795A      1.369184   796A      1.370134   797A      1.373441  
     798A      1.379256   799A      1.380808   800A      1.381443  
     801A      1.388880   802A      1.391281   803A      1.401299  
     804A      1.405691   805A      1.408161   806A      1.411260  
     807A      1.421235   808A      1.446590   809A      1.446905  
     810A      1.446924   811A      1.448438   812A      1.465245  
     813A      1.477830   814A      1.481074   815A      1.485815  
     816A      1.507261   817A      1.515085   818A      1.520407  
     819A      1.527664   820A      1.530298   821A      1.532499  
     822A      1.533569   823A      1.535863   824A      1.536050  
     825A      1.538271   826A      1.542988   827A      1.544009  
     828A      1.548026   829A      1.552043   830A      1.552726  
     831A      1.561612   832A      1.563001   833A      1.565646  
     834A      1.569055   835A      1.569296   836A      1.570780  
     837A      1.574601   838A      1.575672   839A      1.581823  
     840A      1.587790   841A      1.588878   842A      1.594211  
     843A      1.598995   844A      1.599006   845A      1.601074  
     846A      1.601798   847A      1.602578   848A      1.605230  
     849A      1.607005   850A      1.608488   851A      1.613478  
     852A      1.614522   853A      1.616541   854A      1.625059  
     855A      1.626826   856A      1.627604   857A      1.628584  
     858A      1.629499   859A      1.629734   860A      1.631565  
     861A      1.644498   862A      1.645613   863A      1.654290  
     864A      1.664888   865A      1.668405   866A      1.677638  
     867A      1.690139   868A      1.690325   869A      1.692045  
     870A      1.692220   871A      1.704144   872A      1.705159  
     873A      1.706217   874A      1.716359   875A      1.719936  
     876A      1.721744   877A      1.734493   878A      1.745325  
     879A      1.746873   880A      1.748151   881A      1.749655  
     882A      1.749799   883A      1.750162   884A      1.759547  
     885A      1.761078   886A      1.763805   887A      1.768453  
     888A      1.772062   889A      1.783349   890A      1.787196  
     891A      1.791791   892A      1.791977   893A      1.792821  
     894A      1.795873   895A      1.797346   896A      1.798756  
     897A      1.801867   898A      1.805406   899A      1.805587  
     900A      1.813784   901A      1.818602   902A      1.822470  
     903A      1.823857   904A      1.824926   905A      1.832894  
     906A      1.833117   907A      1.834145   908A      1.835791  
     909A      1.838006   910A      1.843118   911A      1.844199  
     912A      1.845693   913A      1.846160   914A      1.847303  
     915A      1.849219   916A      1.850094   917A      1.852281  
     918A      1.855693   919A      1.862422   920A      1.871097  
     921A      1.873843   922A      1.874256   923A      1.875695  
     924A      1.878634   925A      1.880069   926A      1.882286  
     927A      1.883137   928A      1.884008   929A      1.885081  
     930A      1.885375   931A      1.894381   932A      1.900880  
     933A      1.905980   934A      1.906687   935A      1.913291  
     936A      1.914608   937A      1.924976   938A      1.926772  
     939A      1.928298   940A      1.929355   941A      1.937869  
     942A      1.938979   943A      1.941184   944A      1.943628  
     945A      1.947099   946A      1.952663   947A      1.954988  
     948A      1.957824   949A      1.958705   950A      1.959990  
     951A      1.960460   952A      1.960636   953A      1.963052  
     954A      1.968612   955A      1.978332   956A      1.981266  
     957A      1.981625   958A      1.987746   959A      1.989317  
     960A      1.990334   961A      1.995070   962A      2.000209  
     963A      2.000893   964A      2.001310   965A      2.004850  
     966A      2.006340   967A      2.008061   968A      2.009518  
     969A      2.014471   970A      2.018025   971A      2.020080  
     972A      2.023779   973A      2.024298   974A      2.028372  
     975A      2.029552   976A      2.030918   977A      2.031776  
     978A      2.035502   979A      2.037562   980A      2.038721  
     981A      2.039949   982A      2.041286   983A      2.046651  
     984A      2.048053   985A      2.048274   986A      2.048634  
     987A      2.049063   988A      2.049570   989A      2.053573  
     990A      2.057574   991A      2.058061   992A      2.062713  
     993A      2.065460   994A      2.066077   995A      2.067040  
     996A      2.071925   997A      2.072831   998A      2.076367  
     999A      2.085065  1000A      2.086378  1001A      2.089669  
    1002A      2.090532  1003A      2.094392  1004A      2.098102  
    1005A      2.099763  1006A      2.107299  1007A      2.111963  
    1008A      2.116904  1009A      2.118781  1010A      2.119703  
    1011A      2.120202  1012A      2.122594  1013A      2.124365  
    1014A      2.126994  1015A      2.132262  1016A      2.145448  
    1017A      2.145923  1018A      2.146798  1019A      2.151682  
    1020A      2.157048  1021A      2.161985  1022A      2.163161  
    1023A      2.173920  1024A      2.174613  1025A      2.175186  
    1026A      2.175987  1027A      2.177044  1028A      2.178490  
    1029A      2.183808  1030A      2.190663  1031A      2.191484  
    1032A      2.198298  1033A      2.198791  1034A      2.201766  
    1035A      2.203530  1036A      2.207332  1037A      2.212137  
    1038A      2.212691  1039A      2.230610  1040A      2.232313  
    1041A      2.235459  1042A      2.238550  1043A      2.244073  
    1044A      2.250765  1045A      2.254552  1046A      2.255090  
    1047A      2.258331  1048A      2.261099  1049A      2.268255  
    1050A      2.274568  1051A      2.278053  1052A      2.279827  
    1053A      2.280524  1054A      2.281458  1055A      2.293041  
    1056A      2.294497  1057A      2.299216  1058A      2.309084  
    1059A      2.318026  1060A      2.341173  1061A      2.345462  
    1062A      2.351235  1063A      2.351364  1064A      2.351892  
    1065A      2.365137  1066A      2.368031  1067A      2.369654  
    1068A      2.378615  1069A      2.385303  1070A      2.397552  
    1071A      2.403011  1072A      2.405300  1073A      2.414342  
    1074A      2.414714  1075A      2.431845  1076A      2.450061  
    1077A      2.457065  1078A      2.463206  1079A      2.474546  
    1080A      2.475137  1081A      2.475670  1082A      2.479136  
    1083A      2.485145  1084A      2.486390  1085A      2.487627  
    1086A      2.488149  1087A      2.495186  1088A      2.500057  
    1089A      2.500187  1090A      2.504570  1091A      2.505957  
    1092A      2.506458  1093A      2.514713  1094A      2.514871  
    1095A      2.517951  1096A      2.523740  1097A      2.526080  
    1098A      2.536250  1099A      2.540277  1100A      2.553364  
    1101A      2.554619  1102A      2.558766  1103A      2.558975  
    1104A      2.560270  1105A      2.571733  1106A      2.572083  
    1107A      2.581405  1108A      2.582275  1109A      2.586597  
    1110A      2.609903  1111A      2.611724  1112A      2.612971  
    1113A      2.620991  1114A      2.624065  1115A      2.626519  
    1116A      2.628437  1117A      2.638649  1118A      2.639555  
    1119A      2.644823  1120A      2.645604  1121A      2.650526  
    1122A      2.651844  1123A      2.658946  1124A      2.672170  
    1125A      2.682383  1126A      2.682480  1127A      2.703331  
    1128A      2.705509  1129A      2.708331  1130A      2.721646  
    1131A      2.721996  1132A      2.736033  1133A      2.748209  
    1134A      2.752139  1135A      2.755402  1136A      2.760570  
    1137A      2.769014  1138A      2.773559  1139A      2.776531  
    1140A      2.779601  1141A      2.782002  1142A      2.782400  
    1143A      2.785110  1144A      2.787855  1145A      2.791972  
    1146A      2.800662  1147A      2.813309  1148A      2.848425  
    1149A      2.848551  1150A      2.857713  1151A      2.863810  
    1152A      2.865905  1153A      2.874881  1154A      2.881939  
    1155A      2.882738  1156A      2.893609  1157A      2.939088  
    1158A      2.941117  1159A      2.943963  1160A      2.947926  
    1161A      2.972576  1162A      2.989507  1163A      2.989814  
    1164A      2.997646  1165A      2.998715  1166A      3.020075  
    1167A      3.040334  1168A      3.041592  1169A      3.057634  
    1170A      3.058720  1171A      3.060808  1172A      3.067859  
    1173A      3.076042  1174A      3.076417  1175A      3.077178  
    1176A      3.079090  1177A      3.079958  1178A      3.083233  
    1179A      3.087640  1180A      3.089624  1181A      3.095841  
    1182A      3.097326  1183A      3.109368  1184A      3.122371  
    1185A      3.141119  1186A      3.148526  1187A      3.172272  
    1188A      3.203612  1189A      3.204706  1190A      3.205332  
    1191A      3.211143  1192A      3.211489  1193A      3.343201  
    1194A      3.343546  1195A      3.364247  1196A      3.408420  
    1197A      3.410430  1198A      3.474296  1199A      3.487358  
    1200A      3.502754  1201A      3.504427  1202A      3.531133  
    1203A      3.554187  1204A      3.556513  1205A      3.566476  
    1206A      3.592161  1207A      3.599880  1208A      3.700427  
    1209A      3.709858  1210A      3.710297  1211A      3.799280  
    1212A      3.799988  1213A      3.840959  1214A      3.841603  
    1215A      3.902716  1216A      3.935733  1217A      3.963826  
    1218A      3.976429  1219A      4.013951  

    Final Occupation by Irrep:
              A 
    DOCC [   197 ]
    NA   [   197 ]
    NB   [   197 ]

  @DF-RHF Final Energy: -2359.21136535252617

   => Energetics <=

    Nuclear Repulsion Energy =           8173.1954333759149449
    One-Electron Energy =              -19447.2799479324021377
    Two-Electron Energy =                8914.8731492039605655
    Total Energy =                      -2359.2113653525266272

Computation Completed


Properties will be evaluated at   0.000000,   0.000000,   0.000000 [a0]

Properties computed using the SCF density matrix


 Multipole Moments:

 ------------------------------------------------------------------------------------
     Multipole            Electronic (a.u.)      Nuclear  (a.u.)        Total (a.u.)
 ------------------------------------------------------------------------------------

 L = 1.  Multiply by 2.5417464519 to convert [e a0] to [Debye]
 Dipole X            :         -0.0017962            0.0006313           -0.0011649
 Dipole Y            :         -0.0505433            0.0560211            0.0054778
 Dipole Z            :         17.7744253          -24.1765973           -6.4021720
 Magnitude           :                                                    6.4021745

 ------------------------------------------------------------------------------------

*** tstop() called on d-16-5-1 at Mon Jan 22 19:50:11 2024
Module time:
	user time   =    4419.15 seconds =      73.65 minutes
	system time =     347.53 seconds =       5.79 minutes
	total time  =       1865 seconds =      31.08 minutes
Total time:
	user time   =    4419.15 seconds =      73.65 minutes
	system time =     347.53 seconds =       5.79 minutes
	total time  =       1865 seconds =      31.08 minutes

  //>>>>>>>>>>>>>>>>>>>>>>>>>>>>>>>>>>>//
  //            Monomer A HF           //
  //<<<<<<<<<<<<<<<<<<<<<<<<<<<<<<<<<<<//

   => Libint2 <=

    Primary   basis highest AM E, G, H:  7, 7, 4
    Auxiliary basis highest AM E, G, H:  7, 7, 5
    Onebody   basis highest AM E, G, H:  7, 7, 5
    Solid Harmonics ordering:            gaussian

*** tstart() called on d-16-5-1
*** at Mon Jan 22 19:50:11 2024

   => Loading Basis Set <=

    Name: JUN-CC-PVDZ
    Role: ORBITAL
    Keyword: BASIS
    atoms 1-2, 4-5, 10, 17-70 entry C          line   164 file /home/gridsan/tfroembgen/.conda/envs/psi4test/share/psi4/basis/jun-cc-pvdz.gbs 
    atoms 3, 6                entry N          line   198 file /home/gridsan/tfroembgen/.conda/envs/psi4test/share/psi4/basis/jun-cc-pvdz.gbs 
    atoms 7-9, 11-16, 71-88   entry H          line    36 file /home/gridsan/tfroembgen/.conda/envs/psi4test/share/psi4/basis/jun-cc-pvdz.gbs 


         ---------------------------------------------------------
                                   SCF
               by Justin Turney, Rob Parrish, Andy Simmonett
                          and Daniel G. A. Smith
                              RHF Reference
                       12 Threads,  30517 MiB Core
         ---------------------------------------------------------

  ==> Geometry <==

    Molecular point group: c1
    Full point group: C1

    Geometry (in Angstrom), charge = 1, multiplicity = 1:

       Center              X                  Y                   Z               Mass       
    ------------   -----------------  -----------------  -----------------  -----------------
         C            0.680066520158    -0.008042372515    -5.579961948708    12.000000000000
         C           -0.680504479842    -0.006014372515    -5.579577948708    12.000000000000
         N           -1.085635479842    -0.005016372515    -4.261253948708    14.003074004430
         C            0.000107520158    -0.001740372515    -3.479852948708    12.000000000000
         C           -2.477365479842     0.044389627485    -3.793274948708    12.000000000000
         N            1.085221520158    -0.005016372515    -4.261253948708    14.003074004430
         H            1.385145520158    -0.015870372515    -6.397400948708     1.007825032230
         H           -1.385302479842    -0.006204372515    -6.397246948708     1.007825032230
         H           -0.000009479842     0.000006627485    -2.398763948708     1.007825032230
         C            2.478116520158    -0.021908372515    -3.796155948708    12.000000000000
         H            2.490591520158     0.005436627485    -2.705902948708     1.007825032230
         H            2.967027520158    -0.935354372515    -4.143331948708     1.007825032230
         H            3.001427520158     0.853574627485    -4.187627948708     1.007825032230
         H           -2.857359479842     1.066460627485    -3.873233948708     1.007825032230
         H           -3.082679479842    -0.625694372515    -4.406338948708     1.007825032230
         H           -2.518128479842    -0.282594372515    -2.753326948708     1.007825032230
      Gh(C)           1.225311895423     0.707538288405     0.642104678576    12.000000000000
      Gh(C)           1.225323856051    -0.707538895085     0.629773869006    12.000000000000
      Gh(C)          -0.000006153932     1.414965913575     0.629240245485    12.000000000000
      Gh(C)           2.456448753949     1.418327886663     0.644991535976    12.000000000000
      Gh(C)           0.000010827279    -1.414976499150     0.639439802809    12.000000000000
      Gh(C)          -1.225300948908     0.707545373469     0.644356198898    12.000000000000
      Gh(C)           2.456437755320    -1.418323304396     0.627528712149    12.000000000000
      Gh(C)          -0.000001332978     2.836801030766     0.626836695351    12.000000000000
      Gh(C)           3.681826697470     0.709317955486     0.627877501946    12.000000000000
      Gh(C)           2.455120048865     2.834223660974     0.627774944986    12.000000000000
      Gh(C)           3.681821105219    -0.709333839944     0.643949985965    12.000000000000
      Gh(C)          -1.225313598688    -0.707527516059     0.630846630432    12.000000000000
      Gh(C)           1.226699581202     3.543469483479     0.644134017896    12.000000000000
      Gh(C)           0.000004784858    -2.836782139751     0.644287970431    12.000000000000
      Gh(C)          -2.456436032848     1.418316917770     0.644391594744    12.000000000000
      Gh(C)           2.455123417779    -2.834230029103     0.643798077597    12.000000000000
      Gh(C)          -1.226714364589     3.543469063235     0.644237351115    12.000000000000
      Gh(C)           4.914517295202     1.427172871975     0.634358184976    12.000000000000
      Gh(C)           3.693150191476     3.542795292030     0.634407984612    12.000000000000
      Gh(C)          -2.456437600068    -1.418313281354     0.627503674024    12.000000000000
      Gh(C)           1.226704841943    -3.543474242421     0.628163887146    12.000000000000
      Gh(C)          -2.455125398508     2.834216662119     0.627781321332    12.000000000000
      Gh(C)           4.914524380782    -1.427186910459     0.637330927711    12.000000000000
      Gh(C)           1.221424613699     4.970134064745     0.637469361970    12.000000000000
      Gh(C)           4.893008229321     2.825187999512     0.635574853335    12.000000000000
      Gh(C)          -1.226697008489    -3.543470997592     0.628431091555    12.000000000000
      Gh(C)          -3.681818976526     0.709324966217     0.627890182426    12.000000000000
      Gh(C)           3.693147101150    -3.542801341905     0.637448818271    12.000000000000
      Gh(C)          -1.221432251994     4.970128297348     0.637652857343    12.000000000000
      Gh(C)           6.134770972926     0.680547946591     0.635127959526    12.000000000000
      Gh(C)           3.656788880610     4.972953243053     0.635316622395    12.000000000000
      Gh(C)          -2.455126907733    -2.834215093576     0.643553719799    12.000000000000
      Gh(C)          -3.681819179061    -0.709325703983     0.644067607544    12.000000000000
      Gh(C)           4.893012617914    -2.825200106147     0.636186005230    12.000000000000
      Gh(C)          -0.000001073113     5.650447365518     0.636421548636    12.000000000000
      Gh(C)           6.134775112332    -0.680554854590     0.636393280042    12.000000000000
      Gh(C)           2.478131482856     5.653576750817     0.636605402045    12.000000000000
      Gh(C)           1.221422404738    -4.970127055448     0.634669864948    12.000000000000
      Gh(C)          -3.693162383965     3.542796953677     0.634573492072    12.000000000000
      Gh(C)          -1.221428520945    -4.970118304111     0.634557103115    12.000000000000
      Gh(C)          -4.914521807942     1.427175446480     0.634435129984    12.000000000000
      Gh(C)           3.656787019679    -4.972955226754     0.636767122929    12.000000000000
      Gh(C)          -2.478138530106     5.653574422014     0.636889927053    12.000000000000
      Gh(C)          -3.693141738564    -3.542790219494     0.637332692116    12.000000000000
      Gh(C)          -4.914512483053    -1.427181000542     0.637365624884    12.000000000000
      Gh(C)          -0.000006008926    -5.650438287528     0.636026044515    12.000000000000
      Gh(C)          -4.893020484101     2.825188598404     0.635564771475    12.000000000000
      Gh(C)           2.478125993298    -5.653573544403     0.635676522137    12.000000000000
      Gh(C)          -3.656798710258     4.972956181527     0.635493302769    12.000000000000
      Gh(C)          -4.892999478856    -2.825191767575     0.636031969532    12.000000000000
      Gh(C)          -2.478128498083    -5.653566170521     0.635401334489    12.000000000000
      Gh(C)          -6.134770503331     0.680548765741     0.635102407823    12.000000000000
      Gh(C)          -3.656788833189    -4.972944023485     0.636552835112    12.000000000000
      Gh(C)          -6.134765042913    -0.680553915997     0.636372804247    12.000000000000
      Gh(H)           5.835288495816     3.369275894439     0.639934178997     1.007825032230
      Gh(H)           7.073859172747     1.228217248385     0.635589602919     1.007825032230
      Gh(H)           4.600663264174     5.512380801938     0.635821823147     1.007825032230
      Gh(H)           5.835283387305    -3.369306057244     0.631731537916     1.007825032230
      Gh(H)          -0.000012151306     6.738530673622     0.632072303628     1.007825032230
      Gh(H)           7.073861171831    -1.228226943259     0.635884541947     1.007825032230
      Gh(H)           2.473313731799     6.740684290880     0.636138681114     1.007825032230
      Gh(H)           4.600668491381    -5.512376129691     0.636357125760     1.007825032230
      Gh(H)          -2.473318680537     6.740681719092     0.636440027739     1.007825032230
      Gh(H)          -0.000010268228    -6.738528176967     0.640555729500     1.007825032230
      Gh(H)          -5.835301914343     3.369270949781     0.640070201146     1.007825032230
      Gh(H)           2.473307923831    -6.740685374944     0.636246852562     1.007825032230
      Gh(H)          -4.600674841208     5.512378026089     0.635987151470     1.007825032230
      Gh(H)          -5.835279506835    -3.369288964294     0.631452232035     1.007825032230
      Gh(H)          -2.473300347440    -6.740679078655     0.635797536017     1.007825032230
      Gh(H)          -7.073857766768     1.228220472326     0.635505611438     1.007825032230
      Gh(H)          -4.600673786085    -5.512362670301     0.636184817738     1.007825032230
      Gh(H)          -7.073856934409    -1.228220632492     0.635789685481     1.007825032230

  Running in c1 symmetry.

  Rotational constants: A =      0.00172  B =      0.00168  C =      0.00109 [cm^-1]
  Rotational constants: A =     51.59890  B =     50.36824  C =     32.71081 [MHz]
  Nuclear repulsion =  306.774908447733083

  Charge       = 1
  Multiplicity = 1
  Electrons    = 52
  Nalpha       = 26
  Nbeta        = 26

  ==> Algorithm <==

  SCF Algorithm Type is DF.
  DIIS enabled.
  MOM disabled.
  Fractional occupation disabled.
  Guess Type is SAD.
  Energy threshold   = 1.00e-08
  Density threshold  = 1.00e-08
  Integral threshold = 1.00e-12

  ==> Primary Basis <==

  Basis Set: JUN-CC-PVDZ
    Blend: JUN-CC-PVDZ
    Number of shells: 569
    Number of basis functions: 1233
    Number of Cartesian functions: 1294
    Spherical Harmonics?: true
    Max angular momentum: 2

   => Loading Basis Set <=

    Name: (JUN-CC-PVDZ AUX)
    Role: JKFIT
    Keyword: DF_BASIS_SCF
    atoms 1-2, 4-5, 10, 17-70 entry C          line   146 file /home/gridsan/tfroembgen/.conda/envs/psi4test/share/psi4/basis/jun-cc-pvdz-jkfit.gbs 
    atoms 3, 6                entry N          line   202 file /home/gridsan/tfroembgen/.conda/envs/psi4test/share/psi4/basis/jun-cc-pvdz-jkfit.gbs 
    atoms 7-9, 11-16, 71-88   entry H          line    70 file /home/gridsan/tfroembgen/.conda/envs/psi4test/share/psi4/basis/jun-cc-pvdz-jkfit.gbs 

  ==> Integral Setup <==

  ==> DiskDFJK: Density-Fitted J/K Matrices <==

    J tasked:                  Yes
    K tasked:                  Yes
    wK tasked:                  No
    OpenMP threads:             12
    Integrals threads:          12
    Memory [MiB]:            22888
    Algorithm:                Disk
    Integral Cache:           LOAD
    Schwarz Cutoff:          1E-12
    Fitting Condition:       1E-10

   => Auxiliary Basis Set <=

  Basis Set: (JUN-CC-PVDZ AUX)
    Blend: JUN-CC-PVDZ-JKFIT
    Number of shells: 1890
    Number of basis functions: 5440
    Number of Cartesian functions: 6226
    Spherical Harmonics?: true
    Max angular momentum: 3

  Minimum eigenvalue in the overlap matrix is 7.5575604007E-10.
  Reciprocal condition number of the overlap matrix is 3.2591904042E-11.
    Using canonical orthogonalization.
  Overall, 14 of 1233 possible MOs eliminated.


  ==> Pre-Iterations <==

  SCF Guess: Superposition of Atomic Densities via on-the-fly atomic UHF (no occupation information).

   -------------------------
    Irrep   Nso     Nmo    
   -------------------------
     A       1233    1219 
   -------------------------
    Total    1233    1219
   -------------------------

  ==> Iterations <==

                           Total Energy        Delta E     RMS |[F,P]|

   @DF-RHF iter SAD:  -303.36535613666427   -3.03365e+02   0.00000e+00 
   @DF-RHF iter   1:  -303.16985598311436    1.95500e-01   3.44496e-04 DIIS/ADIIS
   @DF-RHF iter   2:  -303.28426403764422   -1.14408e-01   1.15994e-04 DIIS/ADIIS
   @DF-RHF iter   3:  -303.29575063331595   -1.14866e-02   4.54408e-05 DIIS
   @DF-RHF iter   4:  -303.29766600645951   -1.91537e-03   9.93668e-06 DIIS
   @DF-RHF iter   5:  -303.29777295142571   -1.06945e-04   2.42789e-06 DIIS
   @DF-RHF iter   6:  -303.29778235633637   -9.40491e-06   6.56299e-07 DIIS
   @DF-RHF iter   7:  -303.29778344143358   -1.08510e-06   3.34280e-07 DIIS
   @DF-RHF iter   8:  -303.29778369843740   -2.57004e-07   1.34497e-07 DIIS
   @DF-RHF iter   9:  -303.29778374772980   -4.92924e-08   3.37370e-08 DIIS
   @DF-RHF iter  10:  -303.29778375055469   -2.82489e-09   1.26294e-08 DIIS
   @DF-RHF iter  11:  -303.29778375079866   -2.43972e-10   2.98065e-09 DIIS
  Energy and wave function converged.


  ==> Post-Iterations <==

    Orbital Energies [Eh]
    ---------------------

    Doubly Occupied:                                                      

       1A    -15.834573     2A    -15.834036     3A    -11.529395  
       4A    -11.459745     5A    -11.458188     6A    -11.449631  
       7A    -11.449516     8A     -1.577966     9A     -1.433577  
      10A     -1.238425    11A     -1.189133    12A     -1.118726  
      13A     -1.022304    14A     -0.996735    15A     -0.916857  
      16A     -0.850349    17A     -0.816064    18A     -0.812968  
      19A     -0.789925    20A     -0.786100    21A     -0.781561  
      22A     -0.729583    23A     -0.725670    24A     -0.717040  
      25A     -0.596101    26A     -0.523682  

    Virtual:                                                              

      27A     -0.078812    28A     -0.072963    29A     -0.061584  
      30A     -0.053369    31A     -0.041173    32A     -0.039327  
      33A     -0.039120    34A     -0.037346    35A     -0.036028  
      36A     -0.027944    37A     -0.026733    38A     -0.018604  
      39A     -0.015668    40A     -0.014076    41A     -0.013240  
      42A     -0.011254    43A     -0.009676    44A     -0.009500  
      45A     -0.007212    46A      0.000385    47A      0.004123  
      48A      0.004736    49A      0.009872    50A      0.010409  
      51A      0.010850    52A      0.013944    53A      0.017629  
      54A      0.019230    55A      0.019478    56A      0.023397  
      57A      0.025436    58A      0.030625    59A      0.032056  
      60A      0.033149    61A      0.037808    62A      0.039640  
      63A      0.041858    64A      0.042117    65A      0.043163  
      66A      0.044255    67A      0.047469    68A      0.052824  
      69A      0.054184    70A      0.055642    71A      0.055884  
      72A      0.058037    73A      0.059134    74A      0.061241  
      75A      0.062154    76A      0.062326    77A      0.063228  
      78A      0.064540    79A      0.067676    80A      0.072416  
      81A      0.072460    82A      0.075834    83A      0.076653  
      84A      0.077414    85A      0.078961    86A      0.080219  
      87A      0.082833    88A      0.083063    89A      0.085491  
      90A      0.085911    91A      0.089016    92A      0.089849  
      93A      0.091633    94A      0.092415    95A      0.094549  
      96A      0.095805    97A      0.098451    98A      0.104044  
      99A      0.104602   100A      0.105469   101A      0.106853  
     102A      0.107354   103A      0.108531   104A      0.109329  
     105A      0.113028   106A      0.113981   107A      0.114660  
     108A      0.117444   109A      0.117661   110A      0.119319  
     111A      0.119513   112A      0.121547   113A      0.122677  
     114A      0.123039   115A      0.124950   116A      0.126595  
     117A      0.128848   118A      0.130131   119A      0.131670  
     120A      0.132536   121A      0.137518   122A      0.138382  
     123A      0.139090   124A      0.141967   125A      0.143884  
     126A      0.144910   127A      0.146418   128A      0.147269  
     129A      0.147438   130A      0.150023   131A      0.152603  
     132A      0.155617   133A      0.156921   134A      0.158138  
     135A      0.158878   136A      0.160551   137A      0.163383  
     138A      0.163584   139A      0.164542   140A      0.166063  
     141A      0.169263   142A      0.169572   143A      0.170041  
     144A      0.171825   145A      0.173043   146A      0.176530  
     147A      0.177261   148A      0.178382   149A      0.178669  
     150A      0.179673   151A      0.182353   152A      0.182822  
     153A      0.183206   154A      0.183824   155A      0.184388  
     156A      0.185457   157A      0.186201   158A      0.188233  
     159A      0.190139   160A      0.193872   161A      0.198773  
     162A      0.203245   163A      0.204016   164A      0.205752  
     165A      0.207041   166A      0.209112   167A      0.210882  
     168A      0.213477   169A      0.213687   170A      0.214382  
     171A      0.215361   172A      0.215678   173A      0.216467  
     174A      0.217873   175A      0.220798   176A      0.224121  
     177A      0.224989   178A      0.225078   179A      0.226809  
     180A      0.228865   181A      0.229618   182A      0.233573  
     183A      0.235433   184A      0.236160   185A      0.237144  
     186A      0.237359   187A      0.239468   188A      0.240470  
     189A      0.240941   190A      0.243217   191A      0.245614  
     192A      0.250721   193A      0.252561   194A      0.259068  
     195A      0.260127   196A      0.260293   197A      0.264221  
     198A      0.265321   199A      0.265717   200A      0.266446  
     201A      0.266639   202A      0.269293   203A      0.269792  
     204A      0.271893   205A      0.274863   206A      0.278836  
     207A      0.281458   208A      0.282396   209A      0.282633  
     210A      0.283563   211A      0.284516   212A      0.287153  
     213A      0.288229   214A      0.290833   215A      0.291420  
     216A      0.292639   217A      0.293921   218A      0.295633  
     219A      0.296472   220A      0.297697   221A      0.301971  
     222A      0.306555   223A      0.307968   224A      0.311289  
     225A      0.311877   226A      0.313864   227A      0.315626  
     228A      0.316709   229A      0.317287   230A      0.321746  
     231A      0.325143   232A      0.325748   233A      0.327842  
     234A      0.332640   235A      0.337118   236A      0.339812  
     237A      0.340145   238A      0.340526   239A      0.345710  
     240A      0.347637   241A      0.353446   242A      0.356317  
     243A      0.357137   244A      0.358800   245A      0.359460  
     246A      0.361330   247A      0.362618   248A      0.363911  
     249A      0.366997   250A      0.368176   251A      0.368476  
     252A      0.372342   253A      0.374658   254A      0.375932  
     255A      0.377440   256A      0.379679   257A      0.381746  
     258A      0.385735   259A      0.386162   260A      0.386911  
     261A      0.388005   262A      0.389577   263A      0.391747  
     264A      0.392609   265A      0.394305   266A      0.397254  
     267A      0.398164   268A      0.398485   269A      0.398989  
     270A      0.401044   271A      0.402741   272A      0.403717  
     273A      0.405099   274A      0.405874   275A      0.406733  
     276A      0.409008   277A      0.410986   278A      0.415256  
     279A      0.416184   280A      0.421760   281A      0.423860  
     282A      0.425567   283A      0.426828   284A      0.427950  
     285A      0.429404   286A      0.431477   287A      0.437177  
     288A      0.440576   289A      0.444316   290A      0.445950  
     291A      0.447202   292A      0.449596   293A      0.451918  
     294A      0.454443   295A      0.454809   296A      0.457408  
     297A      0.457750   298A      0.459148   299A      0.460867  
     300A      0.461454   301A      0.462940   302A      0.464136  
     303A      0.465572   304A      0.474751   305A      0.475112  
     306A      0.475935   307A      0.477975   308A      0.480368  
     309A      0.485712   310A      0.491250   311A      0.492132  
     312A      0.493383   313A      0.495706   314A      0.496356  
     315A      0.500666   316A      0.503644   317A      0.503684  
     318A      0.505175   319A      0.506627   320A      0.507233  
     321A      0.510952   322A      0.513356   323A      0.515154  
     324A      0.518947   325A      0.520212   326A      0.520984  
     327A      0.524674   328A      0.528289   329A      0.529187  
     330A      0.530016   331A      0.530385   332A      0.535916  
     333A      0.540411   334A      0.545370   335A      0.546387  
     336A      0.549822   337A      0.551413   338A      0.552660  
     339A      0.554736   340A      0.556804   341A      0.558613  
     342A      0.560948   343A      0.563240   344A      0.564494  
     345A      0.568486   346A      0.571453   347A      0.574003  
     348A      0.574502   349A      0.576923   350A      0.580521  
     351A      0.583199   352A      0.590659   353A      0.592757  
     354A      0.595731   355A      0.596362   356A      0.600741  
     357A      0.602166   358A      0.605374   359A      0.607240  
     360A      0.608454   361A      0.610718   362A      0.612104  
     363A      0.613507   364A      0.617602   365A      0.619989  
     366A      0.620784   367A      0.621915   368A      0.623280  
     369A      0.625215   370A      0.626642   371A      0.631315  
     372A      0.632950   373A      0.634860   374A      0.637450  
     375A      0.646085   376A      0.646587   377A      0.649858  
     378A      0.650788   379A      0.665501   380A      0.666667  
     381A      0.674683   382A      0.677441   383A      0.678306  
     384A      0.678576   385A      0.686743   386A      0.687053  
     387A      0.687699   388A      0.688487   389A      0.690135  
     390A      0.691268   391A      0.693149   392A      0.693643  
     393A      0.693845   394A      0.695869   395A      0.696576  
     396A      0.698898   397A      0.699312   398A      0.708066  
     399A      0.708666   400A      0.715293   401A      0.717850  
     402A      0.719409   403A      0.719475   404A      0.721680  
     405A      0.725250   406A      0.726801   407A      0.729356  
     408A      0.729911   409A      0.732822   410A      0.733061  
     411A      0.736390   412A      0.740424   413A      0.747091  
     414A      0.750426   415A      0.764289   416A      0.771915  
     417A      0.772412   418A      0.775321   419A      0.775475  
     420A      0.776617   421A      0.777837   422A      0.783761  
     423A      0.784544   424A      0.786640   425A      0.791764  
     426A      0.797577   427A      0.800646   428A      0.804811  
     429A      0.805170   430A      0.808696   431A      0.811872  
     432A      0.815823   433A      0.820337   434A      0.822851  
     435A      0.823503   436A      0.827907   437A      0.831322  
     438A      0.836332   439A      0.843743   440A      0.844574  
     441A      0.845673   442A      0.854121   443A      0.867162  
     444A      0.875379   445A      0.879635   446A      0.884581  
     447A      0.885939   448A      0.887107   449A      0.893363  
     450A      0.893943   451A      0.902884   452A      0.911994  
     453A      0.919399   454A      0.923315   455A      0.927446  
     456A      0.929326   457A      0.929487   458A      0.933154  
     459A      0.947019   460A      0.947736   461A      0.956243  
     462A      0.958820   463A      0.961443   464A      0.968783  
     465A      0.984987   466A      0.989763   467A      0.990149  
     468A      0.991990   469A      0.992061   470A      1.001370  
     471A      1.021936   472A      1.027033   473A      1.029198  
     474A      1.029638   475A      1.030810   476A      1.031081  
     477A      1.056226   478A      1.072630   479A      1.073594  
     480A      1.077260   481A      1.081397   482A      1.084816  
     483A      1.086439   484A      1.098100   485A      1.107215  
     486A      1.108977   487A      1.109416   488A      1.115387  
     489A      1.118745   490A      1.119908   491A      1.123566  
     492A      1.129115   493A      1.142857   494A      1.143322  
     495A      1.146054   496A      1.149154   497A      1.151971  
     498A      1.162026   499A      1.164096   500A      1.175514  
     501A      1.213077   502A      1.217193   503A      1.217875  
     504A      1.226965   505A      1.228870   506A      1.229186  
     507A      1.233969   508A      1.246693   509A      1.247657  
     510A      1.249600   511A      1.250383   512A      1.291240  
     513A      1.291559   514A      1.292416   515A      1.354940  
     516A      1.356274   517A      1.363048   518A      1.363603  
     519A      1.367434   520A      1.379762   521A      1.381359  
     522A      1.382405   523A      1.386796   524A      1.388356  
     525A      1.398120   526A      1.402647   527A      1.408339  
     528A      1.409128   529A      1.428172   530A      1.451597  
     531A      1.462623   532A      1.472039   533A      1.476824  
     534A      1.477158   535A      1.481605   536A      1.489818  
     537A      1.495405   538A      1.496413   539A      1.518891  
     540A      1.531561   541A      1.550166   542A      1.556669  
     543A      1.561343   544A      1.569245   545A      1.571739  
     546A      1.575586   547A      1.579159   548A      1.581825  
     549A      1.592891   550A      1.604013   551A      1.606532  
     552A      1.613038   553A      1.615122   554A      1.629269  
     555A      1.631947   556A      1.668453   557A      1.670545  
     558A      1.671355   559A      1.671793   560A      1.672320  
     561A      1.675370   562A      1.676274   563A      1.678970  
     564A      1.680312   565A      1.689056   566A      1.690286  
     567A      1.692480   568A      1.696141   569A      1.702909  
     570A      1.711808   571A      1.715127   572A      1.716305  
     573A      1.717024   574A      1.723808   575A      1.727857  
     576A      1.733152   577A      1.734328   578A      1.735969  
     579A      1.745645   580A      1.748144   581A      1.749802  
     582A      1.752324   583A      1.753960   584A      1.755229  
     585A      1.756423   586A      1.760179   587A      1.765806  
     588A      1.767755   589A      1.770416   590A      1.772728  
     591A      1.777386   592A      1.781723   593A      1.783770  
     594A      1.783936   595A      1.784900   596A      1.789750  
     597A      1.791550   598A      1.797908   599A      1.805636  
     600A      1.808035   601A      1.809610   602A      1.810819  
     603A      1.812426   604A      1.814372   605A      1.819589  
     606A      1.820866   607A      1.822839   608A      1.827620  
     609A      1.828516   610A      1.828839   611A      1.829392  
     612A      1.832074   613A      1.839451   614A      1.842252  
[...]
     802A      1.687593   803A      1.687931   804A      1.693821  
     805A      1.698020   806A      1.698979   807A      1.701241  
     808A      1.702627   809A      1.705000   810A      1.705107  
     811A      1.713339   812A      1.716233   813A      1.717299  
     814A      1.724288   815A      1.740351   816A      1.743929  
     817A      1.751999   818A      1.760610   819A      1.761227  
     820A      1.761648   821A      1.762289   822A      1.773207  
     823A      1.776633   824A      1.777639   825A      1.784247  
     826A      1.792716   827A      1.792910   828A      1.809717  
     829A      1.817857   830A      1.818151   831A      1.818486  
     832A      1.825042   833A      1.825563   834A      1.829225  
     835A      1.832601   836A      1.834517   837A      1.841162  
     838A      1.842639   839A      1.851917   840A      1.862438  
     841A      1.863158   842A      1.864337   843A      1.866042  
     844A      1.866831   845A      1.868277   846A      1.873868  
     847A      1.879971   848A      1.880734   849A      1.883203  
     850A      1.890482   851A      1.895782   852A      1.897259  
     853A      1.901336   854A      1.903131   855A      1.903894  
     856A      1.910186   857A      1.910554   858A      1.911194  
     859A      1.915372   860A      1.917220   861A      1.918337  
     862A      1.918678   863A      1.921246   864A      1.921730  
     865A      1.923210   866A      1.924003   867A      1.937639  
     868A      1.944350   869A      1.945705   870A      1.946100  
     871A      1.948335   872A      1.950654   873A      1.951515  
     874A      1.955789   875A      1.957347   876A      1.958073  
     877A      1.958512   878A      1.959191   879A      1.963532  
     880A      1.965993   881A      1.976284   882A      1.983668  
     883A      1.984367   884A      1.987768   885A      1.989812  
     886A      1.998131   887A      1.999772   888A      2.000959  
     889A      2.004817   890A      2.009585   891A      2.012918  
     892A      2.014672   893A      2.016135   894A      2.028816  
     895A      2.030661   896A      2.031644   897A      2.032342  
     898A      2.033039   899A      2.035812   900A      2.037617  
     901A      2.050232   902A      2.051624   903A      2.053068  
     904A      2.055707   905A      2.058191   906A      2.060852  
     907A      2.063177   908A      2.063648   909A      2.064750  
     910A      2.070371   911A      2.073786   912A      2.074487  
     913A      2.075679   914A      2.079211   915A      2.079969  
     916A      2.082295   917A      2.088468   918A      2.090074  
     919A      2.092984   920A      2.095091   921A      2.095910  
     922A      2.098235   923A      2.100438   924A      2.101504  
     925A      2.102533   926A      2.104739   927A      2.107407  
     928A      2.110031   929A      2.110601   930A      2.112610  
     931A      2.113677   932A      2.116503   933A      2.119643  
     934A      2.120607   935A      2.121746   936A      2.122196  
     937A      2.122417   938A      2.126024   939A      2.127812  
     940A      2.132692   941A      2.134807   942A      2.136132  
     943A      2.136744   944A      2.137324   945A      2.142412  
     946A      2.143837   947A      2.146065   948A      2.151285  
     949A      2.154079   950A      2.157848   951A      2.158468  
     952A      2.163305   953A      2.163986   954A      2.167029  
     955A      2.169978   956A      2.174677   957A      2.178857  
     958A      2.178994   959A      2.185267   960A      2.191155  
     961A      2.192228   962A      2.193411   963A      2.194274  
     964A      2.195581   965A      2.197353   966A      2.199081  
     967A      2.205917   968A      2.214779   969A      2.219991  
     970A      2.220505   971A      2.220955   972A      2.222258  
     973A      2.230270   974A      2.231034   975A      2.233072  
     976A      2.237222   977A      2.241379   978A      2.244535  
     979A      2.244967   980A      2.245361   981A      2.247417  
     982A      2.248969   983A      2.260135   984A      2.262098  
     985A      2.270107   986A      2.271139   987A      2.272648  
     988A      2.273807   989A      2.279845   990A      2.281031  
     991A      2.283672   992A      2.302324   993A      2.306614  
     994A      2.311384   995A      2.313159   996A      2.316668  
     997A      2.322709   998A      2.326139   999A      2.330781  
    1000A      2.332655  1001A      2.333544  1002A      2.335273  
    1003A      2.337698  1004A      2.349155  1005A      2.352607  
    1006A      2.353475  1007A      2.353743  1008A      2.359519  
    1009A      2.360712  1010A      2.366441  1011A      2.368510  
    1012A      2.376517  1013A      2.379631  1014A      2.390359  
    1015A      2.393843  1016A      2.416719  1017A      2.423306  
    1018A      2.424547  1019A      2.424796  1020A      2.424902  
    1021A      2.436674  1022A      2.440329  1023A      2.443893  
    1024A      2.446884  1025A      2.471368  1026A      2.475187  
    1027A      2.476999  1028A      2.484846  1029A      2.486775  
    1030A      2.490740  1031A      2.495721  1032A      2.504104  
    1033A      2.507164  1034A      2.517862  1035A      2.520637  
    1036A      2.524007  1037A      2.533345  1038A      2.539723  
    1039A      2.546891  1040A      2.547275  1041A      2.550830  
    1042A      2.555149  1043A      2.555314  1044A      2.557341  
    1045A      2.559879  1046A      2.560324  1047A      2.565012  
    1048A      2.573412  1049A      2.573466  1050A      2.575595  
    1051A      2.576276  1052A      2.585958  1053A      2.587260  
    1054A      2.587780  1055A      2.590844  1056A      2.594752  
    1057A      2.610805  1058A      2.620596  1059A      2.624673  
    1060A      2.625576  1061A      2.632446  1062A      2.633092  
    1063A      2.633838  1064A      2.641955  1065A      2.642176  
    1066A      2.651805  1067A      2.653078  1068A      2.660009  
    1069A      2.663611  1070A      2.678441  1071A      2.681567  
    1072A      2.685240  1073A      2.687172  1074A      2.688887  
    1075A      2.697264  1076A      2.700306  1077A      2.702673  
    1078A      2.704392  1079A      2.708175  1080A      2.713599  
    1081A      2.713666  1082A      2.719278  1083A      2.719397  
    1084A      2.724149  1085A      2.725510  1086A      2.745013  
    1087A      2.754095  1088A      2.758057  1089A      2.765338  
    1090A      2.775217  1091A      2.782146  1092A      2.783032  
    1093A      2.796989  1094A      2.797631  1095A      2.822185  
    1096A      2.827804  1097A      2.831092  1098A      2.854689  
    1099A      2.856281  1100A      2.856504  1101A      2.858678  
    1102A      2.861121  1103A      2.862097  1104A      2.873645  
    1105A      2.880496  1106A      2.894203  1107A      2.913150  
    1108A      2.919370  1109A      2.920136  1110A      2.924273  
    1111A      2.928736  1112A      2.934637  1113A      2.935445  
    1114A      2.944731  1115A      2.946026  1116A      2.961948  
    1117A      2.964927  1118A      2.981380  1119A      2.990838  
    1120A      3.008424  1121A      3.014716  1122A      3.016833  
    1123A      3.018767  1124A      3.041324  1125A      3.052965  
    1126A      3.063818  1127A      3.064924  1128A      3.067314  
    1129A      3.075185  1130A      3.076704  1131A      3.095032  
    1132A      3.113718  1133A      3.114474  1134A      3.131536  
    1135A      3.132076  1136A      3.133088  1137A      3.139629  
    1138A      3.148596  1139A      3.149478  1140A      3.149559  
    1141A      3.150039  1142A      3.151777  1143A      3.160610  
    1144A      3.161215  1145A      3.167835  1146A      3.169425  
    1147A      3.173107  1148A      3.192923  1149A      3.211514  
    1150A      3.221993  1151A      3.244600  1152A      3.277849  
    1153A      3.278101  1154A      3.278567  1155A      3.284547  
    1156A      3.284813  1157A      3.296925  1158A      3.335974  
    1159A      3.377797  1160A      3.418522  1161A      3.418825  
    1162A      3.446916  1163A      3.462930  1164A      3.484989  
    1165A      3.488430  1166A      3.540142  1167A      3.552987  
    1168A      3.579761  1169A      3.581967  1170A      3.599652  
    1171A      3.616583  1172A      3.628944  1173A      3.630301  
    1174A      3.653914  1175A      3.665862  1176A      3.673764  
    1177A      3.762562  1178A      3.775270  1179A      3.785721  
    1180A      3.786735  1181A      3.826282  1182A      3.871521  
    1183A      3.871729  1184A      3.874814  1185A      3.914097  
    1186A      3.914256  1187A      3.978080  1188A      3.985264  
    1189A      4.011449  1190A      4.043790  1191A      4.056722  
    1192A      4.093486  1193A      4.218281  1194A      4.225269  
    1195A      4.397711  1196A      4.402700  1197A      4.503841  
    1198A      4.768687  1199A      4.833645  1200A      4.843731  
    1201A      4.867454  1202A      4.958083  1203A      5.074111  
    1204A      5.076605  1205A      5.085057  1206A      5.125905  
    1207A      5.187453  1208A      5.406620  1209A      5.434866  
    1210A      5.751366  1211A      5.776438  1212A      6.075567  
    1213A     18.203394  1214A     18.472705  1215A     18.491278  
    1216A     18.575263  1217A     18.846113  1218A     25.350036  
    1219A     25.385408  

    Final Occupation by Irrep:
              A 
    DOCC [   171 ]
    NA   [   171 ]
    NB   [   171 ]

  @DF-RHF Final Energy: -2055.89428454027848

   => Energetics <=

    Nuclear Repulsion Energy =           6452.5568002797781446
    One-Electron Energy =              -15636.5014667629748146
    Two-Electron Energy =                7128.0503819429177383
    Total Energy =                      -2055.8942845402780222

Computation Completed


Properties will be evaluated at   0.000000,   0.000000,   0.000000 [a0]

Properties computed using the SCF density matrix


 Multipole Moments:

 ------------------------------------------------------------------------------------
     Multipole            Electronic (a.u.)      Nuclear  (a.u.)        Total (a.u.)
 ------------------------------------------------------------------------------------

 L = 1.  Multiply by 2.5417464519 to convert [e a0] to [Debye]
 Dipole X            :          0.0000322           -0.0000085            0.0000237
 Dipole Y            :         -0.0001985            0.0000167           -0.0001818
 Dipole Z            :       -411.0096027          411.0153717            0.0057691
 Magnitude           :                                                    0.0057720

 ------------------------------------------------------------------------------------

*** tstop() called on d-16-5-1 at Mon Jan 22 20:03:43 2024
Module time:
	user time   =    2691.84 seconds =      44.86 minutes
	system time =     143.67 seconds =       2.39 minutes
	total time  =        377 seconds =       6.28 minutes
Total time:
	user time   =    8843.52 seconds =     147.39 minutes
	system time =     654.22 seconds =      10.90 minutes
	total time  =       2677 seconds =      44.62 minutes
  Constructing Basis Sets for SAPT...

   => Loading Basis Set <=

    Name: (JUN-CC-PVDZ AUX)
    Role: RIFIT
    Keyword: DF_BASIS_SAPT
    atoms 1-2, 4-5, 10, 17-70 entry C          line   100 file /home/gridsan/tfroembgen/.conda/envs/psi4test/share/psi4/basis/jun-cc-pvdz-ri.gbs 
    atoms 3, 6                entry N          line   144 file /home/gridsan/tfroembgen/.conda/envs/psi4test/share/psi4/basis/jun-cc-pvdz-ri.gbs 
    atoms 7-9, 11-16, 71-88   entry H          line    30 file /home/gridsan/tfroembgen/.conda/envs/psi4test/share/psi4/basis/jun-cc-pvdz-ri.gbs 

   => Loading Basis Set <=

    Name: (JUN-CC-PVDZ AUX)
    Role: JKFIT
    Keyword: DF_BASIS_ELST
    atoms 1-2, 4-5, 10, 17-70 entry C          line   146 file /home/gridsan/tfroembgen/.conda/envs/psi4test/share/psi4/basis/jun-cc-pvdz-jkfit.gbs 
    atoms 3, 6                entry N          line   202 file /home/gridsan/tfroembgen/.conda/envs/psi4test/share/psi4/basis/jun-cc-pvdz-jkfit.gbs 
    atoms 7-9, 11-16, 71-88   entry H          line    70 file /home/gridsan/tfroembgen/.conda/envs/psi4test/share/psi4/basis/jun-cc-pvdz-jkfit.gbs 


  //>>>>>>>>>>>>>>>>>>>>>>>>>>>>>>>>>>>//
  //               SSAPT0              //
  //<<<<<<<<<<<<<<<<<<<<<<<<<<<<<<<<<<<//


*** tstart() called on d-16-5-1
*** at Mon Jan 22 20:03:44 2024

        SAPT0  
    Ed Hohenstein
     6 June 2009

      Orbital Information
  --------------------------
    NSO        =      1233
    NMO        =      1219
    NRI        =      4343
    NRI (Elst) =      5440
    NOCC A     =        26
    NOCC B     =       171
    FOCC A     =         7
    FOCC B     =        54
    NVIR A     =      1193
    NVIR B     =      1048

    Elst10,r            =    -0.011929726323 [Eh]
    Exch10              =     0.001290018516 [Eh]
    Exch10 (S^2)        =     0.001289409299 [Eh]

    Iter     Energy [mEh]          dE [mEh]         Residual      Time [s]
       1      -0.08732032       0.087320319       2.099421096           122
       2      -0.08839304       0.001072725       0.560939114           147
       3      -0.09493408       0.006541041       0.129949631           170
       4      -0.09487030      -0.000063781       0.058891791           192
       5      -0.09466190      -0.000208399       0.018483316           214
       6      -0.09469337       0.000031461       0.007326106           235
       7      -0.09471394       0.000020573       0.001721225           255
       8      -0.09471394      -0.000000003       0.000580944           275
       9      -0.09471272      -0.000001212       0.000197198           297
      10      -0.09471254      -0.000000187       0.000056778           318
      11      -0.09471262       0.000000088       0.000016484           338
      12      -0.09471265       0.000000022       0.000004827           358
      13      -0.09471264      -0.000000004       0.000001619           378
      14      -0.09471264      -0.000000002       0.000000425           398

    CHF Iterations converged


    Iter     Energy [mEh]          dE [mEh]         Residual      Time [s]
       1     -11.58053108      11.580531084      56.567707423           382
       2      -7.88233298      -3.698198102       7.508791135           955
       3      -7.89563017       0.013297183       2.685717870          1358
       4      -8.09409123       0.198461062       0.620436150          1885
       5      -8.10506710       0.010975870       0.189428161          2412
       6      -8.10037313      -0.004693971       0.096080031          2779
       7      -8.09899739      -0.001375732       0.039327740          3048
       8      -8.09958866       0.000591266       0.021108648          3281
       9      -8.09987493       0.000286269       0.009294880          3463
      10      -8.09980762      -0.000067306       0.007547532          3576
      11      -8.09973645      -0.000071173       0.003961547          3723
      12      -8.09975224       0.000015790       0.001879388          3889
      13      -8.09977337       0.000021126       0.000892525          4014
      14      -8.09976956      -0.000003804       0.000554704          4180
      15      -8.09976424      -0.000005323       0.000247822          4366
      16      -8.09976489       0.000000650       0.000115452          4453
      17      -8.09976625       0.000001358       0.000037987          4570
      18      -8.09976625       0.000000007       0.000015651          4596
      19      -8.09976612      -0.000000132       0.000008857          4616
      20      -8.09976607      -0.000000051       0.000003922          4636
      21      -8.09976611       0.000000045       0.000001834          4657
      22      -8.09976612       0.000000003       0.000000848          4682

    CHF Iterations converged

    Ind20,r (A<-B)      =    -0.000094712641 [Eh]
    Ind20,r (B<-A)      =    -0.008099766118 [Eh]
    Ind20,r             =    -0.008194478759 [Eh]
    Exch-Ind20,r (A<-B) =     0.000049245946 [Eh]
    Exch-Ind20,r (B<-A) =     0.000188965471 [Eh]
    Exch-Ind20,r        =     0.000238211416 [Eh]
    Disp20              =    -0.009487157068 [Eh]
    Disp20 (SS)         =    -0.004743578534 [Eh]
    Disp20 (OS)         =    -0.004743578534 [Eh]
    Exch-Disp20         =     0.000149803785 [Eh]
    Exch-Disp20 (SS)    =     0.000094698379 [Eh]
    Exch-Disp20 (OS)    =     0.000055105407 [Eh]

    SAPT Results 
  --------------------------------------------------------------------------------------------------------
    Electrostatics                -11.92972632 [mEh]      -7.48601629 [kcal/mol]     -31.32149215 [kJ/mol]
      Elst10,r                    -11.92972632 [mEh]      -7.48601629 [kcal/mol]     -31.32149215 [kJ/mol]

    Exchange                        1.29001852 [mEh]       0.80949884 [kcal/mol]       3.38694315 [kJ/mol]
      Exch10                        1.29001852 [mEh]       0.80949884 [kcal/mol]       3.38694315 [kJ/mol]
      Exch10(S^2)                   1.28940930 [mEh]       0.80911655 [kcal/mol]       3.38534365 [kJ/mol]

    Induction                      -8.65735364 [mEh]      -5.43257143 [kcal/mol]     -22.72987885 [kJ/mol]
      Ind20,r                      -8.19447876 [mEh]      -5.14211305 [kcal/mol]     -21.51460102 [kJ/mol]
      Exch-Ind20,r                  0.23821142 [mEh]       0.14947992 [kcal/mol]       0.62542399 [kJ/mol]
      delta HF,r (2)               -0.70108630 [mEh]      -0.43993829 [kcal/mol]      -1.84070183 [kJ/mol]

    Dispersion                     -9.33735328 [mEh]      -5.85927765 [kcal/mol]     -24.51521767 [kJ/mol]
      Disp20                       -9.48715707 [mEh]      -5.95328094 [kcal/mol]     -24.90852745 [kJ/mol]
      Exch-Disp20                   0.14980379 [mEh]       0.09400329 [kcal/mol]       0.39330978 [kJ/mol]
      Disp20 (SS)                  -4.74357853 [mEh]      -2.97664047 [kcal/mol]     -12.45426373 [kJ/mol]
      Disp20 (OS)                  -4.74357853 [mEh]      -2.97664047 [kcal/mol]     -12.45426373 [kJ/mol]
      Exch-Disp20 (SS)              0.09469838 [mEh]       0.05942413 [kcal/mol]       0.24863056 [kJ/mol]
      Exch-Disp20 (OS)              0.05510541 [mEh]       0.03457916 [kcal/mol]       0.14467922 [kJ/mol]

  Total HF                        -19.29706145 [mEh]     -12.10908888 [kcal/mol]     -50.66442785 [kJ/mol]
  Total SAPT0                     -28.63441473 [mEh]     -17.96836652 [kcal/mol]     -75.17964552 [kJ/mol]

  Special recipe for scaled SAPT0 (see Manual):
    Electrostatics sSAPT0         -11.92972632 [mEh]      -7.48601629 [kcal/mol]     -31.32149215 [kJ/mol]
    Exchange sSAPT0                 1.29001852 [mEh]       0.80949884 [kcal/mol]       3.38694315 [kJ/mol]
    Induction sSAPT0               -8.65701583 [mEh]      -5.43235945 [kcal/mol]     -22.72899194 [kJ/mol]
    Dispersion sSAPT0              -9.33714085 [mEh]      -5.85914434 [kcal/mol]     -24.51465991 [kJ/mol]
  Total sSAPT0                    -28.63386449 [mEh]     -17.96802124 [kcal/mol]     -75.17820085 [kJ/mol]
  --------------------------------------------------------------------------------------------------------

*** tstop() called on d-16-5-1 at Mon Jan 22 22:05:08 2024
Module time:
	user time   =    9085.34 seconds =     151.42 minutes
	system time =    1042.31 seconds =      17.37 minutes
	total time  =       7284 seconds =     121.40 minutes
Total time:
	user time   =   17930.15 seconds =     298.84 minutes
	system time =    1696.54 seconds =      28.28 minutes
	total time  =       9962 seconds =     166.03 minutes

    Psi4 stopped on: Monday, 22 January 2024 10:05PM
    Psi4 wall time for execution: 2:46:03.22

*** Psi4 exiting successfully. Buy a developer a beer!
