
    -----------------------------------------------------------------------
          Psi4: An Open-Source Ab Initio Electronic Structure Package
                               Psi4 1.9 release

                         Git: Rev {} zzzzzzz 


    D. G. A. Smith, L. A. Burns, A. C. Simmonett, R. M. Parrish,
    M. C. Schieber, R. Galvelis, P. Kraus, H. Kruse, R. Di Remigio,
    A. Alenaizan, A. M. James, S. Lehtola, J. P. Misiewicz, M. Scheurer,
    R. A. Shaw, J. B. Schriber, Y. Xie, Z. L. Glick, D. A. Sirianni,
    J. S. O'Brien, J. M. Waldrop, A. Kumar, E. G. Hohenstein,
    B. P. Pritchard, B. R. Brooks, H. F. Schaefer III, A. Yu. Sokolov,
    K. Patkowski, A. E. DePrince III, U. Bozkaya, R. A. King,
    F. A. Evangelista, J. M. Turney, T. D. Crawford, C. D. Sherrill,
    J. Chem. Phys. 152(18) 184108 (2020). https://doi.org/10.1063/5.0006002

                            Additional Code Authors
    E. T. Seidl, C. L. Janssen, E. F. Valeev, M. L. Leininger,
    J. F. Gonthier, R. M. Richard, H. R. McAlexander, M. Saitow, X. Wang,
    P. Verma, M. H. Lechner, A. Jiang, S. Behnle, A. G. Heide,
    M. F. Herbst, and D. L. Poole

             Previous Authors, Complete List of Code Contributors,
                       and Citations for Specific Modules
    https://github.com/psi4/psi4/blob/master/codemeta.json
    https://github.com/psi4/psi4/graphs/contributors
    http://psicode.org/psi4manual/master/introduction.html#citing-psifour

    -----------------------------------------------------------------------


    Psi4 started on: Saturday, 27 January 2024 10:42AM

    Process ID: 3514241
    Host:       n2cn0227
    PSIDATADIR: /opt/software/pc2/EB-SW/software/PSI4/1.9-foss-2022a/share/psi4
    Memory:     500.0 MiB
    Threads:    16
    
  ==> Input File <==

--------------------------------------------------------------------------
memory 64 GB # how much memory is available ! Depends on the nodes/cores !

molecule dimer {
# monomer A
-1 1    # Charge and multiplicity
B -1.977592e-04  2.742729e-04 -4.399966
F  1.123153e-16  1.430594e-17 -2.987181
F  1.147860e+00  6.757812e-01 -4.871107
F  1.191806e-02 -1.332011e+00 -4.870905
F -1.159666e+00  6.560735e-01 -4.870826
--
# monomer B
0 1     # Charge and multiplicity
C   -3.66844126402057      7.80375217008252      0.00190004133558
C   -4.84759871934653      7.13124183134024     -0.00046653359696
C   -4.89495929917518      5.69633040353158     -0.00103944469517
C   -3.65374067877320      4.98073034095895      0.00662099703436
C   -2.40942512149445      7.11398103667468      0.00209438359570
C   -2.42547734410473      5.68112195090346     -0.00491050527438
C   -1.19474401643570      7.78614419430947      0.00356656413763
C   0.03795902893699      7.09942164575698      0.00139585983271
C   0.03033258741920      5.66948955970466     -0.00408752508301
C   -1.20098450790502      4.96927034791531      0.00488220885047
C   1.27795782581485      7.77285944319479      0.00277170839332
C   2.48535808472416      7.08769688523756      0.00049722048857
C   2.48612868491717      5.65477081024076     -0.00644052849921
C   1.25408291964399      4.95607811366431      0.00518741308898
C   3.75171459140595      7.76391215098033      0.00062407186893
C   4.92356605618520      7.07878077698995     -0.00143240883900
C   4.95560727132542      5.64344746336949     -0.00159282164606
C   3.70680153420475      4.94121020833308      0.00349873852374
H   -3.65852113775815      8.89082741913536      0.00358502958574
H   -1.18921332975660      8.87412108735996      0.00753844057883
H   1.28429423888630      8.86083343548850      0.00693053253426
H   3.75354208679975      8.85103527897216      0.00214659618464
H   5.86995870320703      7.61379483465560     -0.00235777588134
H   -5.78823170750226      7.67630221293400     -0.00202638095293
C   -6.09197395869619      4.99326001364347     -0.00291168518608
C   -6.12866148031747      3.58258016879823     -0.00171050815740
C   -3.66457974004527      3.56418217974434     -0.00463560277484
C   -4.89429820469869      2.86108077590057      0.00453338221034
C   -2.43733499489796      2.84761165708481      0.00719617576166
C   -1.20922785759670      3.54788693497833     -0.00648285103018
C   1.24714157216223      3.53468075142962     -0.00729145743546
C   0.01517603956900      2.83311183930540      0.00439272578912
C   2.46764517244071      2.82128997725533      0.00449278391269
C   3.70254947457969      3.52466015442405     -0.00899517692985
C   6.14498038638375      4.92757236613191     -0.00282626685777
C   6.16658835886151      3.51658447594213     -0.00065971342101
C   4.92460995845939      2.80840792535402      0.00587903281610
H   7.08990550964105      5.46688776622306     -0.00658814770723
H   -7.03104175110130      5.54268795285765     -0.00714490013730
C   -7.33969804112295      2.85841153457957     -0.00333767559888
C   -7.36488195805880      1.47032337158330     -0.00157213747140
C   -4.90350460894690      1.44442681216000     -0.00628840166334
C   -6.13225715261081      0.73993935705394      0.00600164231964
C   -3.67687480051673      0.72669714267312      0.00433931473643
C   -2.44565658606518      1.42964113326212     -0.00597039546461
C   -1.22360068130162      0.71532450163492      0.00545886906656
C   0.00763786931376      1.41738314923765      0.00392452278437
C   1.23121980774686      0.70211669058719     -0.01490206287210
C   2.46082110053113      1.40329203612573      0.00460244601878
C   3.68443025419614      0.68719842821222      0.00377365974158
C   4.91870890153864      1.39173456118907     -0.00862816189375
C   7.36980207796101      2.77948220318441     -0.00242013321349
C   7.38016266612146      1.39121750785509     -0.00087345036788
C   6.13979953912259      0.67411862320065      0.00545489144369
H   -8.27919079934664      3.40711804112415     -0.00763522772059
H   8.31511347147953      3.31811809662368     -0.00663070901292
C   -8.59175593758115      0.72483255304480     -0.00123170985383
C   -8.59902460370342     -0.63263980622873      0.00089141472904
C   -6.13981313911873     -0.67413663715361     -0.00609792660607
C   -7.38018411213749     -1.39126618958160      0.00131813493501
C   -4.91868448025621     -1.39175501803000      0.00624257154343
C   -3.68443829568458     -0.68723731573599     -0.00478966852105
C   -2.46081704024768     -1.40334517882457      0.00575341766833
C   -1.23116201232071     -0.70217386488055     -0.00636696112346
C   -0.00756962538737     -1.41741884941102      0.00108956317991
C   1.22364771588843     -0.71527537726392      0.01109518512883
C   2.44567064933149     -1.42964328900682     -0.00065482763106
C   3.67686670284649     -0.72670743155550     -0.00479541202602
C   6.13224884641929     -0.73997883984993     -0.00632338623858
C   4.90351914550401     -1.44445752054090      0.00751768830159
C   8.59901484869081      0.63260386666793     -0.00101133422380
C   8.59174548810050     -0.72485086719319      0.00072504603735
C   7.36486276438985     -1.47033266560598      0.00049486934466
H   -9.52830597181814      1.27684744919284     -0.00270163681798
H   9.54141097460619      1.17457248844457     -0.00206336648518
C   -7.36983790976868     -2.77954514593389      0.00312634335708
C   -4.92459910905015     -2.80843725734101     -0.00460528907921
C   -6.16662249566744     -3.51665219282533      0.00169655107992
C   -3.70251035970491     -3.52468154912026      0.00571878010666
C   -2.46764698511392     -2.82132596280400     -0.00632585824990
C   -0.01513347410770     -2.83314164539971     -0.00604426974092
C   -1.24712184122656     -3.53473217556300      0.00551968366725
C   1.20924506964357     -3.54791467864352      0.00805871345849
C   2.43733602215464     -2.84764173817541     -0.00608104485234
C   4.89430234377080     -2.86112296828604     -0.00526030478103
C   3.66461525504104     -3.56421984553201      0.00761911515957
C   6.12863901474565     -3.58258405771778      0.00096495711699
C   7.33967266469532     -2.85841330737039      0.00248018319869
H   -9.54144911125902     -1.17456346666430      0.00226083090216
H   9.52826186807155     -1.27691907390448      0.00197485379837
H   -8.31516504384864     -3.31814985321231      0.00729857188773
H   8.27915514249207     -3.40714078989363      0.00681973918158
C   -6.14499418870218     -4.92764727278338      0.00302254913999
C   -3.70678334799751     -4.94126171411716     -0.00679841894792
C   -4.95559005800169     -5.64349397349412      0.00116871569699
C   -2.48612132622665     -5.65478557440947      0.00614125209662
C   -1.25405833548005     -4.95612205000132     -0.00503435388927
C   1.20101257386816     -4.96928038819302     -0.00385322963129
C   -0.03033667441341     -5.66952030313900      0.00398997003238
C   3.65375010132847     -4.98074377541453     -0.00309522988330
C   2.42549269587528     -5.68117463552727      0.00628170066869
C   6.09196561781097     -4.99325796338655      0.00325918379042
C   4.89497644461045     -5.69634842095790      0.00202298796027
H   -7.08989238804069     -5.46699984223871      0.00742531082125
H   7.03105520920009     -5.54265853633254      0.00683896355417
C   -4.92354532219813     -7.07882109967734      0.00061394679214
C   -2.48534208823777     -7.08772807792913     -0.00189594564379
C   -3.75168589177895     -7.76394715763627     -0.00170126671874
C   -0.03794895698805     -7.09946487446944     -0.00168022049625
C   -1.27795610040136     -7.77290438466689     -0.00366491325785
C   2.40944432072629     -7.11402201200282     -0.00081701968533
C   1.19474993715296     -7.78618536556242     -0.00296931056689
C   4.84762105249800     -7.13126211057943      0.00168979497423
C   3.66847160587561     -7.80378799294376     -0.00065863938960
H   -5.86994035041618     -7.61383059804164      0.00215798365757
H   5.78824962538815     -7.67633218931421      0.00281691445618
H   -3.75352693944918     -8.85107156923607     -0.00353718114765
H   -1.28430440589466     -8.86087539249706     -0.00809229711623
H   1.18922157469537     -8.87416062058945     -0.00706194725726
H   3.65854661482387     -8.89086063405326     -0.00231318081200

    units angstrom      # Angstroms are the default
    no_reorient         # Geometry fixed, default
    symmetry c1         # C1 symmetry, default
}

set {
    scf_type DF         # Density fitting, faster than exact integrals
    freeze_core True    # Freeze core electrons
    basis jun-cc-pVDZ   # Jun-cc-pVDZ basis set, recommended for sSAPT0 in https://doi.org/10.1063/1.4867135
}

energy('ssapt0')        # Compute sSAPT0 energy, includes also SAPT0
--------------------------------------------------------------------------

  Memory set to  59.605 GiB by Python driver.

Scratch directory: /tmp/
   => Loading Basis Set <=

    Name: JUN-CC-PVDZ
    Role: ORBITAL
    Keyword: BASIS
    atoms 1                                                   entry B          line   130 file /opt/software/pc2/EB-SW/software/PSI4/1.9-foss-2022a/share/psi4/basis/jun-cc-pvdz.gbs 
    atoms 2-5                                                 entry F          line   266 file /opt/software/pc2/EB-SW/software/PSI4/1.9-foss-2022a/share/psi4/basis/jun-cc-pvdz.gbs 
    atoms 6-23, 30-42, 45-59, 62-78, 81-93, 98-108, 111-119   entry C          line   164 file /opt/software/pc2/EB-SW/software/PSI4/1.9-foss-2022a/share/psi4/basis/jun-cc-pvdz.gbs 
    atoms 24-29, 43-44, 60-61, 79-80, 94-97, 109-110, 120-125 entry H          line    36 file /opt/software/pc2/EB-SW/software/PSI4/1.9-foss-2022a/share/psi4/basis/jun-cc-pvdz.gbs 

   => Loading Basis Set <=

    Name: JUN-CC-PVDZ
    Role: ORBITAL
    Keyword: BASIS
    atoms 1                                                   entry B          line   130 file /opt/software/pc2/EB-SW/software/PSI4/1.9-foss-2022a/share/psi4/basis/jun-cc-pvdz.gbs 
    atoms 2-5                                                 entry F          line   266 file /opt/software/pc2/EB-SW/software/PSI4/1.9-foss-2022a/share/psi4/basis/jun-cc-pvdz.gbs 
    atoms 6-23, 30-42, 45-59, 62-78, 81-93, 98-108, 111-119   entry C          line   164 file /opt/software/pc2/EB-SW/software/PSI4/1.9-foss-2022a/share/psi4/basis/jun-cc-pvdz.gbs 
    atoms 24-29, 43-44, 60-61, 79-80, 94-97, 109-110, 120-125 entry H          line    36 file /opt/software/pc2/EB-SW/software/PSI4/1.9-foss-2022a/share/psi4/basis/jun-cc-pvdz.gbs 


  //>>>>>>>>>>>>>>>>>>>>>>>>>>>>>>>>>>>//
  //              Dimer HF             //
  //<<<<<<<<<<<<<<<<<<<<<<<<<<<<<<<<<<<//

   => Libint2 <=

    Primary   basis highest AM E, G, H:  5, 4, 3
    Auxiliary basis highest AM E, G, H:  6, 5, 4
    Onebody   basis highest AM E, G, H:  6, 5, 4
    Solid Harmonics ordering:            gaussian

*** tstart() called on n2cn0227
*** at Sat Jan 27 10:43:09 2024

   => Loading Basis Set <=

    Name: JUN-CC-PVDZ
    Role: ORBITAL
    Keyword: BASIS
    atoms 1                                                   entry B          line   130 file /opt/software/pc2/EB-SW/software/PSI4/1.9-foss-2022a/share/psi4/basis/jun-cc-pvdz.gbs 
    atoms 2-5                                                 entry F          line   266 file /opt/software/pc2/EB-SW/software/PSI4/1.9-foss-2022a/share/psi4/basis/jun-cc-pvdz.gbs 
    atoms 6-23, 30-42, 45-59, 62-78, 81-93, 98-108, 111-119   entry C          line   164 file /opt/software/pc2/EB-SW/software/PSI4/1.9-foss-2022a/share/psi4/basis/jun-cc-pvdz.gbs 
    atoms 24-29, 43-44, 60-61, 79-80, 94-97, 109-110, 120-125 entry H          line    36 file /opt/software/pc2/EB-SW/software/PSI4/1.9-foss-2022a/share/psi4/basis/jun-cc-pvdz.gbs 


         ---------------------------------------------------------
                                   SCF
               by Justin Turney, Rob Parrish, Andy Simmonett
                          and Daniel G. A. Smith
                              RHF Reference
                       16 Threads,  61035 MiB Core
         ---------------------------------------------------------

  ==> Geometry <==

    Molecular point group: c1
    Full point group: C1

    Geometry (in Angstrom), charge = -1, multiplicity = 1:

       Center              X                  Y                   Z               Mass       
    ------------   -----------------  -----------------  -----------------  -----------------
         B           -0.000201921932     0.000288800891    -4.096916845035    11.009305360000
         F           -0.000004162732     0.000014527991    -2.684131845035    18.998403162730
         F            1.147855837268     0.675795727991    -4.568057845035    18.998403162730
         F            0.011913897268    -1.331996472009    -4.567855845035    18.998403162730
         F           -1.159670162732     0.656088027991    -4.567776845035    18.998403162730
         C           -3.668445426752     7.803766698073     0.304949196301    12.000000000000
         C           -4.847602882078     7.131256359331     0.302582621368    12.000000000000
         C           -4.894963461907     5.696344931522     0.302009710270    12.000000000000
         C           -3.653744841505     4.980744868950     0.309670151999    12.000000000000
         C           -2.409429284226     7.113995564665     0.305143538561    12.000000000000
         C           -2.425481506836     5.681136478894     0.298138649691    12.000000000000
         C           -1.194748179167     7.786158722300     0.306615719103    12.000000000000
         C            0.037954866205     7.099436173748     0.304445014798    12.000000000000
         C            0.030328424687     5.669504087695     0.298961629882    12.000000000000
         C           -1.200988670637     4.969284875906     0.307931363816    12.000000000000
         C            1.277953663083     7.772873971185     0.305820863358    12.000000000000
         C            2.485353921992     7.087711413228     0.303546375454    12.000000000000
         C            2.486124522185     5.654785338231     0.296608626466    12.000000000000
         C            1.254078756912     4.956092641655     0.308236568054    12.000000000000
         C            3.751710428674     7.763926678971     0.303673226834    12.000000000000
         C            4.923561893453     7.078795304981     0.301616746126    12.000000000000
         C            4.955603108594     5.643461991360     0.301456333319    12.000000000000
         C            3.706797371473     4.941224736324     0.306547893489    12.000000000000
         H           -3.658525300490     8.890841947126     0.306634184551     1.007825032230
         H           -1.189217492488     8.874135615351     0.310587595544     1.007825032230
         H            1.284290076155     8.860847963479     0.309979687499     1.007825032230
         H            3.753537924068     8.851049806963     0.305195751150     1.007825032230
         H            5.869954540475     7.613809362646     0.300691379084     1.007825032230
         H           -5.788235870234     7.676316740925     0.301022774012     1.007825032230
         C           -6.091978121428     4.993274541634     0.300137469779    12.000000000000
         C           -6.128665643049     3.582594696789     0.301338646808    12.000000000000
         C           -3.664583902777     3.564196707735     0.298413552190    12.000000000000
         C           -4.894302367430     2.861095303891     0.307582537175    12.000000000000
         C           -2.437339157630     2.847626185075     0.310245330727    12.000000000000
         C           -1.209232020328     3.547901462969     0.296566303935    12.000000000000
         C            1.247137409430     3.534695279420     0.295757697530    12.000000000000
         C            0.015171876837     2.833126367296     0.307441880754    12.000000000000
         C            2.467641009709     2.821304505246     0.307541938878    12.000000000000
         C            3.702545311848     3.524674682415     0.294053978035    12.000000000000
         C            6.144976223652     4.927586894122     0.300222888107    12.000000000000
         C            6.166584196130     3.516599003933     0.302389441544    12.000000000000
         C            4.924605795728     2.808422453345     0.308928187781    12.000000000000
         H            7.089901346909     5.466902294214     0.296461007258     1.007825032230
         H           -7.031045913833     5.542702480848     0.295904254828     1.007825032230
         C           -7.339702203855     2.858426062570     0.299711479366    12.000000000000
         C           -7.364886120791     1.470337899574     0.301477017494    12.000000000000
         C           -4.903508771679     1.444441340151     0.296760753302    12.000000000000
         C           -6.132261315343     0.739953885044     0.309050797285    12.000000000000
         C           -3.676878963248     0.726711670664     0.307388469702    12.000000000000
         C           -2.445660748797     1.429655661253     0.297078759501    12.000000000000
         C           -1.223604844033     0.715339029625     0.308508024032    12.000000000000
         C            0.007633706582     1.417397677228     0.306973677749    12.000000000000
         C            1.231215645015     0.702131218578     0.288147092093    12.000000000000
         C            2.460816937799     1.403306564116     0.307651600984    12.000000000000
         C            3.684426091464     0.687212956203     0.306822814707    12.000000000000
         C            4.918704738807     1.391749089180     0.294420993071    12.000000000000
         C            7.369797915229     2.779496731175     0.300629021752    12.000000000000
         C            7.380158503390     1.391232035846     0.302175704597    12.000000000000
         C            6.139795376391     0.674133151191     0.308504046409    12.000000000000
         H           -8.279194962078     3.407132569115     0.295413927245     1.007825032230
         H            8.315109308748     3.318132624614     0.296418445952     1.007825032230
         C           -8.591760100313     0.724847081035     0.301817445111    12.000000000000
         C           -8.599028766435    -0.632625278238     0.303940569694    12.000000000000
         C           -6.139817301850    -0.674122109163     0.296951228359    12.000000000000
         C           -7.380188274869    -1.391251661591     0.304367289900    12.000000000000
         C           -4.918688642988    -1.391740490039     0.309291726509    12.000000000000
         C           -3.684442458416    -0.687222787745     0.298259486444    12.000000000000
         C           -2.460821202979    -1.403330650834     0.308802572633    12.000000000000
         C           -1.231166175052    -0.702159336890     0.296682193842    12.000000000000
         C           -0.007573788119    -1.417404321420     0.304138718145    12.000000000000
         C            1.223643553157    -0.715260849273     0.314144340094    12.000000000000
         C            2.445666486600    -1.429628761016     0.302394327334    12.000000000000
         C            3.676862540115    -0.726692903565     0.298253742939    12.000000000000
         C            6.132244683688    -0.739964311859     0.296725768727    12.000000000000
         C            4.903514982772    -1.444442992550     0.310566843267    12.000000000000
         C            8.599010685959     0.632618394658     0.302037820741    12.000000000000
         C            8.591741325369    -0.724836339203     0.303774201002    12.000000000000
         C            7.364858601658    -1.470318137615     0.303544024310    12.000000000000
         H           -9.528310134550     1.276861977183     0.300347518147     1.007825032230
         H            9.541406811874     1.174587016435     0.300985788480     1.007825032230
         C           -7.369842072500    -2.779530617943     0.306175498322    12.000000000000
         C           -4.924603271782    -2.808422729350     0.298443865886    12.000000000000
         C           -6.166626658399    -3.516637664835     0.304745706045    12.000000000000
         C           -3.702514522437    -3.524667021130     0.308767935072    12.000000000000
         C           -2.467651147846    -2.821311434813     0.296723296715    12.000000000000
         C           -0.015137636839    -2.833127117409     0.297004885224    12.000000000000
         C           -1.247126003958    -3.534717647572     0.308568838632    12.000000000000
         C            1.209240906912    -3.547900150653     0.311107868424    12.000000000000
         C            2.437331859423    -2.847627210185     0.296968110113    12.000000000000
         C            4.894298181039    -2.861108440295     0.297788850184    12.000000000000
         C            3.664611092309    -3.564205317541     0.310668270125    12.000000000000
         C            6.128634852014    -3.582569529727     0.304014112082    12.000000000000
         C            7.339668501964    -2.858398779380     0.305529338164    12.000000000000
         H           -9.541453273991    -1.174548938674     0.305309985867     1.007825032230
         H            9.528257705340    -1.276904545914     0.305024008763     1.007825032230
         H           -8.315169206580    -3.318135325222     0.310347726853     1.007825032230
         H            8.279150979760    -3.407126261903     0.309868894147     1.007825032230
         C           -6.144998351434    -4.927632744793     0.306071704105    12.000000000000
         C           -3.706787510729    -4.941247186127     0.296250736017    12.000000000000
         C           -4.955594220733    -5.643479445504     0.304217870662    12.000000000000
         C           -2.486125488958    -5.654771046419     0.309190407062    12.000000000000
         C           -1.254062498212    -4.956107522011     0.298014801076    12.000000000000
         C            1.201008411136    -4.969265860202     0.299195925334    12.000000000000
         C           -0.030340837145    -5.669505775148     0.307039124998    12.000000000000
         C            3.653745938597    -4.980729247424     0.299953925082    12.000000000000
         C            2.425488533144    -5.681160107537     0.309330855634    12.000000000000
         C            6.091961455079    -4.993243435396     0.306308338756    12.000000000000
         C            4.894972281879    -5.696333892967     0.305072142925    12.000000000000
         H           -7.089896550772    -5.466985314248     0.310474465786     1.007825032230
         H            7.031051046468    -5.542644008342     0.309888118519     1.007825032230
         C           -4.923549484930    -7.078806571687     0.303663101757    12.000000000000
         C           -2.485346250970    -7.087713549939     0.301153209321    12.000000000000
         C           -3.751690054511    -7.763932629646     0.301347888246    12.000000000000
         C           -0.037953119720    -7.099450346479     0.301368934469    12.000000000000
         C           -1.277960263133    -7.772889856676     0.299384241707    12.000000000000
         C            2.409440157995    -7.114007484012     0.302232135280    12.000000000000
         C            1.194745774421    -7.786170837572     0.300079844398    12.000000000000
         C            4.847616889766    -7.131247582589     0.304738949939    12.000000000000
         C            3.668467443144    -7.803773464953     0.302390515576    12.000000000000
         H           -5.869944513148    -7.613816070051     0.305207138623     1.007825032230
         H            5.788245462656    -7.676317661324     0.305866069421     1.007825032230
         H           -3.753531102181    -8.851057041246     0.299511973817     1.007825032230
         H           -1.284308568626    -8.860860864507     0.294956857849     1.007825032230
         H            1.189217411964    -8.874146092599     0.295987207708     1.007825032230
         H            3.658542452092    -8.890846106063     0.300735974153     1.007825032230

  Running in c1 symmetry.

  Rotational constants: A =      0.00066  B =      0.00066  C =      0.00035 [cm^-1]
  Rotational constants: A =     19.76780  B =     19.76449  C =     10.55117 [MHz]
  Nuclear repulsion = 17584.143359831337875

  Charge       = -1
  Multiplicity = 1
  Electrons    = 642
  Nalpha       = 321
  Nbeta        = 321

  ==> Algorithm <==

  SCF Algorithm Type is DF.
  DIIS enabled.
  MOM disabled.
  Fractional occupation disabled.
  Guess Type is SAD.
  Energy threshold   = 1.00e-08
  Density threshold  = 1.00e-08
  Integral threshold = 1.00e-12

  ==> Primary Basis <==

  Basis Set: JUN-CC-PVDZ
    Blend: JUN-CC-PVDZ
    Number of shells: 880
    Number of basis functions: 1938
    Number of Cartesian functions: 2039
    Spherical Harmonics?: true
    Max angular momentum: 2

   => Loading Basis Set <=

    Name: (JUN-CC-PVDZ AUX)
    Role: JKFIT
    Keyword: DF_BASIS_SCF
    atoms 1                                                   entry B          line    90 file /opt/software/pc2/EB-SW/software/PSI4/1.9-foss-2022a/share/psi4/basis/jun-cc-pvdz-jkfit.gbs 
    atoms 2-5                                                 entry F          line   314 file /opt/software/pc2/EB-SW/software/PSI4/1.9-foss-2022a/share/psi4/basis/jun-cc-pvdz-jkfit.gbs 
    atoms 6-23, 30-42, 45-59, 62-78, 81-93, 98-108, 111-119   entry C          line   146 file /opt/software/pc2/EB-SW/software/PSI4/1.9-foss-2022a/share/psi4/basis/jun-cc-pvdz-jkfit.gbs 
    atoms 24-29, 43-44, 60-61, 79-80, 94-97, 109-110, 120-125 entry H          line    70 file /opt/software/pc2/EB-SW/software/PSI4/1.9-foss-2022a/share/psi4/basis/jun-cc-pvdz-jkfit.gbs 

  ==> Integral Setup <==

  ==> DiskDFJK: Density-Fitted J/K Matrices <==

    J tasked:                  Yes
    K tasked:                  Yes
    wK tasked:                  No
    OpenMP threads:             16
    Integrals threads:          16
    Memory [MiB]:            45776
    Algorithm:                Disk
    Integral Cache:           SAVE
    Schwarz Cutoff:          1E-12
    Fitting Condition:       1E-10

   => Auxiliary Basis Set <=

  Basis Set: (JUN-CC-PVDZ AUX)
    Blend: JUN-CC-PVDZ-JKFIT
    Number of shells: 2943
    Number of basis functions: 8531
    Number of Cartesian functions: 9791
    Spherical Harmonics?: true
    Max angular momentum: 3

  Minimum eigenvalue in the overlap matrix is 8.8206130721E-11.
  Reciprocal condition number of the overlap matrix is 3.7695301682E-12.
    Using canonical orthogonalization.
  Overall, 38 of 1938 possible MOs eliminated.


  ==> Pre-Iterations <==

  SCF Guess: Superposition of Atomic Densities via on-the-fly atomic UHF (no occupation information).

   -------------------------
    Irrep   Nso     Nmo    
   -------------------------
     A       1938    1900 
   -------------------------
    Total    1938    1900
   -------------------------

  ==> Iterations <==

                           Total Energy        Delta E     RMS |[F,P]|

   @DF-RHF iter SAD: -4085.05521465261427   -4.08506e+03   0.00000e+00 
   @DF-RHF iter   1: -4071.51067669005079    1.35445e+01   7.91328e-04 DIIS/ADIIS
   @DF-RHF iter   2: -4072.91542020382030   -1.40474e+00   3.11003e-04 DIIS/ADIIS
   @DF-RHF iter   3: -4073.08344925488154   -1.68029e-01   1.03820e-04 DIIS/ADIIS
   @DF-RHF iter   4: -4073.10604699937267   -2.25977e-02   3.93416e-05 DIIS
   @DF-RHF iter   5: -4073.10977804556524   -3.73105e-03   1.14748e-05 DIIS
   @DF-RHF iter   6: -4073.11026274188089   -4.84696e-04   4.58215e-06 DIIS
   @DF-RHF iter   7: -4073.11044623758244   -1.83496e-04   2.46758e-06 DIIS
   @DF-RHF iter   8: -4073.11050563678691   -5.93992e-05   1.25967e-06 DIIS
   @DF-RHF iter   9: -4073.11052611254490   -2.04758e-05   4.27039e-07 DIIS
   @DF-RHF iter  10: -4073.11052740550804   -1.29296e-06   1.79379e-07 DIIS
   @DF-RHF iter  11: -4073.11052761694418   -2.11436e-07   6.28220e-08 DIIS
   @DF-RHF iter  12: -4073.11052765177465   -3.48305e-08   3.31277e-08 DIIS
   @DF-RHF iter  13: -4073.11052766011562   -8.34098e-09   1.07107e-08 DIIS
   @DF-RHF iter  14: -4073.11052766066587   -5.50244e-10   4.19397e-09 DIIS
  Energy and wave function converged.


  ==> Post-Iterations <==

    Orbital Energies [Eh]
    ---------------------

    Doubly Occupied:                                                      

       1A    -26.087107     2A    -26.077214     3A    -26.077128  
       4A    -26.077036     5A    -11.200464     6A    -11.200453  
       7A    -11.200449     8A    -11.200449     9A    -11.200446  
      10A    -11.200436    11A    -11.200435    12A    -11.200422  
      13A    -11.200422    14A    -11.200422    15A    -11.200418  
      16A    -11.200407    17A    -11.199787    18A    -11.199765  
      19A    -11.199765    20A    -11.199745    21A    -11.199727  
      22A    -11.199722    23A    -11.197086    24A    -11.197072  
      25A    -11.197063    26A    -11.197011    27A    -11.197006  
      28A    -11.196941    29A    -11.196908    30A    -11.196843  
      31A    -11.196838    32A    -11.196823    33A    -11.196816  
      34A    -11.196814    35A    -11.196797    36A    -11.196780  
      37A    -11.196775    38A    -11.196700    39A    -11.196697  
      40A    -11.196655    41A    -11.196021    42A    -11.195977  
      43A    -11.195970    44A    -11.195884    45A    -11.195873  
      46A    -11.195830    47A    -11.195377    48A    -11.195375  
      49A    -11.195365    50A    -11.195364    51A    -11.195362  
      52A    -11.195361    53A    -11.195235    54A    -11.195190  
      55A    -11.195185    56A    -11.195083    57A    -11.195077  
      58A    -11.194989    59A    -11.194937    60A    -11.194870  
      61A    -11.194866    62A    -11.194785    63A    -11.194782  
      64A    -11.194764    65A    -11.193657    66A    -11.193633  
      67A    -11.193612    68A    -11.193549    69A    -11.193531  
      70A    -11.193489    71A    -11.192715    72A    -11.192650  
      73A    -11.192624    74A    -11.192509    75A    -11.192507  
      76A    -11.192497    77A    -11.192496    78A    -11.192492  
      79A    -11.192435    80A    -11.192433    81A    -11.192429  
      82A    -11.192421    83A    -11.192416    84A    -11.192411  
      85A    -11.192402    86A    -11.192341    87A    -11.192337  
      88A    -11.192327    89A    -11.190810    90A    -11.190750  
      91A    -11.190714    92A    -11.190653    93A    -11.190602  
      94A    -11.190587    95A    -11.189352    96A    -11.188952  
      97A    -11.188863    98A    -11.187940    99A    -11.187847  
     100A    -11.187379   101A     -7.551774   102A     -1.423931  
     103A     -1.368897   104A     -1.361265   105A     -1.361102  
     106A     -1.184824   107A     -1.172990   108A     -1.172985  
     109A     -1.156126   110A     -1.156117   111A     -1.147400  
     112A     -1.138078   113A     -1.131897   114A     -1.121419  
     115A     -1.121414   116A     -1.111129   117A     -1.111126  
     118A     -1.089910   119A     -1.089907   120A     -1.085984  
     121A     -1.082445   122A     -1.082442   123A     -1.064340  
     124A     -1.050776   125A     -1.049782   126A     -1.049327  
     127A     -1.046418   128A     -1.046403   129A     -1.024401  
     130A     -1.024387   131A     -1.014844   132A     -1.014844  
     133A     -1.002746   134A     -1.002716   135A     -0.998972  
     136A     -0.983381   137A     -0.983372   138A     -0.976857  
     139A     -0.976620   140A     -0.976619   141A     -0.959872  
     142A     -0.953723   143A     -0.953673   144A     -0.944326  
     145A     -0.942509   146A     -0.939924   147A     -0.935671  
     148A     -0.935625   149A     -0.929519   150A     -0.906458  
     151A     -0.906414   152A     -0.893066   153A     -0.893012  
     154A     -0.844353   155A     -0.844311   156A     -0.839531  
     157A     -0.839487   158A     -0.837019   159A     -0.825901  
     160A     -0.825841   161A     -0.824816   162A     -0.824378  
     163A     -0.824319   164A     -0.810040   165A     -0.808930  
     166A     -0.789406   167A     -0.782907   168A     -0.782888  
     169A     -0.779901   170A     -0.778676   171A     -0.771388  
     172A     -0.771376   173A     -0.766603   174A     -0.766600  
     175A     -0.723341   176A     -0.723324   177A     -0.718484  
     178A     -0.718464   179A     -0.717695   180A     -0.717676  
     181A     -0.716899   182A     -0.703758   183A     -0.695174  
     184A     -0.685663   185A     -0.672073   186A     -0.663772  
     187A     -0.663755   188A     -0.661378   189A     -0.661255  
     190A     -0.661235   191A     -0.652660   192A     -0.648953  
     193A     -0.648951   194A     -0.637087   195A     -0.637074  
     196A     -0.623818   197A     -0.623813   198A     -0.620879  
     199A     -0.619373   200A     -0.619362   201A     -0.615778  
     202A     -0.615394   203A     -0.591202   204A     -0.588152  
     205A     -0.588122   206A     -0.587492   207A     -0.584988  
     208A     -0.584974   209A     -0.577624   210A     -0.577039  
     211A     -0.576485   212A     -0.576456   213A     -0.572105  
     214A     -0.572076   215A     -0.565898   216A     -0.553468  
     217A     -0.553442   218A     -0.549294   219A     -0.546534  
     220A     -0.546527   221A     -0.542377   222A     -0.540241  
     223A     -0.540162   224A     -0.535333   225A     -0.534434  
     226A     -0.534422   227A     -0.534392   228A     -0.533132  
     229A     -0.533124   230A     -0.532782   231A     -0.532777  
     232A     -0.532185   233A     -0.527763   234A     -0.527759  
     235A     -0.526979   236A     -0.521614   237A     -0.517320  
     238A     -0.517310   239A     -0.511432   240A     -0.511430  
     241A     -0.511053   242A     -0.504979   243A     -0.504968  
     244A     -0.502012   245A     -0.501985   246A     -0.500327  
     247A     -0.499563   248A     -0.497355   249A     -0.494658  
     250A     -0.494636   251A     -0.490625   252A     -0.487946  
     253A     -0.487555   254A     -0.480822   255A     -0.471182  
     256A     -0.471179   257A     -0.467901   258A     -0.467870  
     259A     -0.465634   260A     -0.465614   261A     -0.462355  
     262A     -0.459986   263A     -0.459946   264A     -0.453283  
     265A     -0.453267   266A     -0.453164   267A     -0.453146  
     268A     -0.447829   269A     -0.447812   270A     -0.434874  
     271A     -0.432709   272A     -0.432679   273A     -0.427834  
     274A     -0.427823   275A     -0.426339   276A     -0.420927  
     277A     -0.420849   278A     -0.419621   279A     -0.416737  
     280A     -0.415687   281A     -0.415684   282A     -0.411323  
     283A     -0.404615   284A     -0.402670   285A     -0.402662  
     286A     -0.398646   287A     -0.398575   288A     -0.394791  
     289A     -0.394672   290A     -0.379933   291A     -0.379870  
     292A     -0.375529   293A     -0.373576   294A     -0.373530  
     295A     -0.373503   296A     -0.371999   297A     -0.343289  
     298A     -0.343264   299A     -0.324428   300A     -0.324422  
     301A     -0.320963   302A     -0.320916   303A     -0.316523  
     304A     -0.290781   305A     -0.290767   306A     -0.286873  
     307A     -0.271559   308A     -0.271555   309A     -0.269606  
     310A     -0.265076   311A     -0.264944   312A     -0.241629  
     313A     -0.237698   314A     -0.235785   315A     -0.235718  
     316A     -0.223123   317A     -0.196498   318A     -0.187156  
     319A     -0.187064   320A     -0.140778   321A     -0.140688  

    Virtual:                                                              

     322A      0.051657   323A      0.051738   324A      0.092589  
     325A      0.092711   326A      0.092726   327A      0.095112  
     328A      0.095121   329A      0.098934   330A      0.100518  
     331A      0.100545   332A      0.100583   333A      0.103004  
     334A      0.108491   335A      0.108497   336A      0.119811  
     337A      0.119818   338A      0.126974   339A      0.128817  
     340A      0.129994   341A      0.134289   342A      0.134649  
     343A      0.135387   344A      0.135473   345A      0.135590  
     346A      0.136581   347A      0.137441   348A      0.137518  
     349A      0.137837   350A      0.140643   351A      0.140650  
     352A      0.145350   353A      0.146730   354A      0.146962  
     355A      0.146985   356A      0.147525   357A      0.147600  
     358A      0.155174   359A      0.159199   360A      0.159227  
     361A      0.159383   362A      0.161667   363A      0.161707  
     364A      0.162251   365A      0.166182   366A      0.167349  
     367A      0.167650   368A      0.168335   369A      0.168911  
     370A      0.170204   371A      0.170391   372A      0.171569  
     373A      0.171719   374A      0.174044   375A      0.174851  
     376A      0.177406   377A      0.177423   378A      0.178397  
     379A      0.178437   380A      0.184589   381A      0.184593  
     382A      0.187859   383A      0.189149   384A      0.192738  
     385A      0.192926   386A      0.196246   387A      0.196267  
     388A      0.198593   389A      0.199748   390A      0.199850  
     391A      0.201410   392A      0.201484   393A      0.208999  
     394A      0.212172   395A      0.212676   396A      0.212867  
     397A      0.213790   398A      0.214944   399A      0.216347  
     400A      0.217237   401A      0.217456   402A      0.217602  
     403A      0.220833   404A      0.220956   405A      0.221973  
     406A      0.222127   407A      0.222184   408A      0.223059  
     409A      0.223151   410A      0.226183   411A      0.226485  
     412A      0.231276   413A      0.232717   414A      0.235624  
     415A      0.235630   416A      0.237325   417A      0.240317  
     418A      0.240378   419A      0.240534   420A      0.240961  
     421A      0.241059   422A      0.245565   423A      0.248523  
     424A      0.248951   425A      0.250450   426A      0.250546  
     427A      0.254354   428A      0.254590   429A      0.255316  
     430A      0.256579   431A      0.257178   432A      0.257360  
     433A      0.257708   434A      0.257875   435A      0.260820  
     436A      0.262682   437A      0.262939   438A      0.267600  
     439A      0.267618   440A      0.269438   441A      0.269725  
     442A      0.269784   443A      0.270269   444A      0.270354  
     445A      0.270548   446A      0.271603   447A      0.271691  
     448A      0.272768   449A      0.272833   450A      0.273751  
     451A      0.273993   452A      0.275658   453A      0.275705  
     454A      0.281736   455A      0.282481   456A      0.284482  
     457A      0.284641   458A      0.284719   459A      0.288144  
     460A      0.289288   461A      0.289328   462A      0.289809  
     463A      0.290503   464A      0.291881   465A      0.291892  
     466A      0.293410   467A      0.293695   468A      0.295087  
     469A      0.295166   470A      0.302355   471A      0.303013  
     472A      0.303188   473A      0.306025   474A      0.308266  
     475A      0.312085   476A      0.312974   477A      0.313267  
     478A      0.313299   479A      0.315058   480A      0.315148  
     481A      0.316653   482A      0.317759   483A      0.317920  
     484A      0.317933   485A      0.318185   486A      0.321992  
     487A      0.322026   488A      0.323260   489A      0.323439  
     490A      0.325028   491A      0.327281   492A      0.327330  
     493A      0.328522   494A      0.330738   495A      0.330823  
     496A      0.335124   497A      0.335171   498A      0.336727  
     499A      0.336775   500A      0.337297   501A      0.339823  
     502A      0.340963   503A      0.341132   504A      0.343801  
     505A      0.343879   506A      0.344158   507A      0.344628  
     508A      0.346425   509A      0.348783   510A      0.350442  
     511A      0.355925   512A      0.355995   513A      0.356468  
     514A      0.356648   515A      0.357780   516A      0.359489  
     517A      0.362457   518A      0.362581   519A      0.363269  
     520A      0.363313   521A      0.365058   522A      0.365684  
     523A      0.365757   524A      0.366398   525A      0.366966  
     526A      0.368568   527A      0.368621   528A      0.370262  
     529A      0.371855   530A      0.372133   531A      0.372227  
     532A      0.372943   533A      0.373090   534A      0.376334  
     535A      0.376702   536A      0.377139   537A      0.380028  
     538A      0.380134   539A      0.382215   540A      0.382344  
     541A      0.383814   542A      0.383851   543A      0.386280  
     544A      0.386372   545A      0.387025   546A      0.388070  
     547A      0.389202   548A      0.391234   549A      0.391794  
     550A      0.391968   551A      0.393417   552A      0.395185  
     553A      0.395269   554A      0.398209   555A      0.399014  
     556A      0.399084   557A      0.400721   558A      0.402296  
     559A      0.402401   560A      0.403535   561A      0.406309  
     562A      0.406574   563A      0.411826   564A      0.412781  
     565A      0.414102   566A      0.414244   567A      0.417447  
     568A      0.418027   569A      0.418693   570A      0.419641  
     571A      0.419865   572A      0.420964   573A      0.421239  
     574A      0.422508   575A      0.423181   576A      0.426397  
     577A      0.426429   578A      0.427130   579A      0.427316  
     580A      0.429831   581A      0.433208   582A      0.433280  
     583A      0.435413   584A      0.435523   585A      0.438445  
     586A      0.438543   587A      0.438970   588A      0.441486  
     589A      0.441715   590A      0.442434   591A      0.442592  
     592A      0.447766   593A      0.447816   594A      0.448712  
     595A      0.449775   596A      0.449810   597A      0.451120  
     598A      0.452513   599A      0.452675   600A      0.453582  
     601A      0.456307   602A      0.456364   603A      0.457294  
     604A      0.458010   605A      0.458143   606A      0.460103  
     607A      0.460251   608A      0.460555   609A      0.461584  
     610A      0.461706   611A      0.461834   612A      0.462040  
     613A      0.465192   614A      0.465599   615A      0.467690  
     616A      0.468073   617A      0.468155   618A      0.469040  
     619A      0.469490   620A      0.470164   621A      0.470275  
     622A      0.472326   623A      0.472502   624A      0.473603  
     625A      0.473626   626A      0.474043   627A      0.474177  
     628A      0.476202   629A      0.477428   630A      0.477527  
     631A      0.478673   632A      0.480007   633A      0.481648  
     634A      0.483122   635A      0.483457   636A      0.485053  
     637A      0.485161   638A      0.486066   639A      0.487579  
     640A      0.488109   641A      0.489964   642A      0.490786  
     643A      0.491123   644A      0.492341   645A      0.493214  
     646A      0.494905   647A      0.495052   648A      0.496089  
     649A      0.496098   650A      0.496851   651A      0.497177  
     652A      0.497546   653A      0.498406   654A      0.500660  
     655A      0.501655   656A      0.501731   657A      0.505329  
     658A      0.505830   659A      0.505961   660A      0.508243  
     661A      0.508491   662A      0.508695   663A      0.512856  
     664A      0.513142   665A      0.513809   666A      0.513924  
     667A      0.514426   668A      0.515120   669A      0.515606  
     670A      0.515695   671A      0.516763   672A      0.517297  
     673A      0.517682   674A      0.519505   675A      0.522925  
     676A      0.523256   677A      0.524175   678A      0.525081  
     679A      0.527022   680A      0.527233   681A      0.530341  
     682A      0.530698   683A      0.533535   684A      0.534637  
     685A      0.534949   686A      0.537572   687A      0.537734  
     688A      0.537876   689A      0.538992   690A      0.539416  
     691A      0.540179   692A      0.540268   693A      0.543380  
     694A      0.544240   695A      0.544914   696A      0.546027  
     697A      0.546181   698A      0.546529   699A      0.548622  
     700A      0.549336   701A      0.550097   702A      0.553328  
     703A      0.553924   704A      0.554303   705A      0.554842  
     706A      0.555475   707A      0.556036   708A      0.558623  
     709A      0.558634   710A      0.560313   711A      0.560624  
     712A      0.560977   713A      0.562577   714A      0.562685  
     715A      0.563331   716A      0.563602   717A      0.564497  
     718A      0.569548   719A      0.569891   720A      0.572101  
     721A      0.572572   722A      0.572921   723A      0.575239  
     724A      0.575578   725A      0.577105   726A      0.578804  
     727A      0.579984   728A      0.580514   729A      0.581687  
     730A      0.586038   731A      0.586106   732A      0.586497  
     733A      0.588067   734A      0.589301   735A      0.589493  
     736A      0.592454   737A      0.595148   738A      0.595581  
     739A      0.597834   740A      0.597998   741A      0.598168  
     742A      0.601389   743A      0.601585   744A      0.602757  
     745A      0.602940   746A      0.609383   747A      0.611270  
     748A      0.611635   749A      0.616639   750A      0.617054  
     751A      0.622161   752A      0.622409   753A      0.625189  
     754A      0.626146   755A      0.626258   756A      0.627638  
     757A      0.627803   758A      0.630266   759A      0.630560  
     760A      0.634406   761A      0.634995   762A      0.635546  
     763A      0.637277   764A      0.637843   765A      0.642709  
     766A      0.644894   767A      0.645389   768A      0.647686  
     769A      0.649590   770A      0.652062   771A      0.652403  
     772A      0.653021   773A      0.653486   774A      0.654320  
     775A      0.654919   776A      0.655527   777A      0.657117  
     778A      0.659737   779A      0.663416   780A      0.663743  
     781A      0.665468   782A      0.669104   783A      0.669930  
     784A      0.670140   785A      0.671592   786A      0.675678  
     787A      0.678497   788A      0.678658   789A      0.682152  
     790A      0.683382   791A      0.683508   792A      0.687335  
     793A      0.687690   794A      0.691993   795A      0.692640  
     796A      0.694538   797A      0.696747   798A      0.698616  
     799A      0.701494   800A      0.704262   801A      0.704595  
     802A      0.706242   803A      0.709946   804A      0.710220  
     805A      0.710717   806A      0.721436   807A      0.724069  
     808A      0.724390   809A      0.724527   810A      0.726059  
     811A      0.726334   812A      0.731173   813A      0.731601  
     814A      0.735334   815A      0.736711   816A      0.737037  
     817A      0.741099   818A      0.742384   819A      0.750928  
     820A      0.751703   821A      0.753374   822A      0.753419  
     823A      0.754391   824A      0.757600   825A      0.757662  
     826A      0.759206   827A      0.761471   828A      0.767222  
     829A      0.767407   830A      0.772529   831A      0.776435  
     832A      0.777435   833A      0.777789   834A      0.781183  
     835A      0.783752   836A      0.784984   837A      0.792669  
     838A      0.793625   839A      0.795379   840A      0.795835  
     841A      0.798927   842A      0.800971   843A      0.801140  
     844A      0.805327   845A      0.809506   846A      0.810477  
     847A      0.811437   848A      0.817732   849A      0.817840  
     850A      0.818870   851A      0.828140   852A      0.828814  
     853A      0.829972   854A      0.836990   855A      0.842768  
     856A      0.852167   857A      0.852234   858A      0.856464  
     859A      0.857470   860A      0.858453   861A      0.860144  
     862A      0.863130   863A      0.864029   864A      0.864979  
     865A      0.867625   866A      0.868628   867A      0.873061  
     868A      0.873841   869A      0.876606   870A      0.876821  
     871A      0.877744   872A      0.878230   873A      0.880356  
     874A      0.880532   875A      0.889223   876A      0.890160  
     877A      0.890858   878A      0.898139   879A      0.898463  
     880A      0.899751   881A      0.902073   882A      0.902993  
     883A      0.906814   884A      0.907125   885A      0.907222  
     886A      0.907704   887A      0.911226   888A      0.915421  
     889A      0.916375   890A      0.917521   891A      0.918827  
     892A      0.921759   893A      0.922450   894A      0.923884  
     895A      0.924065   896A      0.928274   897A      0.928561  
     898A      0.931976   899A      0.933220   900A      0.935740  
     901A      0.936388   902A      0.937805   903A      0.938593  
     904A      0.939395   905A      0.939852   906A      0.941049  
     907A      0.944823   908A      0.946640   909A      0.948120  
     910A      0.949279   911A      0.952820   912A      0.953656  
     913A      0.955328   914A      0.957154   915A      0.960506  
     916A      0.960684   917A      0.963161   918A      0.964748  
     919A      0.965257   920A      0.967273   921A      0.967865  
     922A      0.970448   923A      0.972921   924A      0.974410  
     925A      0.977020   926A      0.977561   927A      0.980082  
     928A      0.980583   929A      0.981386   930A      0.983435  
     931A      0.983706   932A      0.984007   933A      0.984413  
     934A      0.988704   935A      0.991723   936A      0.992429  
     937A      0.994234   938A      0.995346   939A      0.995924  
     940A      0.996053   941A      1.000787   942A      1.002328  
     943A      1.002935   944A      1.004580   945A      1.005651  
     946A      1.005840   947A      1.010332   948A      1.012061  
     949A      1.012224   950A      1.012364   951A      1.014117  
     952A      1.016336   953A      1.017307   954A      1.017652  
     955A      1.017736   956A      1.020117   957A      1.020194  
     958A      1.021781   959A      1.026655   960A      1.027049  
     961A      1.033654   962A      1.033806   963A      1.043496  
     964A      1.044750   965A      1.044808   966A      1.045648  
     967A      1.049309   968A      1.051050   969A      1.052003  
     970A      1.053123   971A      1.056168   972A      1.056244  
     973A      1.059014   974A      1.060132   975A      1.066343  
     976A      1.066522   977A      1.066897   978A      1.067430  
     979A      1.067767   980A      1.070486   981A      1.076200  
     982A      1.076956   983A      1.078699   984A      1.080652  
     985A      1.081708   986A      1.082214   987A      1.082756  
     988A      1.084989   989A      1.085182   990A      1.090516  
     991A      1.097754   992A      1.098548   993A      1.099287  
     994A      1.099484   995A      1.100235   996A      1.108283  
     997A      1.108383   998A      1.109986   999A      1.110305  
    1000A      1.110954  1001A      1.111530  1002A      1.113116  
    1003A      1.113648  1004A      1.113956  1005A      1.114187  
    1006A      1.114325  1007A      1.115128  1008A      1.117911  
    1009A      1.118515  1010A      1.124127  1011A      1.124655  
    1012A      1.124789  1013A      1.126124  1014A      1.128540  
    1015A      1.128953  1016A      1.129331  1017A      1.132815  
    1018A      1.133405  1019A      1.134010  1020A      1.135217  
    1021A      1.135591  1022A      1.135915  1023A      1.136056  
    1024A      1.138702  1025A      1.138948  1026A      1.140800  
    1027A      1.141029  1028A      1.141428  1029A      1.141664  
    1030A      1.143027  1031A      1.143782  1032A      1.144319  
    1033A      1.144652  1034A      1.144727  1035A      1.145581  
    1036A      1.145792  1037A      1.146130  1038A      1.148548  
    1039A      1.148863  1040A      1.149756  1041A      1.150780  
    1042A      1.151410  1043A      1.153113  1044A      1.153291  
    1045A      1.155595  1046A      1.158269  1047A      1.158955  
    1048A      1.160994  1049A      1.162298  1050A      1.162549  
    1051A      1.164499  1052A      1.167250  1053A      1.167382  
    1054A      1.167715  1055A      1.168346  1056A      1.170039  
    1057A      1.170875  1058A      1.176409  1059A      1.178929  
    1060A      1.179884  1061A      1.180806  1062A      1.181774  
    1063A      1.188047  1064A      1.188200  1065A      1.190657  
    1066A      1.191158  1067A      1.193977  1068A      1.194399  
    1069A      1.195452  1070A      1.197076  1071A      1.197182  
    1072A      1.200523  1073A      1.202070  1074A      1.203045  
    1075A      1.204465  1076A      1.206612  1077A      1.208435  
    1078A      1.210362  1079A      1.211086  1080A      1.213380  
    1081A      1.214382  1082A      1.215047  1083A      1.215436  
    1084A      1.218746  1085A      1.218950  1086A      1.219816  
    1087A      1.221195  1088A      1.221911  1089A      1.221978  
    1090A      1.228587  1091A      1.234081  1092A      1.235776  
    1093A      1.236703  1094A      1.236957  1095A      1.237458  
    1096A      1.238037  1097A      1.243428  1098A      1.248052  
    1099A      1.251277  1100A      1.251919  1101A      1.254270  
    1102A      1.254751  1103A      1.255954  1104A      1.257065  
    1105A      1.259597  1106A      1.261811  1107A      1.267408  
    1108A      1.267463  1109A      1.269142  1110A      1.270647  
    1111A      1.274316  1112A      1.274387  1113A      1.274644  
    1114A      1.276579  1115A      1.276695  1116A      1.278120  
    1117A      1.281042  1118A      1.281209  1119A      1.285287  
    1120A      1.285807  1121A      1.286805  1122A      1.288721  
    1123A      1.297886  1124A      1.298693  1125A      1.306523  
    1126A      1.309054  1127A      1.314669  1128A      1.314746  
    1129A      1.315766  1130A      1.316599  1131A      1.317525  
    1132A      1.321833  1133A      1.324509  1134A      1.324682  
    1135A      1.328453  1136A      1.330262  1137A      1.330931  
    1138A      1.335232  1139A      1.335474  1140A      1.343817  
    1141A      1.343951  1142A      1.348708  1143A      1.350889  
    1144A      1.354474  1145A      1.355763  1146A      1.356211  
    1147A      1.356283  1148A      1.359764  1149A      1.362584  
    1150A      1.364519  1151A      1.364732  1152A      1.366184  
    1153A      1.369161  1154A      1.369388  1155A      1.371802  
    1156A      1.376174  1157A      1.376748  1158A      1.377080  
    1159A      1.378876  1160A      1.379013  1161A      1.381259  
    1162A      1.383539  1163A      1.386896  1164A      1.387606  
    1165A      1.388518  1166A      1.390190  1167A      1.391431  
    1168A      1.391579  1169A      1.396079  1170A      1.396919  
    1171A      1.397372  1172A      1.398883  1173A      1.398990  
    1174A      1.404372  1175A      1.404765  1176A      1.419402  
    1177A      1.419689  1178A      1.421315  1179A      1.421492  
    1180A      1.422778  1181A      1.423986  1182A      1.424471  
    1183A      1.425220  1184A      1.426158  1185A      1.426302  
    1186A      1.434922  1187A      1.436879  1188A      1.438481  
    1189A      1.439346  1190A      1.439961  1191A      1.443569  
    1192A      1.450349  1193A      1.450467  1194A      1.450650  
    1195A      1.454665  1196A      1.454755  1197A      1.460363  
    1198A      1.460614  1199A      1.468838  1200A      1.468862  
    1201A      1.471320  1202A      1.471471  1203A      1.472678  
    1204A      1.472758  1205A      1.473153  1206A      1.473392  
    1207A      1.482357  1208A      1.482435  1209A      1.485271  
    1210A      1.485467  1211A      1.488457  1212A      1.489909  
    1213A      1.490049  1214A      1.493879  1215A      1.494557  
    1216A      1.495542  1217A      1.496035  1218A      1.499713  
    1219A      1.500227  1220A      1.506267  1221A      1.506415  
    1222A      1.506701  1223A      1.507208  1224A      1.507531  
    1225A      1.515266  1226A      1.516828  1227A      1.517051  
    1228A      1.521437  1229A      1.522847  1230A      1.522874  
    1231A      1.522994  1232A      1.531503  1233A      1.536357  
    1234A      1.536475  1235A      1.538004  1236A      1.538486  
    1237A      1.541787  1238A      1.546474  1239A      1.546907  
    1240A      1.548083  1241A      1.556725  1242A      1.558284  
    1243A      1.558547  1244A      1.566012  1245A      1.566092  
    1246A      1.566265  1247A      1.571044  1248A      1.579755  
    1249A      1.580369  1250A      1.583531  1251A      1.584724  
    1252A      1.597222  1253A      1.601411  1254A      1.601492  
    1255A      1.611105  1256A      1.615180  1257A      1.619980  
    1258A      1.620024  1259A      1.646547  1260A      1.648343  
    1261A      1.648850  1262A      1.650366  1263A      1.664244  
    1264A      1.669635  1265A      1.671918  1266A      1.672476  
    1267A      1.673468  1268A      1.673876  1269A      1.675832  
    1270A      1.676341  1271A      1.678123  1272A      1.679113  
    1273A      1.681294  1274A      1.681975  1275A      1.682386  
    1276A      1.682938  1277A      1.684905  1278A      1.685993  
    1279A      1.686970  1280A      1.687207  1281A      1.690448  
    1282A      1.691158  1283A      1.692490  1284A      1.692976  
    1285A      1.696636  1286A      1.697476  1287A      1.699571  
    1288A      1.701403  1289A      1.702390  1290A      1.702947  
    1291A      1.703444  1292A      1.704369  1293A      1.704887  
    1294A      1.706013  1295A      1.706581  1296A      1.707495  
    1297A      1.708019  1298A      1.708254  1299A      1.708566  
    1300A      1.716306  1301A      1.718549  1302A      1.718958  
    1303A      1.719789  1304A      1.720027  1305A      1.721975  
    1306A      1.725837  1307A      1.730991  1308A      1.731414  
    1309A      1.734173  1310A      1.734288  1311A      1.734650  
    1312A      1.736154  1313A      1.736325  1314A      1.739046  
    1315A      1.739175  1316A      1.740635  1317A      1.745004  
    1318A      1.745381  1319A      1.751043  1320A      1.753904  
    1321A      1.757395  1322A      1.759886  1323A      1.761860  
    1324A      1.762221  1325A      1.763762  1326A      1.767586  
    1327A      1.772454  1328A      1.772530  1329A      1.775581  
    1330A      1.778438  1331A      1.778478  1332A      1.779055  
    1333A      1.782474  1334A      1.784621  1335A      1.787306  
    1336A      1.787588  1337A      1.790540  1338A      1.790611  
    1339A      1.793120  1340A      1.801069  1341A      1.812468  
    1342A      1.812551  1343A      1.812806  1344A      1.813085  
    1345A      1.828653  1346A      1.829508  1347A      1.830358  
    1348A      1.833964  1349A      1.843636  1350A      1.844878  
    1351A      1.847122  1352A      1.847825  1353A      1.870390  
    1354A      1.870608  1355A      1.873747  1356A      1.882025  
    1357A      1.885804  1358A      1.889486  1359A      1.889939  
    1360A      1.890094  1361A      1.890244  1362A      1.891732  
    1363A      1.896248  1364A      1.896448  1365A      1.896618  
    1366A      1.902121  1367A      1.903357  1368A      1.906633  
    1369A      1.912059  1370A      1.913049  1371A      1.916172  
    1372A      1.916529  1373A      1.916924  1374A      1.922746  
    1375A      1.923388  1376A      1.928187  1377A      1.928300  
    1378A      1.931854  1379A      1.931888  1380A      1.933126  
    1381A      1.933709  1382A      1.935324  1383A      1.935489  
    1384A      1.935707  1385A      1.941825  1386A      1.942245  
    1387A      1.944763  1388A      1.945281  1389A      1.947369  
    1390A      1.947936  1391A      1.953973  1392A      1.955728  
    1393A      1.956037  1394A      1.956835  1395A      1.965175  
    1396A      1.965334  1397A      1.968651  1398A      1.968922  
    1399A      1.972712  1400A      1.977976  1401A      1.980804  
    1402A      1.981819  1403A      1.987250  1404A      1.988062  
    1405A      1.988493  1406A      1.990415  1407A      1.993085  
    1408A      1.993134  1409A      1.996995  1410A      1.997106  
    1411A      2.000577  1412A      2.000867  1413A      2.001346  
    1414A      2.002362  1415A      2.004808  1416A      2.006639  
    1417A      2.007024  1418A      2.010757  1419A      2.011578  
    1420A      2.016799  1421A      2.020597  1422A      2.021109  
    1423A      2.022040  1424A      2.022338  1425A      2.022811  
    1426A      2.023203  1427A      2.025984  1428A      2.027801  
    1429A      2.029237  1430A      2.030808  1431A      2.033029  
    1432A      2.033658  1433A      2.038911  1434A      2.039864  
    1435A      2.040924  1436A      2.046264  1437A      2.047889  
    1438A      2.050933  1439A      2.051730  1440A      2.053171  
    1441A      2.053642  1442A      2.054232  1443A      2.058215  
    1444A      2.059639  1445A      2.063345  1446A      2.066629  
    1447A      2.070221  1448A      2.070469  1449A      2.074823  
    1450A      2.076637  1451A      2.077352  1452A      2.078080  
    1453A      2.078431  1454A      2.083043  1455A      2.084608  
    1456A      2.085405  1457A      2.086072  1458A      2.086237  
    1459A      2.088077  1460A      2.090438  1461A      2.094712  
    1462A      2.095604  1463A      2.095801  1464A      2.097275  
    1465A      2.098081  1466A      2.099255  1467A      2.100495  
    1468A      2.101754  1469A      2.101914  1470A      2.108242  
    1471A      2.114099  1472A      2.115563  1473A      2.117179  
    1474A      2.118772  1475A      2.120363  1476A      2.124654  
    1477A      2.124848  1478A      2.126737  1479A      2.129646  
    1480A      2.130476  1481A      2.131312  1482A      2.132460  
    1483A      2.134839  1484A      2.136647  1485A      2.141721  
    1486A      2.142737  1487A      2.144491  1488A      2.145852  
    1489A      2.146582  1490A      2.146740  1491A      2.147241  
    1492A      2.147514  1493A      2.149514  1494A      2.150659  
    1495A      2.150857  1496A      2.151712  1497A      2.152270  
    1498A      2.153242  1499A      2.154162  1500A      2.155778  
    1501A      2.156116  1502A      2.156429  1503A      2.157557  
    1504A      2.160585  1505A      2.162368  1506A      2.163372  
    1507A      2.166036  1508A      2.167141  1509A      2.169920  
    1510A      2.173367  1511A      2.174223  1512A      2.174374  
    1513A      2.178312  1514A      2.178890  1515A      2.179768  
    1516A      2.180740  1517A      2.181969  1518A      2.184486  
    1519A      2.186017  1520A      2.186963  1521A      2.188081  
    1522A      2.189782  1523A      2.190082  1524A      2.190332  
    1525A      2.192552  1526A      2.192870  1527A      2.193026  
    1528A      2.195319  1529A      2.197029  1530A      2.203976  
    1531A      2.204709  1532A      2.205217  1533A      2.205727  
    1534A      2.205998  1535A      2.207914  1536A      2.208276  
    1537A      2.208772  1538A      2.210226  1539A      2.215238  
    1540A      2.216220  1541A      2.221895  1542A      2.222751  
    1543A      2.222976  1544A      2.223515  1545A      2.224116  
    1546A      2.224816  1547A      2.225590  1548A      2.230180  
    1549A      2.235366  1550A      2.235825  1551A      2.237247  
    1552A      2.244364  1553A      2.245480  1554A      2.245905  
    1555A      2.250557  1556A      2.251162  1557A      2.251878  
    1558A      2.255919  1559A      2.257737  1560A      2.260523  
    1561A      2.262164  1562A      2.263546  1563A      2.263764  
    1564A      2.264263  1565A      2.265858  1566A      2.266008  
    1567A      2.266536  1568A      2.268626  1569A      2.269533  
    1570A      2.270162  1571A      2.275960  1572A      2.276484  
    1573A      2.279637  1574A      2.281157  1575A      2.282457  
    1576A      2.284656  1577A      2.285092  1578A      2.285177  
    1579A      2.288246  1580A      2.291212  1581A      2.291246  
    1582A      2.293904  1583A      2.294641  1584A      2.295210  
    1585A      2.298592  1586A      2.304516  1587A      2.306230  
    1588A      2.307659  1589A      2.308748  1590A      2.309236  
    1591A      2.310248  1592A      2.320188  1593A      2.322954  
    1594A      2.323553  1595A      2.326469  1596A      2.328169  
    1597A      2.329718  1598A      2.336047  1599A      2.336129  
    1600A      2.344548  1601A      2.346135  1602A      2.347860  
    1603A      2.353407  1604A      2.355419  1605A      2.358859  
    1606A      2.362196  1607A      2.366483  1608A      2.366726  
    1609A      2.370026  1610A      2.387525  1611A      2.388285  
    1612A      2.389467  1613A      2.389871  1614A      2.392211  
    1615A      2.392552  1616A      2.393326  1617A      2.398631  
    1618A      2.399190  1619A      2.399714  1620A      2.402344  
    1621A      2.403950  1622A      2.406034  1623A      2.406124  
    1624A      2.408270  1625A      2.408825  1626A      2.409101  
    1627A      2.410880  1628A      2.418304  1629A      2.418654  
    1630A      2.438463  1631A      2.442742  1632A      2.443278  
    1633A      2.447074  1634A      2.451069  1635A      2.457523  
    1636A      2.463361  1637A      2.469914  1638A      2.472162  
    1639A      2.481642  1640A      2.483371  1641A      2.487867  
    1642A      2.489207  1643A      2.491219  1644A      2.500238  
    1645A      2.505726  1646A      2.507735  1647A      2.518323  
    1648A      2.520687  1649A      2.527557  1650A      2.527976  
    1651A      2.531078  1652A      2.531410  1653A      2.534421  
    1654A      2.534684  1655A      2.552850  1656A      2.553220  
    1657A      2.563845  1658A      2.568361  1659A      2.568891  
    1660A      2.572287  1661A      2.578986  1662A      2.583093  
    1663A      2.602727  1664A      2.604255  1665A      2.604628  
    1666A      2.606351  1667A      2.607422  1668A      2.608687  
    1669A      2.610183  1670A      2.611138  1671A      2.613834  
    1672A      2.623357  1673A      2.623608  1674A      2.625726  
    1675A      2.627757  1676A      2.632043  1677A      2.634114  
    1678A      2.642059  1679A      2.643489  1680A      2.644023  
    1681A      2.648187  1682A      2.648350  1683A      2.648687  
    1684A      2.651712  1685A      2.652446  1686A      2.655879  
    1687A      2.664002  1688A      2.664251  1689A      2.676473  
    1690A      2.677009  1691A      2.677200  1692A      2.677433  
    1693A      2.680259  1694A      2.680915  1695A      2.696268  
    1696A      2.704465  1697A      2.705137  1698A      2.708160  
    1699A      2.709157  1700A      2.710326  1701A      2.713540  
    1702A      2.713719  1703A      2.714636  1704A      2.717473  
    1705A      2.717857  1706A      2.728667  1707A      2.731504  
    1708A      2.731798  1709A      2.733404  1710A      2.734142  
    1711A      2.739970  1712A      2.740316  1713A      2.740375  
    1714A      2.750621  1715A      2.751166  1716A      2.752244  
    1717A      2.755204  1718A      2.755317  1719A      2.755815  
    1720A      2.757396  1721A      2.759988  1722A      2.761179  
    1723A      2.771497  1724A      2.785593  1725A      2.791976  
    1726A      2.792419  1727A      2.792899  1728A      2.795081  
    1729A      2.795168  1730A      2.816618  1731A      2.828111  
    1732A      2.828605  1733A      2.843562  1734A      2.845936  
    1735A      2.846008  1736A      2.852220  1737A      2.865272  
    1738A      2.865400  1739A      2.867563  1740A      2.867647  
    1741A      2.872290  1742A      2.878055  1743A      2.880291  
    1744A      2.880445  1745A      2.881097  1746A      2.882207  
    1747A      2.885674  1748A      2.897843  1749A      2.897968  
    1750A      2.904932  1751A      2.906953  1752A      2.907022  
    1753A      2.908644  1754A      2.910136  1755A      2.930454  
    1756A      2.930800  1757A      2.933594  1758A      2.934706  
    1759A      2.938913  1760A      2.950612  1761A      2.964709  
    1762A      2.965629  1763A      2.978435  1764A      2.978592  
    1765A      2.983829  1766A      2.987852  1767A      2.993063  
    1768A      2.997098  1769A      2.997150  1770A      3.016647  
    1771A      3.017921  1772A      3.026354  1773A      3.028008  
    1774A      3.028406  1775A      3.038074  1776A      3.055417  
    1777A      3.055919  1778A      3.093542  1779A      3.094276  
    1780A      3.097436  1781A      3.100660  1782A      3.109007  
    1783A      3.111980  1784A      3.112536  1785A      3.122119  
    1786A      3.122243  1787A      3.123109  1788A      3.136288  
    1789A      3.145982  1790A      3.173300  1791A      3.174783  
    1792A      3.175133  1793A      3.187640  1794A      3.192237  
    1795A      3.192439  1796A      3.199271  1797A      3.202051  
    1798A      3.203718  1799A      3.204526  1800A      3.211911  
    1801A      3.212302  1802A      3.214988  1803A      3.215241  
    1804A      3.217324  1805A      3.222365  1806A      3.233697  
    1807A      3.234782  1808A      3.238897  1809A      3.239031  
    1810A      3.254327  1811A      3.255024  1812A      3.280523  
    1813A      3.312321  1814A      3.319826  1815A      3.324295  
    1816A      3.326133  1817A      3.327378  1818A      3.328878  
    1819A      3.333876  1820A      3.335448  1821A      3.337923  
    1822A      3.338402  1823A      3.355668  1824A      3.361600  
    1825A      3.363632  1826A      3.365149  1827A      3.371810  
    1828A      3.427947  1829A      3.428733  1830A      3.470441  
    1831A      3.486578  1832A      3.501319  1833A      3.508694  
    1834A      3.521267  1835A      3.524144  1836A      3.526938  
    1837A      3.530649  1838A      3.533017  1839A      3.537783  
    1840A      3.539755  1841A      3.551796  1842A      3.555434  
    1843A      3.559290  1844A      3.574707  1845A      3.583325  
    1846A      3.615606  1847A      3.642405  1848A      3.644164  
    1849A      3.651638  1850A      3.655266  1851A      3.708422  
    1852A      3.711509  1853A      3.729984  1854A      3.731933  
    1855A      3.771103  1856A      3.816287  1857A      3.818758  
    1858A      3.822774  1859A      3.837045  1860A      3.841089  
    1861A      3.853670  1862A      3.905108  1863A      3.912970  
    1864A      3.935594  1865A      3.938981  1866A      3.977176  
    1867A      3.982070  1868A      4.011419  1869A      4.012978  
    1870A      4.016476  1871A      4.018651  1872A      4.033001  
    1873A      4.036793  1874A      4.041128  1875A      4.091842  
    1876A      4.094809  1877A      4.141379  1878A      4.164559  
    1879A      4.165256  1880A      4.165897  1881A      4.191501  
    1882A      4.194272  1883A      4.194958  1884A      4.201004  
    1885A      4.201652  1886A      4.232020  1887A      4.232328  
    1888A      4.251619  1889A      4.318585  1890A      4.428185  
    1891A      4.436173  1892A      4.439075  1893A      4.442459  
    1894A      4.476918  1895A      4.639342  1896A      4.650688  
    1897A      4.650872  1898A      4.742835  1899A      4.777513  
    1900A      4.777835  

    Final Occupation by Irrep:
              A 
    DOCC [   321 ]
    NA   [   321 ]
    NB   [   321 ]

  @DF-RHF Final Energy: -4073.11052766066587

   => Energetics <=

    Nuclear Repulsion Energy =          17584.1433598313378752
    One-Electron Energy =              -40655.5888542110842536
    Two-Electron Energy =               18998.3349667190814216
    Total Energy =                      -4073.1105276606649568

Computation Completed


Properties will be evaluated at   0.000000,   0.000000,   0.000000 [a0]

Properties computed using the SCF density matrix


 Multipole Moments:

 ------------------------------------------------------------------------------------
     Multipole            Electronic (a.u.)      Nuclear  (a.u.)        Total (a.u.)
 ------------------------------------------------------------------------------------

 L = 1.  Multiply by 2.5417464519 to convert [e a0] to [Debye]
 Dipole X            :          0.0003244           -0.0000548            0.0002696
 Dipole Y            :          0.0009250           -0.0002464            0.0006787
 Dipole Z            :        -19.8375405           26.1846164            6.3470759
 Magnitude           :                                                    6.3470759

 ------------------------------------------------------------------------------------

*** tstop() called on n2cn0227 at Sat Jan 27 12:50:45 2024
Module time:
	user time   =   23604.32 seconds =     393.41 minutes
	system time =    1614.11 seconds =      26.90 minutes
	total time  =       7656 seconds =     127.60 minutes
Total time:
	user time   =   23604.32 seconds =     393.41 minutes
	system time =    1614.11 seconds =      26.90 minutes
	total time  =       7656 seconds =     127.60 minutes

  //>>>>>>>>>>>>>>>>>>>>>>>>>>>>>>>>>>>//
  //            Monomer A HF           //
  //<<<<<<<<<<<<<<<<<<<<<<<<<<<<<<<<<<<//

   => Libint2 <=

    Primary   basis highest AM E, G, H:  5, 4, 3
    Auxiliary basis highest AM E, G, H:  6, 5, 4
    Onebody   basis highest AM E, G, H:  6, 5, 4
    Solid Harmonics ordering:            gaussian

*** tstart() called on n2cn0227
*** at Sat Jan 27 12:50:45 2024

   => Loading Basis Set <=

    Name: JUN-CC-PVDZ
    Role: ORBITAL
    Keyword: BASIS
    atoms 1                                                   entry B          line   130 file /opt/software/pc2/EB-SW/software/PSI4/1.9-foss-2022a/share/psi4/basis/jun-cc-pvdz.gbs 
    atoms 2-5                                                 entry F          line   266 file /opt/software/pc2/EB-SW/software/PSI4/1.9-foss-2022a/share/psi4/basis/jun-cc-pvdz.gbs 
    atoms 6-23, 30-42, 45-59, 62-78, 81-93, 98-108, 111-119   entry C          line   164 file /opt/software/pc2/EB-SW/software/PSI4/1.9-foss-2022a/share/psi4/basis/jun-cc-pvdz.gbs 
    atoms 24-29, 43-44, 60-61, 79-80, 94-97, 109-110, 120-125 entry H          line    36 file /opt/software/pc2/EB-SW/software/PSI4/1.9-foss-2022a/share/psi4/basis/jun-cc-pvdz.gbs 


         ---------------------------------------------------------
                                   SCF
               by Justin Turney, Rob Parrish, Andy Simmonett
                          and Daniel G. A. Smith
                              RHF Reference
                       16 Threads,  61035 MiB Core
         ---------------------------------------------------------

  ==> Geometry <==

    Molecular point group: c1
    Full point group: C1

    Geometry (in Angstrom), charge = -1, multiplicity = 1:

       Center              X                  Y                   Z               Mass       
    ------------   -----------------  -----------------  -----------------  -----------------
         B           -0.000201921932     0.000288800891    -4.096916845035    11.009305360000
         F           -0.000004162732     0.000014527991    -2.684131845035    18.998403162730
         F            1.147855837268     0.675795727991    -4.568057845035    18.998403162730
         F            0.011913897268    -1.331996472009    -4.567855845035    18.998403162730
         F           -1.159670162732     0.656088027991    -4.567776845035    18.998403162730
      Gh(C)          -3.668445426752     7.803766698073     0.304949196301    12.000000000000
      Gh(C)          -4.847602882078     7.131256359331     0.302582621368    12.000000000000
      Gh(C)          -4.894963461907     5.696344931522     0.302009710270    12.000000000000
      Gh(C)          -3.653744841505     4.980744868950     0.309670151999    12.000000000000
      Gh(C)          -2.409429284226     7.113995564665     0.305143538561    12.000000000000
      Gh(C)          -2.425481506836     5.681136478894     0.298138649691    12.000000000000
      Gh(C)          -1.194748179167     7.786158722300     0.306615719103    12.000000000000
      Gh(C)           0.037954866205     7.099436173748     0.304445014798    12.000000000000
      Gh(C)           0.030328424687     5.669504087695     0.298961629882    12.000000000000
      Gh(C)          -1.200988670637     4.969284875906     0.307931363816    12.000000000000
      Gh(C)           1.277953663083     7.772873971185     0.305820863358    12.000000000000
      Gh(C)           2.485353921992     7.087711413228     0.303546375454    12.000000000000
      Gh(C)           2.486124522185     5.654785338231     0.296608626466    12.000000000000
      Gh(C)           1.254078756912     4.956092641655     0.308236568054    12.000000000000
      Gh(C)           3.751710428674     7.763926678971     0.303673226834    12.000000000000
      Gh(C)           4.923561893453     7.078795304981     0.301616746126    12.000000000000
      Gh(C)           4.955603108594     5.643461991360     0.301456333319    12.000000000000
      Gh(C)           3.706797371473     4.941224736324     0.306547893489    12.000000000000
      Gh(H)          -3.658525300490     8.890841947126     0.306634184551     1.007825032230
      Gh(H)          -1.189217492488     8.874135615351     0.310587595544     1.007825032230
      Gh(H)           1.284290076155     8.860847963479     0.309979687499     1.007825032230
      Gh(H)           3.753537924068     8.851049806963     0.305195751150     1.007825032230
      Gh(H)           5.869954540475     7.613809362646     0.300691379084     1.007825032230
      Gh(H)          -5.788235870234     7.676316740925     0.301022774012     1.007825032230
[...]
    1501A      2.116945  1502A      2.117790  1503A      2.118683  
    1504A      2.119734  1505A      2.122185  1506A      2.127007  
    1507A      2.127435  1508A      2.128008  1509A      2.128393  
    1510A      2.129185  1511A      2.129870  1512A      2.132611  
    1513A      2.134425  1514A      2.138803  1515A      2.138930  
    1516A      2.141192  1517A      2.143049  1518A      2.143601  
    1519A      2.144283  1520A      2.144584  1521A      2.144948  
    1522A      2.156659  1523A      2.157148  1524A      2.158138  
    1525A      2.159644  1526A      2.160043  1527A      2.161100  
    1528A      2.161223  1529A      2.162708  1530A      2.163031  
    1531A      2.163631  1532A      2.170051  1533A      2.171900  
    1534A      2.172210  1535A      2.181412  1536A      2.183143  
    1537A      2.183325  1538A      2.186137  1539A      2.191264  
    1540A      2.191825  1541A      2.193668  1542A      2.194646  
    1543A      2.194844  1544A      2.195754  1545A      2.199000  
    1546A      2.199152  1547A      2.201000  1548A      2.202361  
    1549A      2.202619  1550A      2.203654  1551A      2.206922  
    1552A      2.207795  1553A      2.208205  1554A      2.213650  
    1555A      2.214293  1556A      2.215087  1557A      2.220221  
    1558A      2.222872  1559A      2.224285  1560A      2.225367  
    1561A      2.226083  1562A      2.227378  1563A      2.229457  
    1564A      2.232048  1565A      2.232652  1566A      2.236215  
    1567A      2.239262  1568A      2.239461  1569A      2.239989  
    1570A      2.243639  1571A      2.247786  1572A      2.248277  
    1573A      2.252985  1574A      2.256255  1575A      2.261381  
    1576A      2.262597  1577A      2.265691  1578A      2.269743  
    1579A      2.272828  1580A      2.273200  1581A      2.277267  
    1582A      2.283008  1583A      2.284418  1584A      2.291981  
    1585A      2.293330  1586A      2.296869  1587A      2.297049  
    1588A      2.304074  1589A      2.304337  1590A      2.310453  
    1591A      2.321540  1592A      2.325137  1593A      2.325328  
    1594A      2.326073  1595A      2.328035  1596A      2.330063  
    1597A      2.330701  1598A      2.332619  1599A      2.334199  
    1600A      2.335350  1601A      2.337115  1602A      2.340396  
    1603A      2.341779  1604A      2.342281  1605A      2.342405  
    1606A      2.344972  1607A      2.345966  1608A      2.346429  
    1609A      2.349554  1610A      2.349863  1611A      2.368852  
    1612A      2.373210  1613A      2.373528  1614A      2.384123  
    1615A      2.388097  1616A      2.391885  1617A      2.397257  
    1618A      2.404278  1619A      2.404936  1620A      2.418524  
    1621A      2.419806  1622A      2.424838  1623A      2.427980  
    1624A      2.432605  1625A      2.442307  1626A      2.444367  
    1627A      2.453183  1628A      2.454792  1629A      2.464853  
    1630A      2.464926  1631A      2.468372  1632A      2.468456  
    1633A      2.471996  1634A      2.472224  1635A      2.491267  
    1636A      2.491681  1637A      2.497916  1638A      2.502142  
    1639A      2.506913  1640A      2.507671  1641A      2.511618  
    1642A      2.516286  1643A      2.539676  1644A      2.540121  
    1645A      2.540219  1646A      2.543471  1647A      2.544472  
    1648A      2.546144  1649A      2.547781  1650A      2.548836  
    1651A      2.549315  1652A      2.551987  1653A      2.556677  
    1654A      2.556817  1655A      2.564273  1656A      2.571559  
    1657A      2.571619  1658A      2.581757  1659A      2.583993  
    1660A      2.584510  1661A      2.585632  1662A      2.586716  
    1663A      2.588804  1664A      2.589087  1665A      2.593249  
    1666A      2.593568  1667A      2.601745  1668A      2.601901  
    1669A      2.613671  1670A      2.614404  1671A      2.614529  
    1672A      2.614880  1673A      2.617445  1674A      2.618073  
    1675A      2.632636  1676A      2.641411  1677A      2.642273  
    1678A      2.644782  1679A      2.645648  1680A      2.648632  
    1681A      2.649396  1682A      2.649810  1683A      2.653153  
    1684A      2.656088  1685A      2.656410  1686A      2.666168  
    1687A      2.667179  1688A      2.667837  1689A      2.670679  
    1690A      2.670930  1691A      2.673795  1692A      2.679404  
    1693A      2.679739  1694A      2.686280  1695A      2.687218  
    1696A      2.688656  1697A      2.691452  1698A      2.691599  
    1699A      2.692689  1700A      2.694105  1701A      2.696588  
    1702A      2.697826  1703A      2.707649  1704A      2.724224  
    1705A      2.730801  1706A      2.731371  1707A      2.731492  
    1708A      2.731705  1709A      2.732157  1710A      2.753875  
    1711A      2.760608  1712A      2.761053  1713A      2.771258  
    1714A      2.776225  1715A      2.780802  1716A      2.781246  
    1717A      2.799770  1718A      2.800012  1719A      2.802273  
    1720A      2.802314  1721A      2.804284  1722A      2.810465  
    1723A      2.812242  1724A      2.815152  1725A      2.815879  
    1726A      2.816522  1727A      2.817150  1728A      2.829631  
    1729A      2.830180  1730A      2.838596  1731A      2.839752  
    1732A      2.841568  1733A      2.842018  1734A      2.843885  
    1735A      2.844235  1736A      2.846306  1737A      2.854866  
    1738A      2.865352  1739A      2.865617  1740A      2.870649  
    1741A      2.871682  1742A      2.874977  1743A      2.896041  
    1744A      2.896911  1745A      2.915506  1746A      2.917926  
    1747A      2.918026  1748A      2.927490  1749A      2.928269  
    1750A      2.935465  1751A      2.935529  1752A      2.961905  
    1753A      2.963597  1754A      2.965661  1755A      2.966176  
    1756A      2.976280  1757A      2.992374  1758A      2.992889  
    1759A      3.029953  1760A      3.030537  1761A      3.036154  
    1762A      3.039340  1763A      3.047258  1764A      3.047762  
    1765A      3.048303  1766A      3.057726  1767A      3.057809  
    1768A      3.067363  1769A      3.072961  1770A      3.110595  
    1771A      3.113458  1772A      3.113944  1773A      3.123071  
    1774A      3.129098  1775A      3.129350  1776A      3.135248  
    1777A      3.138139  1778A      3.142229  1779A      3.143296  
    1780A      3.149948  1781A      3.150413  1782A      3.150649  
    1783A      3.151172  1784A      3.154330  1785A      3.162151  
    1786A      3.168194  1787A      3.173230  1788A      3.177316  
    1789A      3.177437  1790A      3.193294  1791A      3.194085  
    1792A      3.220469  1793A      3.256106  1794A      3.259764  
    1795A      3.262409  1796A      3.262966  1797A      3.263104  
    1798A      3.265617  1799A      3.270776  1800A      3.273316  
    1801A      3.275635  1802A      3.276132  1803A      3.297110  
    1804A      3.299575  1805A      3.301124  1806A      3.307835  
    1807A      3.362238  1808A      3.363097  1809A      3.389447  
    1810A      3.418019  1811A      3.434024  1812A      3.434781  
    1813A      3.447069  1814A      3.453689  1815A      3.458485  
    1816A      3.464467  1817A      3.465088  1818A      3.471445  
    1819A      3.473291  1820A      3.482153  1821A      3.486711  
    1822A      3.488383  1823A      3.508904  1824A      3.515876  
    1825A      3.546984  1826A      3.576728  1827A      3.578352  
    1828A      3.585404  1829A      3.590421  1830A      3.641302  
    1831A      3.644610  1832A      3.665567  1833A      3.667626  
    1834A      3.705482  1835A      3.752626  1836A      3.754748  
    1837A      3.755737  1838A      3.769181  1839A      3.778645  
    1840A      3.782708  1841A      3.842240  1842A      3.847394  
    1843A      3.872075  1844A      3.875358  1845A      3.913680  
    1846A      3.917659  1847A      3.945033  1848A      3.948124  
    1849A      3.949408  1850A      3.951010  1851A      3.964459  
    1852A      3.966367  1853A      3.972014  1854A      4.024786  
    1855A      4.027550  1856A      4.072703  1857A      4.230992  
    1858A      4.250397  1859A      4.268405  1860A      4.337897  
    1861A      4.354791  1862A      4.403476  1863A      4.511756  
    1864A      5.752226  1865A      5.758061  1866A      5.758136  
    1867A      5.762981  1868A      5.763643  1869A      5.763834  
    1870A      5.770148  1871A      5.770373  1872A      5.795425  
    1873A      5.795517  1874A      5.811959  1875A      6.024182  
    1876A      6.026463  1877A      6.026786  1878A      6.201381  
    1879A      6.332301  1880A      6.332664  1881A      6.383545  
    1882A      6.384415  1883A      6.384706  1884A      7.253339  
    1885A      7.253900  1886A      7.269158  1887A      7.280410  
    1888A      7.323636  1889A      7.324252  1890A      7.432289  
    1891A      7.435245  1892A      7.538117  1893A      7.539261  
    1894A      7.635649  1895A      7.822015  1896A     12.658560  
    1897A     42.924464  1898A     42.924515  1899A     42.942545  
    1900A     42.969637  

    Final Occupation by Irrep:
              A 
    DOCC [   300 ]
    NA   [   300 ]
    NB   [   300 ]

  @DF-RHF Final Energy: -3650.33909926675597

   => Energetics <=

    Nuclear Repulsion Energy =          15611.4211649754324753
    One-Electron Energy =              -36072.1192632649763254
    Two-Electron Energy =               16810.3589990227883391
    Total Energy =                      -3650.3390992667555111

Computation Completed


Properties will be evaluated at   0.000000,   0.000000,   0.000000 [a0]

Properties computed using the SCF density matrix


 Multipole Moments:

 ------------------------------------------------------------------------------------
     Multipole            Electronic (a.u.)      Nuclear  (a.u.)        Total (a.u.)
 ------------------------------------------------------------------------------------

 L = 1.  Multiply by 2.5417464519 to convert [e a0] to [Debye]
 Dipole X            :         -0.0004448            0.0002304           -0.0002143
 Dipole Y            :          0.0012013           -0.0013052           -0.0001040
 Dipole Z            :       -343.6089112          343.6113352            0.0024240
 Magnitude           :                                                    0.0024357

 ------------------------------------------------------------------------------------

*** tstop() called on n2cn0227 at Sat Jan 27 14:40:58 2024
Module time:
	user time   =   15848.07 seconds =     264.13 minutes
	system time =    1056.80 seconds =      17.61 minutes
	total time  =       4448 seconds =      74.13 minutes
Total time:
	user time   =   43114.92 seconds =     718.58 minutes
	system time =    2975.73 seconds =      49.60 minutes
	total time  =      14269 seconds =     237.82 minutes
  Constructing Basis Sets for SAPT...

   => Loading Basis Set <=

    Name: (JUN-CC-PVDZ AUX)
    Role: RIFIT
    Keyword: DF_BASIS_SAPT
    atoms 1                                                   entry B          line    56 file /opt/software/pc2/EB-SW/software/PSI4/1.9-foss-2022a/share/psi4/basis/jun-cc-pvdz-ri.gbs 
    atoms 2-5                                                 entry F          line   232 file /opt/software/pc2/EB-SW/software/PSI4/1.9-foss-2022a/share/psi4/basis/jun-cc-pvdz-ri.gbs 
    atoms 6-23, 30-42, 45-59, 62-78, 81-93, 98-108, 111-119   entry C          line   100 file /opt/software/pc2/EB-SW/software/PSI4/1.9-foss-2022a/share/psi4/basis/jun-cc-pvdz-ri.gbs 
    atoms 24-29, 43-44, 60-61, 79-80, 94-97, 109-110, 120-125 entry H          line    30 file /opt/software/pc2/EB-SW/software/PSI4/1.9-foss-2022a/share/psi4/basis/jun-cc-pvdz-ri.gbs 

   => Loading Basis Set <=

    Name: (JUN-CC-PVDZ AUX)
    Role: JKFIT
    Keyword: DF_BASIS_ELST
    atoms 1                                                   entry B          line    90 file /opt/software/pc2/EB-SW/software/PSI4/1.9-foss-2022a/share/psi4/basis/jun-cc-pvdz-jkfit.gbs 
    atoms 2-5                                                 entry F          line   314 file /opt/software/pc2/EB-SW/software/PSI4/1.9-foss-2022a/share/psi4/basis/jun-cc-pvdz-jkfit.gbs 
    atoms 6-23, 30-42, 45-59, 62-78, 81-93, 98-108, 111-119   entry C          line   146 file /opt/software/pc2/EB-SW/software/PSI4/1.9-foss-2022a/share/psi4/basis/jun-cc-pvdz-jkfit.gbs 
    atoms 24-29, 43-44, 60-61, 79-80, 94-97, 109-110, 120-125 entry H          line    70 file /opt/software/pc2/EB-SW/software/PSI4/1.9-foss-2022a/share/psi4/basis/jun-cc-pvdz-jkfit.gbs 


  //>>>>>>>>>>>>>>>>>>>>>>>>>>>>>>>>>>>//
  //               SSAPT0              //
  //<<<<<<<<<<<<<<<<<<<<<<<<<<<<<<<<<<<//


*** tstart() called on n2cn0227
*** at Sat Jan 27 14:40:59 2024

        SAPT0  
    Ed Hohenstein
     6 June 2009

      Orbital Information
  --------------------------
    NSO        =      1938
    NMO        =      1900
    NRI        =      6901
    NRI (Elst) =      8531
    NOCC A     =        21
    NOCC B     =       300
    FOCC A     =         5
    FOCC B     =        96
    NVIR A     =      1879
    NVIR B     =      1600

    Elst10,r            =     0.010305849744 [Eh]
    Exch10              =     0.003543640815 [Eh]
    Exch10 (S^2)        =     0.003543363877 [Eh]

    Iter     Energy [mEh]          dE [mEh]         Residual      Time [s]
       1      -0.32351988       0.323519885       2.630780173           315
       2      -0.39631999       0.072800105       0.944251752           706
       3      -0.40129224       0.004972254       0.150042653          1056
       4      -0.40041036      -0.000881882       0.039359682          1492
       5      -0.40039270      -0.000017659       0.010591625          2021
       6      -0.40042113       0.000028422       0.003074654          2379
       7      -0.40042572       0.000004600       0.000662378          2754
       8      -0.40042387      -0.000001855       0.000150175          3360
       9      -0.40042391       0.000000037       0.000028608          3965
      10      -0.40042396       0.000000054       0.000004005          4376
      11      -0.40042395      -0.000000009       0.000000814          4892

    CHF Iterations converged


    Iter     Energy [mEh]          dE [mEh]         Residual      Time [s]
       1     -20.01208197      20.012081968      77.378035006           489
       2     -12.84762673      -7.164455241       9.351349457           970
       3     -12.76930098      -0.078325742       3.029507320          2171
       4     -12.98360664       0.214305659       1.049707400          2782
       5     -13.01818950       0.034582852       0.356187161          3374
       6     -13.01084497      -0.007344529       0.226232140          3850
       7     -13.00501281      -0.005832160       0.090511526          4465
       8     -13.00576994       0.000757130       0.035857778          4960
       9     -13.00674342       0.000973479       0.011968578          5356
      10     -13.00671122      -0.000032193       0.009973843          5899
      11     -13.00652356      -0.000187662       0.007009164          6416
      12     -13.00653933       0.000015773       0.004481466          6897
      13     -13.00659573       0.000056399       0.001836083          7384
      14     -13.00660497       0.000009237       0.000727425          7876
      15     -13.00659823      -0.000006742       0.000460462          8389
      16     -13.00659107      -0.000007154       0.000254097          8832
      17     -13.00659489       0.000003813       0.000130515          9229
      18     -13.00659621       0.000001320       0.000049682          9643
      19     -13.00659554      -0.000000670       0.000027835         10073
      20     -13.00659524      -0.000000294       0.000013078         10487
      21     -13.00659536       0.000000117       0.000005658         10868
      22     -13.00659542       0.000000060       0.000002338         11250
      23     -13.00659541      -0.000000009       0.000000911         11614

    CHF Iterations converged

    Ind20,r (A<-B)      =    -0.000400423952 [Eh]
    Ind20,r (B<-A)      =    -0.013006595411 [Eh]
    Ind20,r             =    -0.013407019363 [Eh]
    Exch-Ind20,r (A<-B) =     0.000362770310 [Eh]
    Exch-Ind20,r (B<-A) =     0.000423396311 [Eh]
    Exch-Ind20,r        =     0.000786166621 [Eh]
    Disp20              =    -0.006109351887 [Eh]
    Disp20 (SS)         =    -0.003054675944 [Eh]
    Disp20 (OS)         =    -0.003054675944 [Eh]
    Exch-Disp20         =     0.000519045251 [Eh]
    Exch-Disp20 (SS)    =     0.000307906965 [Eh]
    Exch-Disp20 (OS)    =     0.000211138286 [Eh]

    SAPT Results 
  --------------------------------------------------------------------------------------------------------
    Electrostatics                 10.30584974 [mEh]       6.46701835 [kcal/mol]      27.05800478 [kJ/mol]
      Elst10,r                     10.30584974 [mEh]       6.46701835 [kcal/mol]      27.05800478 [kJ/mol]

    Exchange                        3.54364082 [mEh]       2.22366818 [kcal/mol]       9.30382768 [kJ/mol]
      Exch10                        3.54364082 [mEh]       2.22366818 [kcal/mol]       9.30382768 [kJ/mol]
      Exch10(S^2)                   3.54336388 [mEh]       2.22349440 [kcal/mol]       9.30310058 [kJ/mol]

    Induction                     -12.83029982 [mEh]      -8.05113469 [kcal/mol]     -33.68594753 [kJ/mol]
      Ind20,r                     -13.40701936 [mEh]      -8.41303167 [kcal/mol]     -35.20012449 [kJ/mol]
      Exch-Ind20,r                  0.78616662 [mEh]       0.49332700 [kcal/mol]       2.06408018 [kJ/mol]
      delta HF,r (2)               -0.20944708 [mEh]      -0.13143003 [kcal/mol]      -0.54990323 [kJ/mol]

    Dispersion                     -5.59030664 [mEh]      -3.50797038 [kcal/mol]     -14.67734805 [kJ/mol]
      Disp20                       -6.10935189 [mEh]      -3.83367619 [kcal/mol]     -16.04010117 [kJ/mol]
      Exch-Disp20                   0.51904525 [mEh]       0.32570581 [kcal/mol]       1.36275312 [kJ/mol]
      Disp20 (SS)                  -3.05467594 [mEh]      -1.91683809 [kcal/mol]      -8.02005058 [kJ/mol]
      Disp20 (OS)                  -3.05467594 [mEh]      -1.91683809 [kcal/mol]      -8.02005058 [kJ/mol]
      Exch-Disp20 (SS)              0.30790696 [mEh]       0.19321454 [kcal/mol]       0.80840963 [kJ/mol]
      Exch-Disp20 (OS)              0.21113829 [mEh]       0.13249127 [kcal/mol]       0.55434349 [kJ/mol]

  Total HF                          1.01919074 [mEh]       0.63955184 [kcal/mol]       2.67588492 [kJ/mol]
  Total SAPT0                      -4.57111590 [mEh]      -2.86841853 [kcal/mol]     -12.00146313 [kJ/mol]

  Special recipe for scaled SAPT0 (see Manual):
    Electrostatics sSAPT0          10.30584974 [mEh]       6.46701835 [kcal/mol]      27.05800478 [kJ/mol]
    Exchange sSAPT0                 3.54364082 [mEh]       2.22366818 [kcal/mol]       9.30382768 [kJ/mol]
    Induction sSAPT0              -12.83011547 [mEh]      -8.05101901 [kcal/mol]     -33.68546353 [kJ/mol]
    Dispersion sSAPT0              -5.59018493 [mEh]      -3.50789400 [kcal/mol]     -14.67702850 [kJ/mol]
  Total sSAPT0                     -4.57080984 [mEh]      -2.86822648 [kcal/mol]     -12.00065958 [kJ/mol]
  --------------------------------------------------------------------------------------------------------

*** tstop() called on n2cn0227 at Sun Jan 28 07:08:59 2024
Module time:
	user time   =   62771.87 seconds =    1046.20 minutes
	system time =    3308.35 seconds =      55.14 minutes
	total time  =      59280 seconds =     988.00 minutes
Total time:
	user time   =  105888.12 seconds =    1764.80 minutes
	system time =    6284.08 seconds =     104.73 minutes
	total time  =      73550 seconds =    1225.83 minutes

    Psi4 stopped on: Sunday, 28 January 2024 07:09AM
    Psi4 wall time for execution: 20:25:53.92

*** Psi4 exiting successfully. Buy a developer a beer!
