
    -----------------------------------------------------------------------
          Psi4: An Open-Source Ab Initio Electronic Structure Package
                               Psi4 1.9 release

                         Git: Rev {} zzzzzzz 


    D. G. A. Smith, L. A. Burns, A. C. Simmonett, R. M. Parrish,
    M. C. Schieber, R. Galvelis, P. Kraus, H. Kruse, R. Di Remigio,
    A. Alenaizan, A. M. James, S. Lehtola, J. P. Misiewicz, M. Scheurer,
    R. A. Shaw, J. B. Schriber, Y. Xie, Z. L. Glick, D. A. Sirianni,
    J. S. O'Brien, J. M. Waldrop, A. Kumar, E. G. Hohenstein,
    B. P. Pritchard, B. R. Brooks, H. F. Schaefer III, A. Yu. Sokolov,
    K. Patkowski, A. E. DePrince III, U. Bozkaya, R. A. King,
    F. A. Evangelista, J. M. Turney, T. D. Crawford, C. D. Sherrill,
    J. Chem. Phys. 152(18) 184108 (2020). https://doi.org/10.1063/5.0006002

                            Additional Code Authors
    E. T. Seidl, C. L. Janssen, E. F. Valeev, M. L. Leininger,
    J. F. Gonthier, R. M. Richard, H. R. McAlexander, M. Saitow, X. Wang,
    P. Verma, M. H. Lechner, A. Jiang, S. Behnle, A. G. Heide,
    M. F. Herbst, and D. L. Poole

             Previous Authors, Complete List of Code Contributors,
                       and Citations for Specific Modules
    https://github.com/psi4/psi4/blob/master/codemeta.json
    https://github.com/psi4/psi4/graphs/contributors
    http://psicode.org/psi4manual/master/introduction.html#citing-psifour

    -----------------------------------------------------------------------


    Psi4 started on: Saturday, 10 February 2024 01:42PM

    Process ID: 3649610
    Host:       n2cn0606
    PSIDATADIR: /opt/software/pc2/EB-SW/software/PSI4/1.9-foss-2022a/share/psi4
    Memory:     500.0 MiB
    Threads:    16
    
  ==> Input File <==

--------------------------------------------------------------------------
memory 80 GB # how much memory is available ! Depends on the nodes/cores !

molecule dimer {
# monomer A
+1 1    # Charge and multiplicity
C  0.680067 -0.008042 -5.115929
C -0.680504 -0.006014 -5.115545
N -1.085635 -0.005016 -3.797221
C  0.000108 -0.001740 -3.015820
C -2.477365  0.044390 -3.329242
N  1.085222 -0.005016 -3.797221
H  1.385146 -0.015870 -5.933368
H -1.385302 -0.006204 -5.933214
H -0.000009  0.000007 -1.934731
C  2.478117 -0.021908 -3.332123
H  2.490592  0.005437 -2.241870
H  2.967028 -0.935354 -3.679299
H  3.001428  0.853575 -3.723595
H -2.857359  1.066461 -3.409201
H -3.082679 -0.625694 -3.942306
H -2.518128 -0.282594 -2.289294
--
# monomer B
0 1     # Charge and multiplicity
C   -3.66844126402057      7.80375217008252      0.00190004133558
C   -4.84759871934653      7.13124183134024     -0.00046653359696
C   -4.89495929917518      5.69633040353158     -0.00103944469517
C   -3.65374067877320      4.98073034095895      0.00662099703436
C   -2.40942512149445      7.11398103667468      0.00209438359570
C   -2.42547734410473      5.68112195090346     -0.00491050527438
C   -1.19474401643570      7.78614419430947      0.00356656413763
C   0.03795902893699      7.09942164575698      0.00139585983271
C   0.03033258741920      5.66948955970466     -0.00408752508301
C   -1.20098450790502      4.96927034791531      0.00488220885047
C   1.27795782581485      7.77285944319479      0.00277170839332
C   2.48535808472416      7.08769688523756      0.00049722048857
C   2.48612868491717      5.65477081024076     -0.00644052849921
C   1.25408291964399      4.95607811366431      0.00518741308898
C   3.75171459140595      7.76391215098033      0.00062407186893
C   4.92356605618520      7.07878077698995     -0.00143240883900
C   4.95560727132542      5.64344746336949     -0.00159282164606
C   3.70680153420475      4.94121020833308      0.00349873852374
H   -3.65852113775815      8.89082741913536      0.00358502958574
H   -1.18921332975660      8.87412108735996      0.00753844057883
H   1.28429423888630      8.86083343548850      0.00693053253426
H   3.75354208679975      8.85103527897216      0.00214659618464
H   5.86995870320703      7.61379483465560     -0.00235777588134
H   -5.78823170750226      7.67630221293400     -0.00202638095293
C   -6.09197395869619      4.99326001364347     -0.00291168518608
C   -6.12866148031747      3.58258016879823     -0.00171050815740
C   -3.66457974004527      3.56418217974434     -0.00463560277484
C   -4.89429820469869      2.86108077590057      0.00453338221034
C   -2.43733499489796      2.84761165708481      0.00719617576166
C   -1.20922785759670      3.54788693497833     -0.00648285103018
C   1.24714157216223      3.53468075142962     -0.00729145743546
C   0.01517603956900      2.83311183930540      0.00439272578912
C   2.46764517244071      2.82128997725533      0.00449278391269
C   3.70254947457969      3.52466015442405     -0.00899517692985
C   6.14498038638375      4.92757236613191     -0.00282626685777
C   6.16658835886151      3.51658447594213     -0.00065971342101
C   4.92460995845939      2.80840792535402      0.00587903281610
H   7.08990550964105      5.46688776622306     -0.00658814770723
H   -7.03104175110130      5.54268795285765     -0.00714490013730
C   -7.33969804112295      2.85841153457957     -0.00333767559888
C   -7.36488195805880      1.47032337158330     -0.00157213747140
C   -4.90350460894690      1.44442681216000     -0.00628840166334
C   -6.13225715261081      0.73993935705394      0.00600164231964
C   -3.67687480051673      0.72669714267312      0.00433931473643
C   -2.44565658606518      1.42964113326212     -0.00597039546461
C   -1.22360068130162      0.71532450163492      0.00545886906656
C   0.00763786931376      1.41738314923765      0.00392452278437
C   1.23121980774686      0.70211669058719     -0.01490206287210
C   2.46082110053113      1.40329203612573      0.00460244601878
C   3.68443025419614      0.68719842821222      0.00377365974158
C   4.91870890153864      1.39173456118907     -0.00862816189375
C   7.36980207796101      2.77948220318441     -0.00242013321349
C   7.38016266612146      1.39121750785509     -0.00087345036788
C   6.13979953912259      0.67411862320065      0.00545489144369
H   -8.27919079934664      3.40711804112415     -0.00763522772059
H   8.31511347147953      3.31811809662368     -0.00663070901292
C   -8.59175593758115      0.72483255304480     -0.00123170985383
C   -8.59902460370342     -0.63263980622873      0.00089141472904
C   -6.13981313911873     -0.67413663715361     -0.00609792660607
C   -7.38018411213749     -1.39126618958160      0.00131813493501
C   -4.91868448025621     -1.39175501803000      0.00624257154343
C   -3.68443829568458     -0.68723731573599     -0.00478966852105
C   -2.46081704024768     -1.40334517882457      0.00575341766833
C   -1.23116201232071     -0.70217386488055     -0.00636696112346
C   -0.00756962538737     -1.41741884941102      0.00108956317991
C   1.22364771588843     -0.71527537726392      0.01109518512883
C   2.44567064933149     -1.42964328900682     -0.00065482763106
C   3.67686670284649     -0.72670743155550     -0.00479541202602
C   6.13224884641929     -0.73997883984993     -0.00632338623858
C   4.90351914550401     -1.44445752054090      0.00751768830159
C   8.59901484869081      0.63260386666793     -0.00101133422380
C   8.59174548810050     -0.72485086719319      0.00072504603735
C   7.36486276438985     -1.47033266560598      0.00049486934466
H   -9.52830597181814      1.27684744919284     -0.00270163681798
H   9.54141097460619      1.17457248844457     -0.00206336648518
C   -7.36983790976868     -2.77954514593389      0.00312634335708
C   -4.92459910905015     -2.80843725734101     -0.00460528907921
C   -6.16662249566744     -3.51665219282533      0.00169655107992
C   -3.70251035970491     -3.52468154912026      0.00571878010666
C   -2.46764698511392     -2.82132596280400     -0.00632585824990
C   -0.01513347410770     -2.83314164539971     -0.00604426974092
C   -1.24712184122656     -3.53473217556300      0.00551968366725
C   1.20924506964357     -3.54791467864352      0.00805871345849
C   2.43733602215464     -2.84764173817541     -0.00608104485234
C   4.89430234377080     -2.86112296828604     -0.00526030478103
C   3.66461525504104     -3.56421984553201      0.00761911515957
C   6.12863901474565     -3.58258405771778      0.00096495711699
C   7.33967266469532     -2.85841330737039      0.00248018319869
H   -9.54144911125902     -1.17456346666430      0.00226083090216
H   9.52826186807155     -1.27691907390448      0.00197485379837
H   -8.31516504384864     -3.31814985321231      0.00729857188773
H   8.27915514249207     -3.40714078989363      0.00681973918158
C   -6.14499418870218     -4.92764727278338      0.00302254913999
C   -3.70678334799751     -4.94126171411716     -0.00679841894792
C   -4.95559005800169     -5.64349397349412      0.00116871569699
C   -2.48612132622665     -5.65478557440947      0.00614125209662
C   -1.25405833548005     -4.95612205000132     -0.00503435388927
C   1.20101257386816     -4.96928038819302     -0.00385322963129
C   -0.03033667441341     -5.66952030313900      0.00398997003238
C   3.65375010132847     -4.98074377541453     -0.00309522988330
C   2.42549269587528     -5.68117463552727      0.00628170066869
C   6.09196561781097     -4.99325796338655      0.00325918379042
C   4.89497644461045     -5.69634842095790      0.00202298796027
H   -7.08989238804069     -5.46699984223871      0.00742531082125
H   7.03105520920009     -5.54265853633254      0.00683896355417
C   -4.92354532219813     -7.07882109967734      0.00061394679214
C   -2.48534208823777     -7.08772807792913     -0.00189594564379
C   -3.75168589177895     -7.76394715763627     -0.00170126671874
C   -0.03794895698805     -7.09946487446944     -0.00168022049625
C   -1.27795610040136     -7.77290438466689     -0.00366491325785
C   2.40944432072629     -7.11402201200282     -0.00081701968533
C   1.19474993715296     -7.78618536556242     -0.00296931056689
C   4.84762105249800     -7.13126211057943      0.00168979497423
C   3.66847160587561     -7.80378799294376     -0.00065863938960
H   -5.86994035041618     -7.61383059804164      0.00215798365757
H   5.78824962538815     -7.67633218931421      0.00281691445618
H   -3.75352693944918     -8.85107156923607     -0.00353718114765
H   -1.28430440589466     -8.86087539249706     -0.00809229711623
H   1.18922157469537     -8.87416062058945     -0.00706194725726
H   3.65854661482387     -8.89086063405326     -0.00231318081200

    units angstrom      # Angstroms are the default
    no_reorient         # Geometry fixed, default
    symmetry c1         # C1 symmetry, default
}

set {
    scf_type DF         # Density fitting, faster than exact integrals
    freeze_core True    # Freeze core electrons
    basis jun-cc-pVDZ   # Jun-cc-pVDZ basis set, recommended for sSAPT0 in https://doi.org/10.1063/1.4867135
}

energy('ssapt0')        # Compute sSAPT0 energy, includes also SAPT0
--------------------------------------------------------------------------

  Memory set to  74.506 GiB by Python driver.

Scratch directory: /tmp/
   => Loading Basis Set <=

    Name: JUN-CC-PVDZ
    Role: ORBITAL
    Keyword: BASIS
    atoms 1-2, 4-5, 10, 17-34, 41-53, 56-70, 73-89, 92-104, 109-119, 122-130 entry C          line   164 file /opt/software/pc2/EB-SW/software/PSI4/1.9-foss-2022a/share/psi4/basis/jun-cc-pvdz.gbs 
    atoms 3, 6                                                               entry N          line   198 file /opt/software/pc2/EB-SW/software/PSI4/1.9-foss-2022a/share/psi4/basis/jun-cc-pvdz.gbs 
    atoms 7-9, 11-16, 35-40, 54-55, 71-72, 90-91, 105-108, 120-121, 131-136  entry H          line    36 file /opt/software/pc2/EB-SW/software/PSI4/1.9-foss-2022a/share/psi4/basis/jun-cc-pvdz.gbs 

   => Loading Basis Set <=

    Name: JUN-CC-PVDZ
    Role: ORBITAL
    Keyword: BASIS
    atoms 1-2, 4-5, 10, 17-34, 41-53, 56-70, 73-89, 92-104, 109-119, 122-130 entry C          line   164 file /opt/software/pc2/EB-SW/software/PSI4/1.9-foss-2022a/share/psi4/basis/jun-cc-pvdz.gbs 
    atoms 3, 6                                                               entry N          line   198 file /opt/software/pc2/EB-SW/software/PSI4/1.9-foss-2022a/share/psi4/basis/jun-cc-pvdz.gbs 
    atoms 7-9, 11-16, 35-40, 54-55, 71-72, 90-91, 105-108, 120-121, 131-136  entry H          line    36 file /opt/software/pc2/EB-SW/software/PSI4/1.9-foss-2022a/share/psi4/basis/jun-cc-pvdz.gbs 


  //>>>>>>>>>>>>>>>>>>>>>>>>>>>>>>>>>>>//
  //              Dimer HF             //
  //<<<<<<<<<<<<<<<<<<<<<<<<<<<<<<<<<<<//

   => Libint2 <=

    Primary   basis highest AM E, G, H:  5, 4, 3
    Auxiliary basis highest AM E, G, H:  6, 5, 4
    Onebody   basis highest AM E, G, H:  6, 5, 4
    Solid Harmonics ordering:            gaussian

*** tstart() called on n2cn0606
*** at Sat Feb 10 13:42:27 2024

   => Loading Basis Set <=

    Name: JUN-CC-PVDZ
    Role: ORBITAL
    Keyword: BASIS
    atoms 1-2, 4-5, 10, 17-34, 41-53, 56-70, 73-89, 92-104, 109-119, 122-130 entry C          line   164 file /opt/software/pc2/EB-SW/software/PSI4/1.9-foss-2022a/share/psi4/basis/jun-cc-pvdz.gbs 
    atoms 3, 6                                                               entry N          line   198 file /opt/software/pc2/EB-SW/software/PSI4/1.9-foss-2022a/share/psi4/basis/jun-cc-pvdz.gbs 
    atoms 7-9, 11-16, 35-40, 54-55, 71-72, 90-91, 105-108, 120-121, 131-136  entry H          line    36 file /opt/software/pc2/EB-SW/software/PSI4/1.9-foss-2022a/share/psi4/basis/jun-cc-pvdz.gbs 


         ---------------------------------------------------------
                                   SCF
               by Justin Turney, Rob Parrish, Andy Simmonett
                          and Daniel G. A. Smith
                              RHF Reference
                       16 Threads,  76293 MiB Core
         ---------------------------------------------------------

  ==> Geometry <==

    Molecular point group: c1
    Full point group: C1

    Geometry (in Angstrom), charge = 1, multiplicity = 1:

       Center              X                  Y                   Z               Mass       
    ------------   -----------------  -----------------  -----------------  -----------------
         C            0.680062820275    -0.008027535675    -4.818589903006    12.000000000000
         C           -0.680508179725    -0.005999535675    -4.818205903006    12.000000000000
         N           -1.085639179725    -0.005001535675    -3.499881903006    14.003074004430
         C            0.000103820275    -0.001725535675    -2.718480903006    12.000000000000
         C           -2.477369179725     0.044404464325    -3.031902903006    12.000000000000
         N            1.085217820275    -0.005001535675    -3.499881903006    14.003074004430
         H            1.385141820275    -0.015855535675    -5.636028903006     1.007825032230
         H           -1.385306179725    -0.006189535675    -5.635874903006     1.007825032230
         H           -0.000013179725     0.000021464325    -1.637391903006     1.007825032230
         C            2.478112820275    -0.021893535675    -3.034783903006    12.000000000000
         H            2.490587820275     0.005451464325    -1.944530903006     1.007825032230
         H            2.967023820275    -0.935339535675    -3.381959903006     1.007825032230
         H            3.001423820275     0.853589464325    -3.426255903006     1.007825032230
         H           -2.857363179725     1.066475464325    -3.111861903006     1.007825032230
         H           -3.082683179725    -0.625679535675    -3.644966903006     1.007825032230
         H           -2.518132179725    -0.282579535675    -1.991954903006     1.007825032230
         C           -3.668445443746     7.803766634408     0.299239138329    12.000000000000
         C           -4.847602899072     7.131256295665     0.296872563397    12.000000000000
         C           -4.894963478901     5.696344867857     0.296299652299    12.000000000000
         C           -3.653744858499     4.980744805284     0.303960094028    12.000000000000
         C           -2.409429301220     7.113995501000     0.299433480590    12.000000000000
         C           -2.425481523830     5.681136415228     0.292428591720    12.000000000000
         C           -1.194748196161     7.786158658634     0.300905661132    12.000000000000
         C            0.037954849212     7.099436110082     0.298734956827    12.000000000000
         C            0.030328407694     5.669504024030     0.293251571911    12.000000000000
         C           -1.200988687630     4.969284812240     0.302221305844    12.000000000000
         C            1.277953646089     7.772873907520     0.300110805387    12.000000000000
         C            2.485353904999     7.087711349563     0.297836317482    12.000000000000
         C            2.486124505192     5.654785274566     0.290898568495    12.000000000000
         C            1.254078739919     4.956092577989     0.302526510083    12.000000000000
         C            3.751710411681     7.763926615305     0.297963168863    12.000000000000
         C            4.923561876460     7.078795241315     0.295906688155    12.000000000000
         C            4.955603091600     5.643461927694     0.295746275348    12.000000000000
         C            3.706797354479     4.941224672658     0.300837835518    12.000000000000
         H           -3.658525317484     8.890841883460     0.300924126580     1.007825032230
         H           -1.189217509482     8.874135551685     0.304877537573     1.007825032230
         H            1.284290059161     8.860847899813     0.304269629528     1.007825032230
         H            3.753537907074     8.851049743297     0.299485693179     1.007825032230
         H            5.869954523482     7.613809298981     0.294981321113     1.007825032230
         H           -5.788235887228     7.676316677259     0.295312716041     1.007825032230
         C           -6.091978138422     4.993274477968     0.294427411808    12.000000000000
         C           -6.128665660043     3.582594633123     0.295628588836    12.000000000000
         C           -3.664583919771     3.564196644069     0.292703494219    12.000000000000
         C           -4.894302384424     2.861095240226     0.301872479204    12.000000000000
         C           -2.437339174623     2.847626121410     0.304535272756    12.000000000000
         C           -1.209232037322     3.547901399303     0.290856245964    12.000000000000
         C            1.247137392437     3.534695215755     0.290047639558    12.000000000000
         C            0.015171859844     2.833126303630     0.301731822783    12.000000000000
         C            2.467640992715     2.821304441580     0.301831880907    12.000000000000
         C            3.702545294854     3.524674618749     0.288343920064    12.000000000000
         C            6.144976206658     4.927586830457     0.294512830136    12.000000000000
         C            6.166584179136     3.516598940267     0.296679383573    12.000000000000
         C            4.924605778734     2.808422389679     0.303218129810    12.000000000000
         H            7.089901329916     5.466902230548     0.290750949287     1.007825032230
         H           -7.031045930827     5.542702417183     0.290194196857     1.007825032230
         C           -7.339702220848     2.858425998905     0.294001421395    12.000000000000
         C           -7.364886137784     1.470337835908     0.295766959522    12.000000000000
         C           -4.903508788672     1.444441276485     0.291050695331    12.000000000000
         C           -6.132261332336     0.739953821379     0.303340739314    12.000000000000
         C           -3.676878980242     0.726711606998     0.301678411730    12.000000000000
         C           -2.445660765791     1.429655597587     0.291368701529    12.000000000000
         C           -1.223604861027     0.715338965960     0.302797966060    12.000000000000
         C            0.007633689588     1.417397613563     0.301263619778    12.000000000000
         C            1.231215628021     0.702131154912     0.282437034122    12.000000000000
         C            2.460816920806     1.403306500451     0.301941543013    12.000000000000
         C            3.684426074471     0.687212892537     0.301112756735    12.000000000000
         C            4.918704721813     1.391749025514     0.288710935100    12.000000000000
         C            7.369797898236     2.779496667509     0.294918963780    12.000000000000
         C            7.380158486396     1.391231972180     0.296465646626    12.000000000000
         C            6.139795359397     0.674133087526     0.302793988438    12.000000000000
         H           -8.279194979072     3.407132505449     0.289703869273     1.007825032230
         H            8.315109291754     3.318132560949     0.290708387981     1.007825032230
         C           -8.591760117307     0.724847017370     0.296107387140    12.000000000000
         C           -8.599028783429    -0.632625341904     0.298230511723    12.000000000000
         C           -6.139817318844    -0.674122172829     0.291241170388    12.000000000000
         C           -7.380188291863    -1.391251725257     0.298657231929    12.000000000000
         C           -4.918688659982    -1.391740553705     0.303581668537    12.000000000000
         C           -3.684442475410    -0.687222851411     0.292549428473    12.000000000000
         C           -2.460821219973    -1.403330714500     0.303092514662    12.000000000000
         C           -1.231166192046    -0.702159400556     0.290972135870    12.000000000000
         C           -0.007573805113    -1.417404385086     0.298428660174    12.000000000000
         C            1.223643536163    -0.715260912939     0.308434282123    12.000000000000
         C            2.445666469606    -1.429628824682     0.296684269363    12.000000000000
         C            3.676862523121    -0.726692967231     0.292543684968    12.000000000000
         C            6.132244666694    -0.739964375525     0.291015710755    12.000000000000
         C            4.903514965779    -1.444443056216     0.304856785295    12.000000000000
         C            8.599010668965     0.632618330993     0.296327762770    12.000000000000
         C            8.591741308375    -0.724836402868     0.298064143031    12.000000000000
         C            7.364858584664    -1.470318201281     0.297833966339    12.000000000000
         H           -9.528310151544     1.276861913518     0.294637460176     1.007825032230
         H            9.541406794881     1.174586952770     0.295275730509     1.007825032230
         C           -7.369842089494    -2.779530681609     0.300465440351    12.000000000000
         C           -4.924603288776    -2.808422793016     0.292733807915    12.000000000000
         C           -6.166626675393    -3.516637728500     0.299035648074    12.000000000000
         C           -3.702514539430    -3.524667084795     0.303057877101    12.000000000000
         C           -2.467651164839    -2.821311498479     0.291013238744    12.000000000000
         C           -0.015137653833    -2.833127181075     0.291294827253    12.000000000000
         C           -1.247126020952    -3.534717711238     0.302858780661    12.000000000000
         C            1.209240889918    -3.547900214319     0.305397810452    12.000000000000
         C            2.437331842429    -2.847627273850     0.291258052142    12.000000000000
         C            4.894298164045    -2.861108503961     0.292078792213    12.000000000000
         C            3.664611075316    -3.564205381207     0.304958212153    12.000000000000
         C            6.128634835020    -3.582569593393     0.298304054111    12.000000000000
         C            7.339668484970    -2.858398843045     0.299819280193    12.000000000000
         H           -9.541453290984    -1.174549002339     0.299599927896     1.007825032230
         H            9.528257688346    -1.276904609579     0.299313950792     1.007825032230
         H           -8.315169223574    -3.318135388887     0.304637668882     1.007825032230
         H            8.279150962767    -3.407126325569     0.304158836175     1.007825032230
         C           -6.144998368428    -4.927632808458     0.300361646134    12.000000000000
         C           -3.706787527723    -4.941247249792     0.290540678046    12.000000000000
         C           -4.955594237727    -5.643479509169     0.298507812691    12.000000000000
         C           -2.486125505952    -5.654771110084     0.303480349091    12.000000000000
         C           -1.254062515205    -4.956107585676     0.292304743105    12.000000000000
         C            1.201008394143    -4.969265923868     0.293485867363    12.000000000000
         C           -0.030340854139    -5.669505838814     0.301329067026    12.000000000000
         C            3.653745921603    -4.980729311090     0.294243867111    12.000000000000
         C            2.425488516150    -5.681160171202     0.303620797663    12.000000000000
         C            6.091961438086    -4.993243499062     0.300598280784    12.000000000000
         C            4.894972264885    -5.696333956633     0.299362084954    12.000000000000
         H           -7.089896567766    -5.466985377914     0.304764407815     1.007825032230
         H            7.031051029475    -5.542644072008     0.304178060548     1.007825032230
         C           -4.923549501924    -7.078806635352     0.297953043786    12.000000000000
         C           -2.485346267963    -7.087713613604     0.295443151350    12.000000000000
         C           -3.751690071504    -7.763932693311     0.295637830275    12.000000000000
         C           -0.037953136713    -7.099450410144     0.295658876498    12.000000000000
         C           -1.277960280127    -7.772889920342     0.293674183736    12.000000000000
         C            2.409440141001    -7.114007547678     0.296522077309    12.000000000000
         C            1.194745757428    -7.786170901237     0.294369786427    12.000000000000
         C            4.847616872773    -7.131247646254     0.299028891968    12.000000000000
         C            3.668467426150    -7.803773528619     0.296680457604    12.000000000000
         H           -5.869944530142    -7.613816133717     0.299497080651     1.007825032230
         H            5.788245445663    -7.676317724989     0.300156011450     1.007825032230
         H           -3.753531119175    -8.851057104911     0.293801915846     1.007825032230
         H           -1.284308585620    -8.860860928172     0.289246799878     1.007825032230
         H            1.189217394970    -8.874146156264     0.290277149737     1.007825032230
         H            3.658542435098    -8.890846169728     0.295025916182     1.007825032230

  Running in c1 symmetry.

  Rotational constants: A =      0.00067  B =      0.00066  C =      0.00035 [cm^-1]
  Rotational constants: A =     19.94506  B =     19.76078  C =     10.51914 [MHz]
  Nuclear repulsion = 18347.838229826862516

  Charge       = 1
  Multiplicity = 1
  Electrons    = 652
  Nalpha       = 326
  Nbeta        = 326

  ==> Algorithm <==

  SCF Algorithm Type is DF.
  DIIS enabled.
  MOM disabled.
  Fractional occupation disabled.
  Guess Type is SAD.
  Energy threshold   = 1.00e-08
  Density threshold  = 1.00e-08
  Integral threshold = 1.00e-12

  ==> Primary Basis <==

  Basis Set: JUN-CC-PVDZ
    Blend: JUN-CC-PVDZ
    Number of shells: 923
    Number of basis functions: 2019
    Number of Cartesian functions: 2122
    Spherical Harmonics?: true
    Max angular momentum: 2

   => Loading Basis Set <=

    Name: (JUN-CC-PVDZ AUX)
    Role: JKFIT
    Keyword: DF_BASIS_SCF
    atoms 1-2, 4-5, 10, 17-34, 41-53, 56-70, 73-89, 92-104, 109-119, 122-130 entry C          line   146 file /opt/software/pc2/EB-SW/software/PSI4/1.9-foss-2022a/share/psi4/basis/jun-cc-pvdz-jkfit.gbs 
    atoms 3, 6                                                               entry N          line   202 file /opt/software/pc2/EB-SW/software/PSI4/1.9-foss-2022a/share/psi4/basis/jun-cc-pvdz-jkfit.gbs 
    atoms 7-9, 11-16, 35-40, 54-55, 71-72, 90-91, 105-108, 120-121, 131-136  entry H          line    70 file /opt/software/pc2/EB-SW/software/PSI4/1.9-foss-2022a/share/psi4/basis/jun-cc-pvdz-jkfit.gbs 

  ==> Integral Setup <==

  ==> DiskDFJK: Density-Fitted J/K Matrices <==

    J tasked:                  Yes
    K tasked:                  Yes
    wK tasked:                  No
    OpenMP threads:             16
    Integrals threads:          16
    Memory [MiB]:            57220
    Algorithm:                Disk
    Integral Cache:           SAVE
    Schwarz Cutoff:          1E-12
    Fitting Condition:       1E-10

   => Auxiliary Basis Set <=

  Basis Set: (JUN-CC-PVDZ AUX)
    Blend: JUN-CC-PVDZ-JKFIT
    Number of shells: 3078
    Number of basis functions: 8896
    Number of Cartesian functions: 10198
    Spherical Harmonics?: true
    Max angular momentum: 3

  Minimum eigenvalue in the overlap matrix is 4.5554710787E-11.
  Reciprocal condition number of the overlap matrix is 1.7940793116E-12.
    Using canonical orthogonalization.
  Overall, 40 of 2019 possible MOs eliminated.


  ==> Pre-Iterations <==

  SCF Guess: Superposition of Atomic Densities via on-the-fly atomic UHF (no occupation information).

   -------------------------
    Irrep   Nso     Nmo    
   -------------------------
     A       2019    1979 
   -------------------------
    Total    2019    1979
   -------------------------

  ==> Iterations <==

                           Total Energy        Delta E     RMS |[F,P]|

   @DF-RHF iter SAD: -3967.80986669587264   -3.96781e+03   0.00000e+00 
   @DF-RHF iter   1: -3952.11192675369057    1.56979e+01   7.15615e-04 ADIIS/DIIS
   @DF-RHF iter   2: -3953.49099894151459   -1.37907e+00   2.40725e-04 ADIIS/DIIS
   @DF-RHF iter   3: -3953.61078144135263   -1.19782e-01   1.20360e-04 ADIIS/DIIS
   @DF-RHF iter   4: -3953.64028430003873   -2.95029e-02   5.33784e-05 DIIS
   @DF-RHF iter   5: -3953.64750619752704   -7.22190e-03   1.26851e-05 DIIS
   @DF-RHF iter   6: -3953.64808307156727   -5.76874e-04   4.77199e-06 DIIS
   @DF-RHF iter   7: -3953.64828504211073   -2.01971e-04   2.29327e-06 DIIS
   @DF-RHF iter   8: -3953.64835102958568   -6.59875e-05   1.13258e-06 DIIS
   @DF-RHF iter   9: -3953.64836997311068   -1.89435e-05   3.79903e-07 DIIS
   @DF-RHF iter  10: -3953.64837129299030   -1.31988e-06   1.57108e-07 DIIS
   @DF-RHF iter  11: -3953.64837146718037   -1.74190e-07   6.66728e-08 DIIS
   @DF-RHF iter  12: -3953.64837150423955   -3.70592e-08   3.53341e-08 DIIS
   @DF-RHF iter  13: -3953.64837151399615   -9.75660e-09   1.17352e-08 DIIS
   @DF-RHF iter  14: -3953.64837151449774   -5.01586e-10   5.28424e-09 DIIS
  Energy and wave function converged.


  ==> Post-Iterations <==

    Orbital Energies [Eh]
    ---------------------

    Doubly Occupied:                                                      

       1A    -15.782648     2A    -15.782229     3A    -11.472803  
       4A    -11.414362     5A    -11.412806     6A    -11.397742  
       7A    -11.397694     8A    -11.346406     9A    -11.346117  
      10A    -11.345650    11A    -11.345076    12A    -11.344398  
      13A    -11.344146    14A    -11.342146    15A    -11.342129  
      16A    -11.341971    17A    -11.341847    18A    -11.340723  
      19A    -11.340675    20A    -11.339636    21A    -11.339544  
      22A    -11.338597    23A    -11.338502    24A    -11.337873  
      25A    -11.337812    26A    -11.337733    27A    -11.337709  
      28A    -11.336677    29A    -11.336639    30A    -11.336525  
      31A    -11.336505    32A    -11.333056    33A    -11.333013  
      34A    -11.332966    35A    -11.332884    36A    -11.331956  
      37A    -11.331925    38A    -11.331907    39A    -11.331904  
      40A    -11.331132    41A    -11.331062    42A    -11.330968  
      43A    -11.330894    44A    -11.330093    45A    -11.330083  
      46A    -11.329440    47A    -11.329416    48A    -11.329394  
      49A    -11.329385    50A    -11.329061    51A    -11.329038  
      52A    -11.328744    53A    -11.328704    54A    -11.328685  
      55A    -11.328662    56A    -11.328191    57A    -11.328163  
      58A    -11.328161    59A    -11.328160    60A    -11.328135  
      61A    -11.328114    62A    -11.327692    63A    -11.327671  
      64A    -11.327652    65A    -11.327642    66A    -11.327086  
      67A    -11.327053    68A    -11.326794    69A    -11.326788  
      70A    -11.326762    71A    -11.326761    72A    -11.326167  
      73A    -11.326139    74A    -11.326136    75A    -11.326127  
      76A    -11.325614    77A    -11.325607    78A    -11.325567  
      79A    -11.325561    80A    -11.319956    81A    -11.319880  
      82A    -11.319860    83A    -11.319767    84A    -11.319197  
      85A    -11.319133    86A    -11.319112    87A    -11.319071  
      88A    -11.318850    89A    -11.318845    90A    -11.318768  
      91A    -11.318762    92A    -11.316457    93A    -11.316455  
      94A    -11.315563    95A    -11.315546    96A    -11.315531  
      97A    -11.315522    98A    -11.314987    99A    -11.314985  
     100A    -11.314081   101A    -11.314063   102A    -11.314045  
     103A    -11.314035   104A     -1.527583   105A     -1.383064  
     106A     -1.332276   107A     -1.312370   108A     -1.310819  
     109A     -1.290699   110A     -1.290293   111A     -1.289724  
     112A     -1.269095   113A     -1.264443   114A     -1.261756  
     115A     -1.260279   116A     -1.241284   117A     -1.241247  
     118A     -1.227597   119A     -1.226959   120A     -1.226131  
     121A     -1.211683   122A     -1.211614   123A     -1.198194  
     124A     -1.189922   125A     -1.185795   126A     -1.185388  
     127A     -1.184307   128A     -1.180027   129A     -1.178027  
     130A     -1.157830   131A     -1.157753   132A     -1.143566  
     133A     -1.143478   134A     -1.140692   135A     -1.138039  
     136A     -1.137399   137A     -1.135758   138A     -1.115199  
     139A     -1.115191   140A     -1.109281   141A     -1.105235  
     142A     -1.105078   143A     -1.097110   144A     -1.095869  
     145A     -1.094999   146A     -1.076198   147A     -1.074652  
     148A     -1.071590   149A     -1.070965   150A     -1.070850  
     151A     -1.069388   152A     -1.056848   153A     -1.040610  
     154A     -1.040345   155A     -1.023175   156A     -1.023053  
     157A     -0.979319   158A     -0.978761   159A     -0.978580  
     160A     -0.973536   161A     -0.971105   162A     -0.971079  
     163A     -0.964929   164A     -0.964757   165A     -0.961096  
     166A     -0.961024   167A     -0.959501   168A     -0.948224  
     169A     -0.938775   170A     -0.933432   171A     -0.920292  
     172A     -0.919015   173A     -0.918388   174A     -0.915214  
     175A     -0.912642   176A     -0.902758   177A     -0.902630  
     178A     -0.894004   179A     -0.893895   180A     -0.868725  
     181A     -0.856310   182A     -0.855825   183A     -0.852696  
     184A     -0.851184   185A     -0.851126   186A     -0.849439  
     187A     -0.849369   188A     -0.836169   189A     -0.832819  
     190A     -0.820590   191A     -0.800878   192A     -0.800282  
     193A     -0.796029   194A     -0.795364   195A     -0.793903  
     196A     -0.793283   197A     -0.792791   198A     -0.789054  
     199A     -0.784439   200A     -0.784104   201A     -0.770518  
     202A     -0.768357   203A     -0.767131   204A     -0.766811  
     205A     -0.756008   206A     -0.753088   207A     -0.752935  
     208A     -0.749942   209A     -0.749850   210A     -0.748039  
     211A     -0.741863   212A     -0.737516   213A     -0.736344  
     214A     -0.720673   215A     -0.720656   216A     -0.720262  
     217A     -0.718953   218A     -0.718828   219A     -0.716460  
     220A     -0.711668   221A     -0.711109   222A     -0.707516  
     223A     -0.706211   224A     -0.705900   225A     -0.705035  
     226A     -0.704578   227A     -0.697348   228A     -0.688201  
     229A     -0.681249   230A     -0.681025   231A     -0.676752  
     232A     -0.676670   233A     -0.672269   234A     -0.671490  
     235A     -0.670765   236A     -0.668556   237A     -0.668286  
     238A     -0.668026   239A     -0.666692   240A     -0.663614  
     241A     -0.663130   242A     -0.662937   243A     -0.662565  
     244A     -0.662540   245A     -0.658753   246A     -0.658712  
     247A     -0.658530   248A     -0.645241   249A     -0.645157  
     250A     -0.642575   251A     -0.642336   252A     -0.640622  
     253A     -0.639583   254A     -0.639381   255A     -0.636772  
     256A     -0.633664   257A     -0.633257   258A     -0.627903  
     259A     -0.627368   260A     -0.625274   261A     -0.623720  
     262A     -0.622258   263A     -0.618035   264A     -0.612623  
     265A     -0.611471   266A     -0.608009   267A     -0.605397  
     268A     -0.601720   269A     -0.601522   270A     -0.598556  
     271A     -0.594714   272A     -0.594606   273A     -0.586082  
     274A     -0.585768   275A     -0.582255   276A     -0.582055  
     277A     -0.575914   278A     -0.575734   279A     -0.565855  
     280A     -0.565389   281A     -0.564765   282A     -0.564531  
     283A     -0.564050   284A     -0.561043   285A     -0.547669  
     286A     -0.547412   287A     -0.543538   288A     -0.543456  
     289A     -0.541051   290A     -0.538976   291A     -0.534912  
     292A     -0.534752   293A     -0.527988   294A     -0.518477  
     295A     -0.518136   296A     -0.514695   297A     -0.514555  
     298A     -0.512210   299A     -0.500074   300A     -0.499776  
     301A     -0.477031   302A     -0.476691   303A     -0.476513  
     304A     -0.457092   305A     -0.456564   306A     -0.454913  
     307A     -0.451415   308A     -0.451170   309A     -0.422884  
     310A     -0.422656   311A     -0.419287   312A     -0.414136  
     313A     -0.413238   314A     -0.412260   315A     -0.398113  
     316A     -0.397675   317A     -0.377658   318A     -0.374029  
     319A     -0.373878   320A     -0.367996   321A     -0.353286  
     322A     -0.325405   323A     -0.324729   324A     -0.320029  
     325A     -0.272452   326A     -0.272136  

    Virtual:                                                              

     327A     -0.080413   328A     -0.079865   329A     -0.037188  
     330A     -0.036684   331A     -0.031548   332A     -0.023823  
     333A     -0.023034   334A     -0.019935   335A     -0.010693  
     336A     -0.005993   337A     -0.004903   338A     -0.004095  
     339A     -0.003944   340A     -0.002887   341A     -0.001625  
     342A     -0.001349   343A     -0.000971   344A      0.001948  
     345A      0.003190   346A      0.004469   347A      0.005221  
     348A      0.007289   349A      0.007482   350A      0.007512  
     351A      0.011818   352A      0.013381   353A      0.013512  
     354A      0.013653   355A      0.014289   356A      0.017088  
     357A      0.019719   358A      0.024543   359A      0.024602  
     360A      0.025896   361A      0.027705   362A      0.028240  
     363A      0.032255   364A      0.034127   365A      0.034716  
     366A      0.035256   367A      0.036196   368A      0.037212  
     369A      0.039460   370A      0.040225   371A      0.041757  
     372A      0.041978   373A      0.042078   374A      0.043743  
     375A      0.049140   376A      0.050187   377A      0.050219  
     378A      0.050694   379A      0.051508   380A      0.052594  
     381A      0.052834   382A      0.053029   383A      0.054446  
     384A      0.056540   385A      0.057619   386A      0.059204  
     387A      0.059967   388A      0.062909   389A      0.063558  
     390A      0.066706   391A      0.067473   392A      0.067776  
     393A      0.072442   394A      0.072915   395A      0.073267  
     396A      0.074586   397A      0.075108   398A      0.077106  
     399A      0.077833   400A      0.079919   401A      0.080148  
     402A      0.081279   403A      0.083711   404A      0.084548  
     405A      0.085381   406A      0.085544   407A      0.087334  
     408A      0.088531   409A      0.090288   410A      0.094608  
     411A      0.095733   412A      0.097771   413A      0.102278  
     414A      0.103390   415A      0.104178   416A      0.104380  
     417A      0.105516   418A      0.105925   419A      0.106408  
     420A      0.106661   421A      0.107081   422A      0.109004  
     423A      0.110697   424A      0.112126   425A      0.112650  
     426A      0.113047   427A      0.113226   428A      0.114031  
     429A      0.116021   430A      0.124057   431A      0.125410  
     432A      0.125865   433A      0.125988   434A      0.127448  
     435A      0.128121   436A      0.131357   437A      0.132063  
     438A      0.133216   439A      0.133620   440A      0.134425  
     441A      0.134642   442A      0.134820   443A      0.135024  
     444A      0.136313   445A      0.141327   446A      0.141482  
     447A      0.144918   448A      0.145452   449A      0.145561  
     450A      0.145598   451A      0.147206   452A      0.147785  
     453A      0.148399   454A      0.149239   455A      0.149499  
     456A      0.150093   457A      0.150741   458A      0.151883  
     459A      0.152941   460A      0.153414   461A      0.153792  
     462A      0.153892   463A      0.155884   464A      0.157137  
     465A      0.157674   466A      0.158415   467A      0.160654  
     468A      0.162485   469A      0.162986   470A      0.163126  
     471A      0.165168   472A      0.166387   473A      0.166627  
     474A      0.168919   475A      0.169102   476A      0.169815  
     477A      0.170333   478A      0.172490   479A      0.172791  
     480A      0.173605   481A      0.173740   482A      0.173846  
     483A      0.176414   484A      0.178205   485A      0.178508  
     486A      0.179021   487A      0.181199   488A      0.183324  
     489A      0.183967   490A      0.184502   491A      0.186686  
     492A      0.187690   493A      0.190315   494A      0.191028  
     495A      0.192604   496A      0.192812   497A      0.193016  
     498A      0.193418   499A      0.194228   500A      0.196259  
     501A      0.197142   502A      0.199753   503A      0.201092  
     504A      0.201367   505A      0.203534   506A      0.204597  
     507A      0.205028   508A      0.205578   509A      0.206600  
     510A      0.207120   511A      0.207399   512A      0.208486  
     513A      0.209916   514A      0.211060   515A      0.211279  
     516A      0.212619   517A      0.215131   518A      0.216064  
     519A      0.216998   520A      0.218486   521A      0.219093  
     522A      0.219409   523A      0.220134   524A      0.223150  
     525A      0.223696   526A      0.224383   527A      0.225585  
     528A      0.227087   529A      0.227549   530A      0.227977  
     531A      0.230266   532A      0.231056   533A      0.231301  
     534A      0.232536   535A      0.233511   536A      0.234328  
     537A      0.235196   538A      0.236301   539A      0.237903  
     540A      0.238514   541A      0.239359   542A      0.240265  
     543A      0.242397   544A      0.243311   545A      0.243772  
     546A      0.244243   547A      0.245295   548A      0.247375  
     549A      0.250110   550A      0.251483   551A      0.251820  
     552A      0.254003   553A      0.254716   554A      0.255041  
     555A      0.256142   556A      0.256407   557A      0.257786  
     558A      0.258223   559A      0.258807   560A      0.259360  
     561A      0.260041   562A      0.260351   563A      0.261555  
     564A      0.262136   565A      0.262528   566A      0.264072  
     567A      0.265992   568A      0.267126   569A      0.267814  
     570A      0.268687   571A      0.269909   572A      0.270320  
     573A      0.270813   574A      0.271343   575A      0.271916  
     576A      0.272502   577A      0.273647   578A      0.274172  
     579A      0.274759   580A      0.276229   581A      0.277721  
     582A      0.280012   583A      0.281025   584A      0.282037  
     585A      0.282558   586A      0.283382   587A      0.284540  
     588A      0.286047   589A      0.286565   590A      0.287075  
     591A      0.287276   592A      0.287539   593A      0.288567  
     594A      0.289303   595A      0.292064   596A      0.293089  
     597A      0.293623   598A      0.294582   599A      0.295783  
     600A      0.297124   601A      0.297998   602A      0.298720  
     603A      0.299948   604A      0.300358   605A      0.302290  
     606A      0.304553   607A      0.305612   608A      0.307237  
     609A      0.307753   610A      0.308483   611A      0.309411  
     612A      0.309809   613A      0.310440   614A      0.312228  
     615A      0.313840   616A      0.314608   617A      0.315298  
     618A      0.315600   619A      0.316157   620A      0.317460  
     621A      0.317977   622A      0.318907   623A      0.319898  
     624A      0.320465   625A      0.320717   626A      0.320915  
     627A      0.321325   628A      0.322652   629A      0.325141  
     630A      0.325857   631A      0.326468   632A      0.327389  
     633A      0.328029   634A      0.328346   635A      0.329269  
     636A      0.329763   637A      0.331260   638A      0.332107  
     639A      0.333178   640A      0.333499   641A      0.333666  
     642A      0.334487   643A      0.335891   644A      0.339371  
     645A      0.339604   646A      0.339702   647A      0.340040  
     648A      0.340661   649A      0.341667   650A      0.342090  
     651A      0.342585   652A      0.343148   653A      0.345707  
     654A      0.346021   655A      0.346579   656A      0.347625  
     657A      0.348084   658A      0.348631   659A      0.349672  
     660A      0.350853   661A      0.352063   662A      0.352673  
     663A      0.353725   664A      0.355567   665A      0.356281  
     666A      0.357272   667A      0.357692   668A      0.358356  
     669A      0.359157   670A      0.359669   671A      0.361180  
     672A      0.363122   673A      0.363550   674A      0.364542  
     675A      0.364574   676A      0.365676   677A      0.367136  
     678A      0.367246   679A      0.367777   680A      0.367989  
     681A      0.370373   682A      0.371131   683A      0.371554  
     684A      0.372575   685A      0.374021   686A      0.374743  
     687A      0.375708   688A      0.377298   689A      0.378604  
     690A      0.379665   691A      0.381023   692A      0.382242  
     693A      0.384025   694A      0.385689   695A      0.386544  
     696A      0.387133   697A      0.387873   698A      0.388330  
     699A      0.390855   700A      0.391238   701A      0.391362  
     702A      0.392144   703A      0.393214   704A      0.393322  
     705A      0.393866   706A      0.394604   707A      0.396418  
     708A      0.398628   709A      0.398700   710A      0.402478  
     711A      0.403076   712A      0.403451   713A      0.404663  
     714A      0.405320   715A      0.407248   716A      0.407569  
     717A      0.407931   718A      0.408801   719A      0.410155  
     720A      0.411033   721A      0.411452   722A      0.412196  
     723A      0.413369   724A      0.414188   725A      0.415399  
     726A      0.415713   727A      0.416481   728A      0.416941  
     729A      0.418352   730A      0.419076   731A      0.421089  
     732A      0.423489   733A      0.424660   734A      0.425052  
     735A      0.426646   736A      0.427475   737A      0.429565  
     738A      0.430621   739A      0.431438   740A      0.432541  
     741A      0.432659   742A      0.434792   743A      0.436098  
     744A      0.437115   745A      0.437507   746A      0.439179  
     747A      0.439723   748A      0.440409   749A      0.441188  
     750A      0.442798   751A      0.444051   752A      0.444961  
     753A      0.446239   754A      0.448647   755A      0.451118  
     756A      0.453339   757A      0.454000   758A      0.454248  
     759A      0.454995   760A      0.455752   761A      0.458125  
     762A      0.459254   763A      0.459809   764A      0.461523  
     765A      0.462160   766A      0.463397   767A      0.464842  
     768A      0.464999   769A      0.466576   770A      0.469070  
     771A      0.470632   772A      0.472913   773A      0.473125  
     774A      0.475056   775A      0.475365   776A      0.476251  
     777A      0.478350   778A      0.480236   779A      0.482929  
     780A      0.484496   781A      0.488524   782A      0.490029  
     783A      0.491812   784A      0.494175   785A      0.496393  
     786A      0.496589   787A      0.497539   788A      0.498369  
     789A      0.498764   790A      0.500422   791A      0.501714  
     792A      0.502202   793A      0.502798   794A      0.506231  
     795A      0.508240   796A      0.509116   797A      0.509422  
     798A      0.511593   799A      0.512444   800A      0.513111  
     801A      0.514989   802A      0.515231   803A      0.518854  
     804A      0.519173   805A      0.521496   806A      0.522236  
     807A      0.524246   808A      0.525342   809A      0.526514  
     810A      0.527545   811A      0.530498   812A      0.531362  
     813A      0.532185   814A      0.532907   815A      0.537192  
     816A      0.537574   817A      0.539762   818A      0.540089  
     819A      0.541908   820A      0.543717   821A      0.544799  
     822A      0.548952   823A      0.549734   824A      0.552846  
     825A      0.554656   826A      0.556867   827A      0.557862  
     828A      0.559788   829A      0.565364   830A      0.566514  
     831A      0.570325   832A      0.570594   833A      0.573820  
     834A      0.578712   835A      0.581540   836A      0.582776  
     837A      0.585120   838A      0.586093   839A      0.588345  
     840A      0.590224   841A      0.592835   842A      0.593052  
     843A      0.594449   844A      0.597995   845A      0.599672  
     846A      0.600228   847A      0.604743   848A      0.606363  
     849A      0.609179   850A      0.612997   851A      0.618760  
     852A      0.620359   853A      0.624095   854A      0.624118  
     855A      0.624625   856A      0.626435   857A      0.629408  
     858A      0.630231   859A      0.631607   860A      0.632452  
     861A      0.636032   862A      0.638724   863A      0.639841  
     864A      0.644684   865A      0.645694   866A      0.658951  
     867A      0.665820   868A      0.669968   869A      0.671999  
     870A      0.673224   871A      0.673718   872A      0.673835  
     873A      0.677103   874A      0.678679   875A      0.679146  
     876A      0.683915   877A      0.686803   878A      0.702505  
     879A      0.707222   880A      0.711525   881A      0.713656  
     882A      0.720275   883A      0.721573   884A      0.723678  
     885A      0.725747   886A      0.726040   887A      0.727308  
     888A      0.729485   889A      0.735525   890A      0.736181  
     891A      0.737963   892A      0.742116   893A      0.743325  
     894A      0.744539   895A      0.747239   896A      0.752270  
     897A      0.752618   898A      0.755488   899A      0.756706  
     900A      0.757356   901A      0.759688   902A      0.760084  
     903A      0.761546   904A      0.762934   905A      0.764926  
     906A      0.765688   907A      0.768043   908A      0.768917  
     909A      0.770646   910A      0.773124   911A      0.774910  
     912A      0.778276   913A      0.780620   914A      0.782403  
     915A      0.783530   916A      0.784581   917A      0.787018  
     918A      0.791451   919A      0.792283   920A      0.792951  
     921A      0.794807   922A      0.795755   923A      0.797621  
     924A      0.801685   925A      0.801967   926A      0.803757  
     927A      0.805235   928A      0.805655   929A      0.808245  
     930A      0.810834   931A      0.812916   932A      0.813004  
     933A      0.814395   934A      0.816179   935A      0.817343  
     936A      0.819504   937A      0.821875   938A      0.823584  
     939A      0.824427   940A      0.825412   941A      0.826204  
     942A      0.827527   943A      0.828907   944A      0.832353  
     945A      0.836273   946A      0.836433   947A      0.838711  
     948A      0.842233   949A      0.842933   950A      0.843464  
     951A      0.845760   952A      0.847790   953A      0.849081  
     954A      0.852189   955A      0.852583   956A      0.853557  
     957A      0.854648   958A      0.856426   959A      0.856907  
     960A      0.857464   961A      0.859370   962A      0.861645  
     963A      0.862165   964A      0.863081   965A      0.864332  
     966A      0.865822   967A      0.867518   968A      0.868318  
     969A      0.871011   970A      0.871697   971A      0.872844  
     972A      0.875356   973A      0.876943   974A      0.877157  
     975A      0.878287   976A      0.880852   977A      0.881607  
     978A      0.883980   979A      0.884199   980A      0.885067  
     981A      0.888471   982A      0.888841   983A      0.889240  
     984A      0.890285   985A      0.891776   986A      0.893539  
     987A      0.894772   988A      0.896242   989A      0.897026  
     990A      0.899293   991A      0.899851   992A      0.903442  
     993A      0.905261   994A      0.907516   995A      0.908517  
     996A      0.910340   997A      0.911609   998A      0.913586  
     999A      0.918038  1000A      0.919109  1001A      0.921866  
    1002A      0.925151  1003A      0.926216  1004A      0.926682  
    1005A      0.927184  1006A      0.928007  1007A      0.930047  
    1008A      0.932443  1009A      0.934663  1010A      0.936826  
    1011A      0.937257  1012A      0.939014  1013A      0.940219  
    1014A      0.941847  1015A      0.943523  1016A      0.944656  
    1017A      0.947518  1018A      0.949643  1019A      0.949844  
    1020A      0.951939  1021A      0.954267  1022A      0.956184  
    1023A      0.957554  1024A      0.958534  1025A      0.959532  
    1026A      0.962354  1027A      0.963582  1028A      0.965590  
    1029A      0.966039  1030A      0.967478  1031A      0.970336  
    1032A      0.970689  1033A      0.972131  1034A      0.973735  
    1035A      0.975214  1036A      0.976144  1037A      0.977089  
    1038A      0.978224  1039A      0.980612  1040A      0.982058  
    1041A      0.983595  1042A      0.984891  1043A      0.985661  
    1044A      0.986842  1045A      0.987856  1046A      0.989172  
    1047A      0.989224  1048A      0.991170  1049A      0.992465  
    1050A      0.994521  1051A      0.994812  1052A      0.995309  
    1053A      0.995750  1054A      0.998130  1055A      0.998737  
    1056A      1.000269  1057A      1.001457  1058A      1.002951  
    1059A      1.003073  1060A      1.004221  1061A      1.005656  
    1062A      1.006277  1063A      1.006719  1064A      1.007237  
    1065A      1.008195  1066A      1.009941  1067A      1.010432  
    1068A      1.010563  1069A      1.012566  1070A      1.012766  
    1071A      1.013522  1072A      1.014140  1073A      1.014877  
    1074A      1.015939  1075A      1.017763  1076A      1.017870  
    1077A      1.018099  1078A      1.019575  1079A      1.020261  
    1080A      1.021448  1081A      1.022343  1082A      1.022708  
    1083A      1.024852  1084A      1.025342  1085A      1.026450  
    1086A      1.027581  1087A      1.028480  1088A      1.030468  
    1089A      1.031649  1090A      1.033401  1091A      1.033608  
    1092A      1.034740  1093A      1.035376  1094A      1.037252  
    1095A      1.037625  1096A      1.039807  1097A      1.041244  
    1098A      1.042741  1099A      1.043708  1100A      1.046031  
    1101A      1.046962  1102A      1.047305  1103A      1.050414  
    1104A      1.052424  1105A      1.054444  1106A      1.055100  
    1107A      1.057096  1108A      1.058316  1109A      1.060080  
    1110A      1.061451  1111A      1.062553  1112A      1.063611  
    1113A      1.065944  1114A      1.067218  1115A      1.069312  
    1116A      1.070160  1117A      1.070910  1118A      1.072253  
    1119A      1.074794  1120A      1.075716  1121A      1.078807  
    1122A      1.079293  1123A      1.080910  1124A      1.082863  
    1125A      1.084553  1126A      1.087530  1127A      1.089174  
    1128A      1.089508  1129A      1.090087  1130A      1.092456  
    1131A      1.094745  1132A      1.095950  1133A      1.096822  
    1134A      1.098908  1135A      1.099341  1136A      1.100945  
    1137A      1.104916  1138A      1.105313  1139A      1.109016  
    1140A      1.111793  1141A      1.113264  1142A      1.113897  
    1143A      1.116317  1144A      1.119854  1145A      1.120827  
    1146A      1.122054  1147A      1.125222  1148A      1.128686  
    1149A      1.130152  1150A      1.132119  1151A      1.133295  
    1152A      1.135140  1153A      1.135911  1154A      1.139208  
    1155A      1.140652  1156A      1.142706  1157A      1.143997  
    1158A      1.146119  1159A      1.147137  1160A      1.149619  
    1161A      1.151355  1162A      1.153967  1163A      1.157317  
    1164A      1.158738  1165A      1.159839  1166A      1.160384  
    1167A      1.164431  1168A      1.166726  1169A      1.169425  
    1170A      1.169856  1171A      1.173495  1172A      1.175328  
    1173A      1.177231  1174A      1.179283  1175A      1.184104  
    1176A      1.185466  1177A      1.187656  1178A      1.192509  
    1179A      1.192599  1180A      1.196040  1181A      1.196375  
    1182A      1.196623  1183A      1.200450  1184A      1.205528  
    1185A      1.206215  1186A      1.207034  1187A      1.209787  
    1188A      1.211326  1189A      1.218894  1190A      1.222276  
    1191A      1.222341  1192A      1.223147  1193A      1.224856  
    1194A      1.226344  1195A      1.228031  1196A      1.228590  
    1197A      1.229593  1198A      1.230696  1199A      1.233851  
    1200A      1.234380  1201A      1.237929  1202A      1.239904  
    1203A      1.240640  1204A      1.247495  1205A      1.247775  
    1206A      1.248450  1207A      1.249845  1208A      1.252714  
    1209A      1.253331  1210A      1.253758  1211A      1.256727  
    1212A      1.256931  1213A      1.258005  1214A      1.258324  
    1215A      1.260346  1216A      1.263163  1217A      1.263418  
    1218A      1.264450  1219A      1.266008  1220A      1.267742  
    1221A      1.269327  1222A      1.270964  1223A      1.272766  
    1224A      1.273179  1225A      1.274550  1226A      1.276867  
    1227A      1.278777  1228A      1.281590  1229A      1.285978  
    1230A      1.286141  1231A      1.295497  1232A      1.296848  
    1233A      1.297939  1234A      1.299443  1235A      1.300697  
    1236A      1.301499  1237A      1.304874  1238A      1.306474  
    1239A      1.307228  1240A      1.308332  1241A      1.309074  
    1242A      1.315051  1243A      1.315804  1244A      1.321691  
    1245A      1.322105  1246A      1.325215  1247A      1.325828  
    1248A      1.330572  1249A      1.331240  1250A      1.332942  
    1251A      1.334852  1252A      1.340603  1253A      1.342537  
    1254A      1.343150  1255A      1.348187  1256A      1.348609  
    1257A      1.349514  1258A      1.350765  1259A      1.351644  
    1260A      1.352966  1261A      1.356165  1262A      1.361783  
    1263A      1.363032  1264A      1.363906  1265A      1.364783  
    1266A      1.366581  1267A      1.369458  1268A      1.370660  
    1269A      1.371569  1270A      1.372372  1271A      1.373973  
    1272A      1.376106  1273A      1.378937  1274A      1.379472  
    1275A      1.380124  1276A      1.382005  1277A      1.383087  
    1278A      1.384977  1279A      1.387546  1280A      1.387657  
    1281A      1.389985  1282A      1.394917  1283A      1.397349  
    1284A      1.399588  1285A      1.405316  1286A      1.406200  
    1287A      1.411089  1288A      1.413419  1289A      1.415401  
    1290A      1.416543  1291A      1.418406  1292A      1.420980  
    1293A      1.424366  1294A      1.425388  1295A      1.426744  
    1296A      1.430211  1297A      1.432180  1298A      1.435569  
    1299A      1.438048  1300A      1.439097  1301A      1.446433  
    1302A      1.447766  1303A      1.451550  1304A      1.452581  
    1305A      1.464891  1306A      1.465586  1307A      1.473610  
    1308A      1.474708  1309A      1.476569  1310A      1.480975  
    1311A      1.482935  1312A      1.485985  1313A      1.508699  
    1314A      1.511560  1315A      1.514016  1316A      1.518489  
    1317A      1.524601  1318A      1.525010  1319A      1.531431  
    1320A      1.534316  1321A      1.535091  1322A      1.535957  
    1323A      1.538324  1324A      1.540842  1325A      1.541828  
    1326A      1.542527  1327A      1.545333  1328A      1.546466  
    1329A      1.546841  1330A      1.548241  1331A      1.548463  
    1332A      1.549372  1333A      1.553023  1334A      1.554744  
    1335A      1.555647  1336A      1.556255  1337A      1.557517  
    1338A      1.557763  1339A      1.559191  1340A      1.561480  
    1341A      1.564479  1342A      1.564752  1343A      1.565428  
    1344A      1.566364  1345A      1.569568  1346A      1.571073  
    1347A      1.571269  1348A      1.573895  1349A      1.574868  
    1350A      1.577838  1351A      1.578810  1352A      1.581295  
    1353A      1.581969  1354A      1.582784  1355A      1.585906  
    1356A      1.587891  1357A      1.589041  1358A      1.589701  
    1359A      1.592464  1360A      1.592929  1361A      1.594667  
    1362A      1.595790  1363A      1.598551  1364A      1.599371  
    1365A      1.599994  1366A      1.600899  1367A      1.602729  
    1368A      1.603866  1369A      1.606236  1370A      1.608150  
    1371A      1.608816  1372A      1.610039  1373A      1.613178  
    1374A      1.621157  1375A      1.621436  1376A      1.622598  
    1377A      1.623925  1378A      1.625456  1379A      1.629403  
    1380A      1.630511  1381A      1.633833  1382A      1.635105  
    1383A      1.637678  1384A      1.643131  1385A      1.643917  
    1386A      1.645504  1387A      1.646606  1388A      1.647054  
    1389A      1.648627  1390A      1.651532  1391A      1.652655  
    1392A      1.653851  1393A      1.656184  1394A      1.658215  
    1395A      1.661091  1396A      1.664038  1397A      1.667561  
    1398A      1.669984  1399A      1.673371  1400A      1.677775  
    1401A      1.679144  1402A      1.679493  1403A      1.684705  
    1404A      1.688889  1405A      1.691858  1406A      1.695670  
    1407A      1.702806  1408A      1.705715  1409A      1.713154  
    1410A      1.714637  1411A      1.716209  1412A      1.721696  
    1413A      1.722703  1414A      1.724565  1415A      1.725114  
    1416A      1.727436  1417A      1.739843  1418A      1.743492  
    1419A      1.747456  1420A      1.753129  1421A      1.756929  
    1422A      1.761064  1423A      1.761696  1424A      1.763663  
    1425A      1.764071  1426A      1.765884  1427A      1.767082  
    1428A      1.768327  1429A      1.769106  1430A      1.771184  
    1431A      1.773723  1432A      1.776287  1433A      1.778975  
    1434A      1.781968  1435A      1.787742  1436A      1.790853  
    1437A      1.792126  1438A      1.792930  1439A      1.793197  
    1440A      1.793577  1441A      1.796129  1442A      1.800426  
    1443A      1.800596  1444A      1.804328  1445A      1.804750  
    1446A      1.806490  1447A      1.808461  1448A      1.810735  
    1449A      1.811751  1450A      1.812863  1451A      1.813630  
    1452A      1.816030  1453A      1.817946  1454A      1.819662  
    1455A      1.819983  1456A      1.820265  1457A      1.820945  
    1458A      1.823331  1459A      1.824792  1460A      1.828532  
    1461A      1.832487  1462A      1.835440  1463A      1.839642  
    1464A      1.841657  1465A      1.842642  1466A      1.844201  
    1467A      1.845831  1468A      1.846934  1469A      1.851775  
    1470A      1.852338  1471A      1.853177  1472A      1.854674  
    1473A      1.855704  1474A      1.857849  1475A      1.858231  
    1476A      1.863360  1477A      1.866142  1478A      1.869439  
    1479A      1.869805  1480A      1.872631  1481A      1.874155  
    1482A      1.874712  1483A      1.875834  1484A      1.877872  
    1485A      1.879090  1486A      1.879451  1487A      1.882129  
    1488A      1.884092  1489A      1.886489  1490A      1.889245  
    1491A      1.892343  1492A      1.892675  1493A      1.894223  
    1494A      1.895182  1495A      1.895628  1496A      1.896523  
    1497A      1.899148  1498A      1.901401  1499A      1.902831  
    1500A      1.905359  1501A      1.906617  1502A      1.909036  
    1503A      1.910120  1504A      1.913714  1505A      1.916396  
    1506A      1.917704  1507A      1.920116  1508A      1.921154  
    1509A      1.921887  1510A      1.925213  1511A      1.926111  
    1512A      1.927923  1513A      1.929965  1514A      1.937513  
    1515A      1.939146  1516A      1.940401  1517A      1.943613  
    1518A      1.944983  1519A      1.946203  1520A      1.947261  
    1521A      1.950520  1522A      1.950989  1523A      1.952509  
    1524A      1.953371  1525A      1.953861  1526A      1.954559  
    1527A      1.957493  1528A      1.958561  1529A      1.961426  
    1530A      1.962698  1531A      1.964618  1532A      1.965396  
    1533A      1.969543  1534A      1.971561  1535A      1.973284  
    1536A      1.976370  1537A      1.976448  1538A      1.977068  
    1539A      1.978235  1540A      1.981239  1541A      1.982038  
    1542A      1.984758  1543A      1.987995  1544A      1.989628  
    1545A      1.991840  1546A      1.992853  1547A      1.995272  
    1548A      1.996981  1549A      1.998110  1550A      2.000443  
    1551A      2.001862  1552A      2.002153  1553A      2.003859  
    1554A      2.004737  1555A      2.007727  1556A      2.012549  
    1557A      2.013711  1558A      2.014261  1559A      2.015091  
    1560A      2.015608  1561A      2.016490  1562A      2.018373  
    1563A      2.019878  1564A      2.021069  1565A      2.021316  
    1566A      2.022043  1567A      2.022492  1568A      2.025063  
    1569A      2.025894  1570A      2.027182  1571A      2.027775  
    1572A      2.027992  1573A      2.029328  1574A      2.031772  
    1575A      2.032530  1576A      2.032927  1577A      2.033817  
    1578A      2.035328  1579A      2.037479  1580A      2.040688  
    1581A      2.041955  1582A      2.043987  1583A      2.044437  
    1584A      2.046481  1585A      2.049050  1586A      2.050122  
    1587A      2.050374  1588A      2.053227  1589A      2.053700  
    1590A      2.055409  1591A      2.055655  1592A      2.057323  
    1593A      2.059986  1594A      2.060978  1595A      2.061788  
    1596A      2.062916  1597A      2.063958  1598A      2.065115  
    1599A      2.065711  1600A      2.067089  1601A      2.068557  
    1602A      2.072637  1603A      2.073590  1604A      2.074654  
    1605A      2.077250  1606A      2.079245  1607A      2.079632  
    1608A      2.080240  1609A      2.087942  1610A      2.089420  
    1611A      2.090796  1612A      2.093610  1613A      2.094070  
    1614A      2.095140  1615A      2.096010  1616A      2.098281  
    1617A      2.098819  1618A      2.100508  1619A      2.103605  
    1620A      2.110441  1621A      2.112055  1622A      2.114351  
    1623A      2.114976  1624A      2.115692  1625A      2.117466  
    1626A      2.119255  1627A      2.120935  1628A      2.121872  
    1629A      2.125054  1630A      2.126016  1631A      2.127570  
    1632A      2.129166  1633A      2.130570  1634A      2.132461  
    1635A      2.134135  1636A      2.135128  1637A      2.136963  
    1638A      2.138883  1639A      2.141128  1640A      2.144892  
    1641A      2.148047  1642A      2.148231  1643A      2.149569  
    1644A      2.153429  1645A      2.156421  1646A      2.157689  
    1647A      2.159839  1648A      2.160340  1649A      2.161455  
    1650A      2.162170  1651A      2.164237  1652A      2.165972  
    1653A      2.167621  1654A      2.168685  1655A      2.169120  
    1656A      2.169839  1657A      2.171694  1658A      2.174003  
    1659A      2.175521  1660A      2.176817  1661A      2.182035  
    1662A      2.186795  1663A      2.190385  1664A      2.191978  
    1665A      2.192832  1666A      2.200430  1667A      2.202891  
    1668A      2.204609  1669A      2.205900  1670A      2.208506  
    1671A      2.210837  1672A      2.214342  1673A      2.215146  
    1674A      2.216474  1675A      2.222012  1676A      2.223216  
    1677A      2.227103  1678A      2.228193  1679A      2.229593  
    1680A      2.230713  1681A      2.237074  1682A      2.242665  
    1683A      2.244935  1684A      2.251823  1685A      2.254241  
    1686A      2.257983  1687A      2.258960  1688A      2.260241  
    1689A      2.262620  1690A      2.263956  1691A      2.264588  
    1692A      2.265564  1693A      2.266742  1694A      2.269192  
    1695A      2.270936  1696A      2.272887  1697A      2.273890  
    1698A      2.274388  1699A      2.275422  1700A      2.277082  
    1701A      2.277655  1702A      2.280183  1703A      2.280978  
    1704A      2.286850  1705A      2.292901  1706A      2.301126  
    1707A      2.302503  1708A      2.308786  1709A      2.317666  
    1710A      2.318146  1711A      2.320782  1712A      2.324540  
    1713A      2.327203  1714A      2.332079  1715A      2.339399  
    1716A      2.343200  1717A      2.350398  1718A      2.351904  
    1719A      2.352906  1720A      2.358919  1721A      2.360123  
    1722A      2.363013  1723A      2.366517  1724A      2.374356  
    1725A      2.381626  1726A      2.382759  1727A      2.394088  
    1728A      2.398146  1729A      2.399382  1730A      2.400410  
    1731A      2.402566  1732A      2.405066  1733A      2.405394  
    1734A      2.410234  1735A      2.423260  1736A      2.426495  
    1737A      2.430105  1738A      2.436994  1739A      2.441497  
    1740A      2.442332  1741A      2.444366  1742A      2.450695  
    1743A      2.451982  1744A      2.460478  1745A      2.470568  
    1746A      2.470844  1747A      2.472739  1748A      2.474350  
    1749A      2.477536  1750A      2.479073  1751A      2.481360  
    1752A      2.483477  1753A      2.484569  1754A      2.484610  
    1755A      2.486724  1756A      2.492621  1757A      2.496122  
    1758A      2.500535  1759A      2.505362  1760A      2.508140  
    1761A      2.518963  1762A      2.519493  1763A      2.521982  
    1764A      2.523172  1765A      2.524253  1766A      2.525861  
    1767A      2.526123  1768A      2.526338  1769A      2.532965  
    1770A      2.536500  1771A      2.537108  1772A      2.545834  
    1773A      2.548058  1774A      2.548716  1775A      2.549938  
    1776A      2.550205  1777A      2.554536  1778A      2.564744  
    1779A      2.572720  1780A      2.575015  1781A      2.576763  
    1782A      2.578815  1783A      2.579606  1784A      2.581793  
    1785A      2.583714  1786A      2.586616  1787A      2.590075  
    1788A      2.592148  1789A      2.592918  1790A      2.593222  
    1791A      2.594813  1792A      2.599395  1793A      2.601805  
    1794A      2.608162  1795A      2.609023  1796A      2.611846  
    1797A      2.614904  1798A      2.617607  1799A      2.621869  
    1800A      2.622510  1801A      2.623362  1802A      2.625142  
    1803A      2.626172  1804A      2.627339  1805A      2.627661  
    1806A      2.631093  1807A      2.632847  1808A      2.634639  
    1809A      2.643096  1810A      2.657810  1811A      2.661357  
    1812A      2.662812  1813A      2.665017  1814A      2.666813  
    1815A      2.668272  1816A      2.673836  1817A      2.691371  
    1818A      2.692202  1819A      2.699331  1820A      2.707101  
    1821A      2.708767  1822A      2.711032  1823A      2.719408  
    1824A      2.728259  1825A      2.729217  1826A      2.730126  
    1827A      2.731760  1828A      2.732684  1829A      2.735597  
    1830A      2.740973  1831A      2.742771  1832A      2.743444  
    1833A      2.745471  1834A      2.749621  1835A      2.752058  
    1836A      2.759345  1837A      2.762878  1838A      2.767990  
    1839A      2.772811  1840A      2.774859  1841A      2.776310  
    1842A      2.778182  1843A      2.781314  1844A      2.793699  
    1845A      2.795059  1846A      2.796071  1847A      2.800782  
    1848A      2.802505  1849A      2.806569  1850A      2.807547  
    1851A      2.818258  1852A      2.821343  1853A      2.822101  
    1854A      2.831026  1855A      2.832731  1856A      2.848195  
    1857A      2.854112  1858A      2.855282  1859A      2.863251  
    1860A      2.866743  1861A      2.867900  1862A      2.870406  
    1863A      2.870666  1864A      2.894919  1865A      2.903473  
    1866A      2.904923  1867A      2.911584  1868A      2.926066  
    1869A      2.929430  1870A      2.944498  1871A      2.957555  
    1872A      2.960353  1873A      2.969929  1874A      2.979258  
    1875A      2.981555  1876A      2.982787  1877A      2.986956  
    1878A      2.989535  1879A      2.990467  1880A      2.996634  
    1881A      2.999280  1882A      3.006805  1883A      3.007899  
    1884A      3.044584  1885A      3.047114  1886A      3.051495  
    1887A      3.056617  1888A      3.063470  1889A      3.064095  
    1890A      3.071286  1891A      3.076204  1892A      3.077331  
    1893A      3.078590  1894A      3.079843  1895A      3.083690  
    1896A      3.089830  1897A      3.090327  1898A      3.091218  
    1899A      3.093608  1900A      3.098064  1901A      3.098717  
    1902A      3.111166  1903A      3.113564  1904A      3.114926  
    1905A      3.117253  1906A      3.130571  1907A      3.131855  
    1908A      3.141395  1909A      3.157171  1910A      3.167110  
    1911A      3.193290  1912A      3.194869  1913A      3.195973  
    1914A      3.200607  1915A      3.202059  1916A      3.205926  
    1917A      3.208340  1918A      3.210914  1919A      3.211149  
    1920A      3.215170  1921A      3.230685  1922A      3.238618  
    1923A      3.245325  1924A      3.253607  1925A      3.292746  
    1926A      3.295485  1927A      3.326569  1928A      3.349688  
    1929A      3.354467  1930A      3.384971  1931A      3.386798  
    1932A      3.390836  1933A      3.393761  1934A      3.399560  
    1935A      3.403177  1936A      3.408012  1937A      3.413093  
    1938A      3.418518  1939A      3.420329  1940A      3.442912  
    1941A      3.449349  1942A      3.455520  1943A      3.493003  
    1944A      3.512349  1945A      3.516546  1946A      3.522657  
    1947A      3.523740  1948A      3.578702  1949A      3.581087  
    1950A      3.594113  1951A      3.612024  1952A      3.616355  
    1953A      3.622158  1954A      3.640598  1955A      3.686383  
    1956A      3.695811  1957A      3.701245  1958A      3.711740  
    1959A      3.713119  1960A      3.727126  1961A      3.781408  
    1962A      3.784475  1963A      3.809070  1964A      3.812420  
    1965A      3.853195  1966A      3.861903  1967A      3.878828  
    1968A      3.881333  1969A      3.884847  1970A      3.904649  
    1971A      3.910901  1972A      3.916355  1973A      3.921991  
    1974A      3.952243  1975A      3.954413  1976A      4.025113  
    1977A      4.278865  1978A      4.369071  1979A      4.401516  

    Final Occupation by Irrep:
              A 
    DOCC [   326 ]
    NA   [   326 ]
    NB   [   326 ]

  @DF-RHF Final Energy: -3953.64837151449774

   => Energetics <=

    Nuclear Repulsion Energy =          18347.8382298268625163
    One-Electron Energy =              -41899.3164046322854119
    Two-Electron Energy =               19597.8298032909260655
    Total Energy =                      -3953.6483715144968301

Computation Completed


Properties will be evaluated at   0.000000,   0.000000,   0.000000 [a0]

Properties computed using the SCF density matrix


 Multipole Moments:

 ------------------------------------------------------------------------------------
     Multipole            Electronic (a.u.)      Nuclear  (a.u.)        Total (a.u.)
 ------------------------------------------------------------------------------------

 L = 1.  Multiply by 2.5417464519 to convert [e a0] to [Debye]
 Dipole X            :         -0.0011851            0.0004804           -0.0007047
 Dipole Y            :         -0.0508793            0.0561130            0.0052337
 Dipole Z            :         17.4114938          -21.7993151           -4.3878213
 Magnitude           :                                                    4.3878245

 ------------------------------------------------------------------------------------

*** tstop() called on n2cn0606 at Sat Feb 10 15:13:47 2024
Module time:
	user time   =   31608.78 seconds =     526.81 minutes
	system time =    7612.86 seconds =     126.88 minutes
	total time  =       5480 seconds =      91.33 minutes
Total time:
	user time   =   31608.78 seconds =     526.81 minutes
	system time =    7612.86 seconds =     126.88 minutes
	total time  =       5480 seconds =      91.33 minutes

  //>>>>>>>>>>>>>>>>>>>>>>>>>>>>>>>>>>>//
  //            Monomer A HF           //
  //<<<<<<<<<<<<<<<<<<<<<<<<<<<<<<<<<<<//

   => Libint2 <=

    Primary   basis highest AM E, G, H:  5, 4, 3
    Auxiliary basis highest AM E, G, H:  6, 5, 4
    Onebody   basis highest AM E, G, H:  6, 5, 4
    Solid Harmonics ordering:            gaussian

*** tstart() called on n2cn0606
*** at Sat Feb 10 15:13:47 2024

   => Loading Basis Set <=

    Name: JUN-CC-PVDZ
    Role: ORBITAL
    Keyword: BASIS
    atoms 1-2, 4-5, 10, 17-34, 41-53, 56-70, 73-89, 92-104, 109-119, 122-130 entry C          line   164 file /opt/software/pc2/EB-SW/software/PSI4/1.9-foss-2022a/share/psi4/basis/jun-cc-pvdz.gbs 
    atoms 3, 6                                                               entry N          line   198 file /opt/software/pc2/EB-SW/software/PSI4/1.9-foss-2022a/share/psi4/basis/jun-cc-pvdz.gbs 
    atoms 7-9, 11-16, 35-40, 54-55, 71-72, 90-91, 105-108, 120-121, 131-136  entry H          line    36 file /opt/software/pc2/EB-SW/software/PSI4/1.9-foss-2022a/share/psi4/basis/jun-cc-pvdz.gbs 


         ---------------------------------------------------------
                                   SCF
               by Justin Turney, Rob Parrish, Andy Simmonett
                          and Daniel G. A. Smith
                              RHF Reference
                       16 Threads,  76293 MiB Core
         ---------------------------------------------------------

  ==> Geometry <==

    Molecular point group: c1
    Full point group: C1

    Geometry (in Angstrom), charge = 1, multiplicity = 1:

       Center              X                  Y                   Z               Mass       
    ------------   -----------------  -----------------  -----------------  -----------------
         C            0.680062820275    -0.008027535675    -4.818589903006    12.000000000000
         C           -0.680508179725    -0.005999535675    -4.818205903006    12.000000000000
         N           -1.085639179725    -0.005001535675    -3.499881903006    14.003074004430
[...]
    1591A      2.211813  1592A      2.212902  1593A      2.214416  
    1594A      2.216958  1595A      2.219222  1596A      2.219773  
    1597A      2.222954  1598A      2.223586  1599A      2.224682  
    1600A      2.228474  1601A      2.229308  1602A      2.231807  
    1603A      2.232059  1604A      2.233370  1605A      2.235698  
    1606A      2.237778  1607A      2.239582  1608A      2.240013  
    1609A      2.243432  1610A      2.243654  1611A      2.247173  
    1612A      2.248179  1613A      2.250542  1614A      2.253672  
    1615A      2.255630  1616A      2.257028  1617A      2.263413  
    1618A      2.265808  1619A      2.268007  1620A      2.270778  
    1621A      2.277146  1622A      2.280016  1623A      2.280711  
    1624A      2.283652  1625A      2.285401  1626A      2.286422  
    1627A      2.291026  1628A      2.292167  1629A      2.293213  
    1630A      2.296293  1631A      2.298205  1632A      2.301229  
    1633A      2.301512  1634A      2.304911  1635A      2.308569  
    1636A      2.312405  1637A      2.319702  1638A      2.322269  
    1639A      2.325882  1640A      2.326303  1641A      2.329061  
    1642A      2.330733  1643A      2.331981  1644A      2.332850  
    1645A      2.333846  1646A      2.335069  1647A      2.335503  
    1648A      2.339138  1649A      2.342222  1650A      2.342574  
    1651A      2.343742  1652A      2.344526  1653A      2.346569  
    1654A      2.347094  1655A      2.348636  1656A      2.352862  
    1657A      2.355406  1658A      2.358416  1659A      2.365544  
    1660A      2.369925  1661A      2.382326  1662A      2.385200  
    1663A      2.387044  1664A      2.388614  1665A      2.397546  
    1666A      2.399399  1667A      2.404128  1668A      2.409094  
    1669A      2.416369  1670A      2.419522  1671A      2.420122  
    1672A      2.423632  1673A      2.427125  1674A      2.428059  
    1675A      2.430300  1676A      2.438336  1677A      2.442423  
    1678A      2.452609  1679A      2.453205  1680A      2.456360  
    1681A      2.460769  1682A      2.464758  1683A      2.465174  
    1684A      2.466966  1685A      2.469148  1686A      2.472025  
    1687A      2.472306  1688A      2.475768  1689A      2.476500  
    1690A      2.491816  1691A      2.492587  1692A      2.496110  
    1693A      2.501779  1694A      2.506017  1695A      2.509116  
    1696A      2.510382  1697A      2.513812  1698A      2.516637  
    1699A      2.523704  1700A      2.532497  1701A      2.538558  
    1702A      2.539985  1703A      2.540978  1704A      2.542014  
    1705A      2.542759  1706A      2.547090  1707A      2.549323  
    1708A      2.552658  1709A      2.555453  1710A      2.557158  
    1711A      2.557400  1712A      2.560009  1713A      2.565029  
    1714A      2.571810  1715A      2.571924  1716A      2.573027  
    1717A      2.580124  1718A      2.584400  1719A      2.585320  
    1720A      2.586310  1721A      2.587224  1722A      2.587544  
    1723A      2.590363  1724A      2.593309  1725A      2.593999  
    1726A      2.595173  1727A      2.600642  1728A      2.603201  
    1729A      2.608352  1730A      2.613885  1731A      2.615475  
    1732A      2.615828  1733A      2.616964  1734A      2.620983  
    1735A      2.624971  1736A      2.629851  1737A      2.633225  
    1738A      2.640502  1739A      2.643038  1740A      2.645662  
    1741A      2.647504  1742A      2.648907  1743A      2.649904  
    1744A      2.652920  1745A      2.653724  1746A      2.656106  
    1747A      2.657983  1748A      2.662688  1749A      2.665419  
    1750A      2.666652  1751A      2.670281  1752A      2.672817  
    1753A      2.674184  1754A      2.678010  1755A      2.679908  
    1756A      2.682638  1757A      2.683529  1758A      2.689524  
    1759A      2.689990  1760A      2.691696  1761A      2.692555  
    1762A      2.694432  1763A      2.695594  1764A      2.698111  
    1765A      2.698282  1766A      2.699276  1767A      2.708728  
    1768A      2.712063  1769A      2.723183  1770A      2.725359  
    1771A      2.726956  1772A      2.729780  1773A      2.732093  
    1774A      2.732957  1775A      2.738397  1776A      2.750388  
    1777A      2.756674  1778A      2.759373  1779A      2.760373  
    1780A      2.778340  1781A      2.780197  1782A      2.784109  
    1783A      2.785211  1784A      2.790614  1785A      2.794513  
    1786A      2.800932  1787A      2.801373  1788A      2.802690  
    1789A      2.803078  1790A      2.806976  1791A      2.809636  
    1792A      2.811814  1793A      2.815719  1794A      2.817172  
    1795A      2.818771  1796A      2.821885  1797A      2.823572  
    1798A      2.827740  1799A      2.833722  1800A      2.835994  
    1801A      2.837265  1802A      2.840618  1803A      2.844930  
    1804A      2.847238  1805A      2.849960  1806A      2.856441  
    1807A      2.866358  1808A      2.867268  1809A      2.874217  
    1810A      2.875703  1811A      2.877499  1812A      2.882795  
    1813A      2.896331  1814A      2.897191  1815A      2.918831  
    1816A      2.919608  1817A      2.925220  1818A      2.928511  
    1819A      2.932728  1820A      2.936896  1821A      2.937060  
    1822A      2.955061  1823A      2.964082  1824A      2.966291  
    1825A      2.968839  1826A      2.976642  1827A      2.978820  
    1828A      2.989763  1829A      2.995901  1830A      2.997156  
    1831A      3.005371  1832A      3.022956  1833A      3.031363  
    1834A      3.031743  1835A      3.039229  1836A      3.044389  
    1837A      3.047771  1838A      3.050140  1839A      3.051515  
    1840A      3.059355  1841A      3.059478  1842A      3.063973  
    1843A      3.067806  1844A      3.071170  1845A      3.076568  
    1846A      3.094492  1847A      3.110277  1848A      3.111793  
    1849A      3.116245  1850A      3.124239  1851A      3.125629  
    1852A      3.130458  1853A      3.133483  1854A      3.134395  
    1855A      3.141212  1856A      3.143718  1857A      3.144889  
    1858A      3.147638  1859A      3.153558  1860A      3.155539  
    1861A      3.156651  1862A      3.161171  1863A      3.162499  
    1864A      3.163841  1865A      3.164994  1866A      3.170565  
    1867A      3.176504  1868A      3.180047  1869A      3.180492  
    1870A      3.196116  1871A      3.196427  1872A      3.206795  
    1873A      3.221178  1874A      3.229103  1875A      3.261467  
    1876A      3.264508  1877A      3.265620  1878A      3.268372  
    1879A      3.270608  1880A      3.271766  1881A      3.276008  
    1882A      3.277655  1883A      3.277797  1884A      3.283384  
    1885A      3.301263  1886A      3.306834  1887A      3.309803  
    1888A      3.315330  1889A      3.324999  1890A      3.364615  
    1891A      3.366503  1892A      3.372754  1893A      3.398455  
    1894A      3.418121  1895A      3.434145  1896A      3.443558  
    1897A      3.456366  1898A      3.461821  1899A      3.467470  
    1900A      3.470445  1901A      3.473762  1902A      3.478985  
    1903A      3.482253  1904A      3.486160  1905A      3.489837  
    1906A      3.494496  1907A      3.515556  1908A      3.523787  
    1909A      3.536340  1910A      3.553924  1911A      3.562194  
    1912A      3.570542  1913A      3.585101  1914A      3.588594  
    1915A      3.592315  1916A      3.598263  1917A      3.655422  
    1918A      3.656580  1919A      3.664050  1920A      3.681993  
    1921A      3.686723  1922A      3.700289  1923A      3.711381  
    1924A      3.756804  1925A      3.766010  1926A      3.767773  
    1927A      3.774144  1928A      3.779520  1929A      3.786041  
    1930A      3.802922  1931A      3.844058  1932A      3.850114  
    1933A      3.854169  1934A      3.878436  1935A      3.881892  
    1936A      3.893912  1937A      3.922907  1938A      3.930961  
    1939A      3.949239  1940A      3.950722  1941A      3.959314  
    1942A      3.975685  1943A      3.985640  1944A      3.989641  
    1945A      4.001696  1946A      4.025171  1947A      4.027960  
    1948A      4.047003  1949A      4.101745  1950A      4.247933  
    1951A      4.255530  1952A      4.359646  1953A      4.435611  
    1954A      4.467176  1955A      4.474315  1956A      4.497765  
    1957A      4.533851  1958A      4.829993  1959A      4.865717  
    1960A      4.905173  1961A      4.932540  1962A      4.988788  
    1963A      5.094155  1964A      5.101804  1965A      5.116798  
    1966A      5.148959  1967A      5.246724  1968A      5.419971  
    1969A      5.447869  1970A      5.787781  1971A      5.807913  
    1972A      6.088299  1973A     18.208928  1974A     18.493877  
    1975A     18.517507  1976A     18.611283  1977A     18.867483  
    1978A     25.360567  1979A     25.397764  

    Final Occupation by Irrep:
              A 
    DOCC [   300 ]
    NA   [   300 ]
    NB   [   300 ]

  @DF-RHF Final Energy: -3650.34182600497979

   => Energetics <=

    Nuclear Repulsion Energy =          15611.4211649754306563
    One-Electron Energy =              -36072.1987376339457114
    Two-Electron Energy =               16810.4357466535366257
    Total Energy =                      -3650.3418260049802484

Computation Completed


Properties will be evaluated at   0.000000,   0.000000,   0.000000 [a0]

Properties computed using the SCF density matrix


 Multipole Moments:

 ------------------------------------------------------------------------------------
     Multipole            Electronic (a.u.)      Nuclear  (a.u.)        Total (a.u.)
 ------------------------------------------------------------------------------------

 L = 1.  Multiply by 2.5417464519 to convert [e a0] to [Debye]
 Dipole X            :         -0.0008837            0.0002112           -0.0006726
 Dipole Y            :          0.0021413           -0.0013774            0.0007639
 Dipole Z            :       -337.1332914          337.1370677            0.0037763
 Magnitude           :                                                    0.0039111

 ------------------------------------------------------------------------------------

*** tstop() called on n2cn0606 at Sat Feb 10 16:12:21 2024
Module time:
	user time   =   18145.56 seconds =     302.43 minutes
	system time =    1079.69 seconds =      17.99 minutes
	total time  =       1678 seconds =      27.97 minutes
Total time:
	user time   =   56770.33 seconds =     946.17 minutes
	system time =    9843.18 seconds =     164.05 minutes
	total time  =       8994 seconds =     149.90 minutes
  Constructing Basis Sets for SAPT...

   => Loading Basis Set <=

    Name: (JUN-CC-PVDZ AUX)
    Role: RIFIT
    Keyword: DF_BASIS_SAPT
    atoms 1-2, 4-5, 10, 17-34, 41-53, 56-70, 73-89, 92-104, 109-119, 122-130 entry C          line   100 file /opt/software/pc2/EB-SW/software/PSI4/1.9-foss-2022a/share/psi4/basis/jun-cc-pvdz-ri.gbs 
    atoms 3, 6                                                               entry N          line   144 file /opt/software/pc2/EB-SW/software/PSI4/1.9-foss-2022a/share/psi4/basis/jun-cc-pvdz-ri.gbs 
    atoms 7-9, 11-16, 35-40, 54-55, 71-72, 90-91, 105-108, 120-121, 131-136  entry H          line    30 file /opt/software/pc2/EB-SW/software/PSI4/1.9-foss-2022a/share/psi4/basis/jun-cc-pvdz-ri.gbs 

   => Loading Basis Set <=

    Name: (JUN-CC-PVDZ AUX)
    Role: JKFIT
    Keyword: DF_BASIS_ELST
    atoms 1-2, 4-5, 10, 17-34, 41-53, 56-70, 73-89, 92-104, 109-119, 122-130 entry C          line   146 file /opt/software/pc2/EB-SW/software/PSI4/1.9-foss-2022a/share/psi4/basis/jun-cc-pvdz-jkfit.gbs 
    atoms 3, 6                                                               entry N          line   202 file /opt/software/pc2/EB-SW/software/PSI4/1.9-foss-2022a/share/psi4/basis/jun-cc-pvdz-jkfit.gbs 
    atoms 7-9, 11-16, 35-40, 54-55, 71-72, 90-91, 105-108, 120-121, 131-136  entry H          line    70 file /opt/software/pc2/EB-SW/software/PSI4/1.9-foss-2022a/share/psi4/basis/jun-cc-pvdz-jkfit.gbs 


  //>>>>>>>>>>>>>>>>>>>>>>>>>>>>>>>>>>>//
  //               SSAPT0              //
  //<<<<<<<<<<<<<<<<<<<<<<<<<<<<<<<<<<<//


*** tstart() called on n2cn0606
*** at Sat Feb 10 16:12:22 2024

        SAPT0  
    Ed Hohenstein
     6 June 2009

      Orbital Information
  --------------------------
    NSO        =      2019
    NMO        =      1979
    NRI        =      7157
    NRI (Elst) =      8896
    NOCC A     =        26
    NOCC B     =       300
    FOCC A     =         7
    FOCC B     =        96
    NVIR A     =      1953
    NVIR B     =      1679

    Elst10,r            =    -0.022379626684 [Eh]
    Exch10              =     0.041499733813 [Eh]
    Exch10 (S^2)        =     0.041021896657 [Eh]

    Iter     Energy [mEh]          dE [mEh]         Residual      Time [s]
       1      -4.01715926       4.017159261       9.684467827            90
       2      -4.94486104       0.927701780       2.923488145           182
       3      -5.02332140       0.078460356       0.559877852           265
       4      -5.01513103      -0.008190364       0.187162744           347
       5      -5.01226601      -0.002865027       0.045205352           412
       6      -5.01317444       0.000908435       0.019795561           480
       7      -5.01312615      -0.000048293       0.009985164           549
       8      -5.01302329      -0.000102855       0.002354708           616
       9      -5.01302501       0.000001716       0.000739484           681
      10      -5.01303048       0.000005471       0.000183989           747
      11      -5.01303024      -0.000000242       0.000047993           812
      12      -5.01303004      -0.000000202       0.000015495           883
      13      -5.01303002      -0.000000018       0.000004079           950
      14      -5.01303004       0.000000025       0.000001186          1013
      15      -5.01303004      -0.000000003       0.000000365          1080

    CHF Iterations converged


    Iter     Energy [mEh]          dE [mEh]         Residual      Time [s]
       1     -35.88689611      35.886896113      97.032912607           108
       2     -25.26009897     -10.626797147      13.694282076           216
       3     -25.72647219       0.466373225       5.712107586           346
       4     -26.46352599       0.737053800       1.497774366           458
       5     -26.52055290       0.057026910       0.539328012           596
       6     -26.49342038      -0.027132524       0.318333483           702
       7     -26.48390107      -0.009519313       0.137123605           808
       8     -26.48737368       0.003472619       0.059358668           919
       9     -26.48941897       0.002045283       0.021091007          1050
      10     -26.48919025      -0.000228722       0.015404230          1156
      11     -26.48877740      -0.000412844       0.009295956          1262
      12     -26.48878992       0.000012522       0.005561376          1674
      13     -26.48892950       0.000139578       0.002785338          1798
      14     -26.48894207       0.000012574       0.001904147          1910
      15     -26.48891164      -0.000030432       0.001241057          1992
      16     -26.48889475      -0.000016889       0.000649809          2075
      17     -26.48891175       0.000016992       0.000304888          2178
      18     -26.48891339       0.000001647       0.000143831          2259
      19     -26.48891031      -0.000003084       0.000072991          2340
      20     -26.48890952      -0.000000784       0.000034745          2428
      21     -26.48891007       0.000000541       0.000018540          2531
      22     -26.48891031       0.000000248       0.000009327          2612
      23     -26.48891023      -0.000000085       0.000004467          2684
      24     -26.48891016      -0.000000069       0.000002332          2768
      25     -26.48891017       0.000000009       0.000001364          2891
      26     -26.48891019       0.000000024       0.000000801          3026

    CHF Iterations converged

    Ind20,r (A<-B)      =    -0.005013030040 [Eh]
    Ind20,r (B<-A)      =    -0.026488910193 [Eh]
    Ind20,r             =    -0.031501940233 [Eh]
    Exch-Ind20,r (A<-B) =     0.004732599546 [Eh]
    Exch-Ind20,r (B<-A) =     0.006158575921 [Eh]
    Exch-Ind20,r        =     0.010891175467 [Eh]
    Disp20              =    -0.040041514226 [Eh]
    Disp20 (SS)         =    -0.020020757113 [Eh]
    Disp20 (OS)         =    -0.020020757113 [Eh]
    Exch-Disp20         =     0.003385444417 [Eh]
    Exch-Disp20 (SS)    =     0.002012008338 [Eh]
    Exch-Disp20 (OS)    =     0.001373436079 [Eh]

    SAPT Results 
  --------------------------------------------------------------------------------------------------------
    Electrostatics                -22.37962668 [mEh]     -14.04342776 [kcal/mol]     -58.75770176 [kJ/mol]
      Elst10,r                    -22.37962668 [mEh]     -14.04342776 [kcal/mol]     -58.75770176 [kJ/mol]

    Exchange                       41.49973381 [mEh]      26.04147613 [kcal/mol]     108.95753611 [kJ/mol]
      Exch10                       41.49973381 [mEh]      26.04147613 [kcal/mol]     108.95753611 [kJ/mol]
      Exch10(S^2)                  41.02189666 [mEh]      25.74162878 [kcal/mol]     107.70297483 [kJ/mol]

    Induction                     -27.00606580 [mEh]     -16.94656214 [kcal/mol]     -70.90441600 [kJ/mol]
      Ind20,r                     -31.50194023 [mEh]     -19.76776594 [kcal/mol]     -82.70833269 [kJ/mol]
      Exch-Ind20,r                 10.89117547 [mEh]       6.83431579 [kcal/mol]      28.59477725 [kJ/mol]
      delta HF,r (2)               -6.39530104 [mEh]      -4.01311199 [kcal/mol]     -16.79086056 [kJ/mol]

    Dispersion                    -36.65606981 [mEh]     -23.00203108 [kcal/mol]     -96.24049802 [kJ/mol]
      Disp20                      -40.04151423 [mEh]     -25.12642952 [kcal/mol]    -105.12898112 [kJ/mol]
      Exch-Disp20                   3.38544442 [mEh]       2.12439844 [kcal/mol]       8.88848309 [kJ/mol]
      Disp20 (SS)                 -20.02075711 [mEh]     -12.56321476 [kcal/mol]     -52.56449056 [kJ/mol]
      Disp20 (OS)                 -20.02075711 [mEh]     -12.56321476 [kcal/mol]     -52.56449056 [kJ/mol]
      Exch-Disp20 (SS)              2.01200834 [mEh]       1.26255429 [kcal/mol]       5.28252716 [kJ/mol]
      Exch-Disp20 (OS)              1.37343608 [mEh]       0.86184415 [kcal/mol]       3.60595593 [kJ/mol]

  Total HF                         -7.88595867 [mEh]      -4.94851378 [kcal/mol]     -20.70458165 [kJ/mol]
  Total SAPT0                     -44.54202848 [mEh]     -27.95054485 [kcal/mol]    -116.94507967 [kJ/mol]

  Special recipe for scaled SAPT0 (see Manual):
    Electrostatics sSAPT0         -22.37962668 [mEh]     -14.04342776 [kcal/mol]     -58.75770176 [kJ/mol]
    Exchange sSAPT0                41.49973381 [mEh]      26.04147613 [kcal/mol]     108.95753611 [kJ/mol]
    Induction sSAPT0              -26.62102285 [mEh]     -16.70494404 [kcal/mol]     -69.89348586 [kJ/mol]
    Dispersion sSAPT0             -36.53638195 [mEh]     -22.92692581 [kcal/mol]     -95.92625758 [kJ/mol]
  Total sSAPT0                    -44.03729767 [mEh]     -27.63382148 [kcal/mol]    -115.61990909 [kJ/mol]
  --------------------------------------------------------------------------------------------------------

*** tstop() called on n2cn0606 at Sat Feb 10 19:20:33 2024
Module time:
	user time   =   69251.82 seconds =    1154.20 minutes
	system time =    3719.63 seconds =      61.99 minutes
	total time  =      11291 seconds =     188.18 minutes
Total time:
	user time   =  126023.61 seconds =    2100.39 minutes
	system time =   13562.82 seconds =     226.05 minutes
	total time  =      20286 seconds =     338.10 minutes

    Psi4 stopped on: Saturday, 10 February 2024 07:20PM
    Psi4 wall time for execution: 5:38:06.99

*** Psi4 exiting successfully. Buy a developer a beer!
