
    -----------------------------------------------------------------------
          Psi4: An Open-Source Ab Initio Electronic Structure Package
                               Psi4 1.9 release

                         Git: Rev {} zzzzzzz 


    D. G. A. Smith, L. A. Burns, A. C. Simmonett, R. M. Parrish,
    M. C. Schieber, R. Galvelis, P. Kraus, H. Kruse, R. Di Remigio,
    A. Alenaizan, A. M. James, S. Lehtola, J. P. Misiewicz, M. Scheurer,
    R. A. Shaw, J. B. Schriber, Y. Xie, Z. L. Glick, D. A. Sirianni,
    J. S. O'Brien, J. M. Waldrop, A. Kumar, E. G. Hohenstein,
    B. P. Pritchard, B. R. Brooks, H. F. Schaefer III, A. Yu. Sokolov,
    K. Patkowski, A. E. DePrince III, U. Bozkaya, R. A. King,
    F. A. Evangelista, J. M. Turney, T. D. Crawford, C. D. Sherrill,
    J. Chem. Phys. 152(18) 184108 (2020). https://doi.org/10.1063/5.0006002

                            Additional Code Authors
    E. T. Seidl, C. L. Janssen, E. F. Valeev, M. L. Leininger,
    J. F. Gonthier, R. M. Richard, H. R. McAlexander, M. Saitow, X. Wang,
    P. Verma, M. H. Lechner, A. Jiang, S. Behnle, A. G. Heide,
    M. F. Herbst, and D. L. Poole

             Previous Authors, Complete List of Code Contributors,
                       and Citations for Specific Modules
    https://github.com/psi4/psi4/blob/master/codemeta.json
    https://github.com/psi4/psi4/graphs/contributors
    http://psicode.org/psi4manual/master/introduction.html#citing-psifour

    -----------------------------------------------------------------------


    Psi4 started on: Saturday, 27 January 2024 12:22PM

    Process ID: 2436050
    Host:       n2cn0565
    PSIDATADIR: /opt/software/pc2/EB-SW/software/PSI4/1.9-foss-2022a/share/psi4
    Memory:     500.0 MiB
    Threads:    16
    
  ==> Input File <==

--------------------------------------------------------------------------
memory 64 GB # how much memory is available ! Depends on the nodes/cores !

molecule dimer {
# monomer A
-1 1    # Charge and multiplicity
B -0.000046  0.000337 7.999994
F -1.153597  0.000048 8.815641
F  1.153661 -0.000581 8.815641
F -0.000019 -1.153637 7.184360
F -0.000019  1.153978 7.184360
--
# monomer B
0 1     # Charge and multiplicity
C   -3.66844126402057      7.80375217008252      0.00190004133558
C   -4.84759871934653      7.13124183134024     -0.00046653359696
C   -4.89495929917518      5.69633040353158     -0.00103944469517
C   -3.65374067877320      4.98073034095895      0.00662099703436
C   -2.40942512149445      7.11398103667468      0.00209438359570
C   -2.42547734410473      5.68112195090346     -0.00491050527438
C   -1.19474401643570      7.78614419430947      0.00356656413763
C   0.03795902893699      7.09942164575698      0.00139585983271
C   0.03033258741920      5.66948955970466     -0.00408752508301
C   -1.20098450790502      4.96927034791531      0.00488220885047
C   1.27795782581485      7.77285944319479      0.00277170839332
C   2.48535808472416      7.08769688523756      0.00049722048857
C   2.48612868491717      5.65477081024076     -0.00644052849921
C   1.25408291964399      4.95607811366431      0.00518741308898
C   3.75171459140595      7.76391215098033      0.00062407186893
C   4.92356605618520      7.07878077698995     -0.00143240883900
C   4.95560727132542      5.64344746336949     -0.00159282164606
C   3.70680153420475      4.94121020833308      0.00349873852374
H   -3.65852113775815      8.89082741913536      0.00358502958574
H   -1.18921332975660      8.87412108735996      0.00753844057883
H   1.28429423888630      8.86083343548850      0.00693053253426
H   3.75354208679975      8.85103527897216      0.00214659618464
H   5.86995870320703      7.61379483465560     -0.00235777588134
H   -5.78823170750226      7.67630221293400     -0.00202638095293
C   -6.09197395869619      4.99326001364347     -0.00291168518608
C   -6.12866148031747      3.58258016879823     -0.00171050815740
C   -3.66457974004527      3.56418217974434     -0.00463560277484
C   -4.89429820469869      2.86108077590057      0.00453338221034
C   -2.43733499489796      2.84761165708481      0.00719617576166
C   -1.20922785759670      3.54788693497833     -0.00648285103018
C   1.24714157216223      3.53468075142962     -0.00729145743546
C   0.01517603956900      2.83311183930540      0.00439272578912
C   2.46764517244071      2.82128997725533      0.00449278391269
C   3.70254947457969      3.52466015442405     -0.00899517692985
C   6.14498038638375      4.92757236613191     -0.00282626685777
C   6.16658835886151      3.51658447594213     -0.00065971342101
C   4.92460995845939      2.80840792535402      0.00587903281610
H   7.08990550964105      5.46688776622306     -0.00658814770723
H   -7.03104175110130      5.54268795285765     -0.00714490013730
C   -7.33969804112295      2.85841153457957     -0.00333767559888
C   -7.36488195805880      1.47032337158330     -0.00157213747140
C   -4.90350460894690      1.44442681216000     -0.00628840166334
C   -6.13225715261081      0.73993935705394      0.00600164231964
C   -3.67687480051673      0.72669714267312      0.00433931473643
C   -2.44565658606518      1.42964113326212     -0.00597039546461
C   -1.22360068130162      0.71532450163492      0.00545886906656
C   0.00763786931376      1.41738314923765      0.00392452278437
C   1.23121980774686      0.70211669058719     -0.01490206287210
C   2.46082110053113      1.40329203612573      0.00460244601878
C   3.68443025419614      0.68719842821222      0.00377365974158
C   4.91870890153864      1.39173456118907     -0.00862816189375
C   7.36980207796101      2.77948220318441     -0.00242013321349
C   7.38016266612146      1.39121750785509     -0.00087345036788
C   6.13979953912259      0.67411862320065      0.00545489144369
H   -8.27919079934664      3.40711804112415     -0.00763522772059
H   8.31511347147953      3.31811809662368     -0.00663070901292
C   -8.59175593758115      0.72483255304480     -0.00123170985383
C   -8.59902460370342     -0.63263980622873      0.00089141472904
C   -6.13981313911873     -0.67413663715361     -0.00609792660607
C   -7.38018411213749     -1.39126618958160      0.00131813493501
C   -4.91868448025621     -1.39175501803000      0.00624257154343
C   -3.68443829568458     -0.68723731573599     -0.00478966852105
C   -2.46081704024768     -1.40334517882457      0.00575341766833
C   -1.23116201232071     -0.70217386488055     -0.00636696112346
C   -0.00756962538737     -1.41741884941102      0.00108956317991
C   1.22364771588843     -0.71527537726392      0.01109518512883
C   2.44567064933149     -1.42964328900682     -0.00065482763106
C   3.67686670284649     -0.72670743155550     -0.00479541202602
C   6.13224884641929     -0.73997883984993     -0.00632338623858
C   4.90351914550401     -1.44445752054090      0.00751768830159
C   8.59901484869081      0.63260386666793     -0.00101133422380
C   8.59174548810050     -0.72485086719319      0.00072504603735
C   7.36486276438985     -1.47033266560598      0.00049486934466
H   -9.52830597181814      1.27684744919284     -0.00270163681798
H   9.54141097460619      1.17457248844457     -0.00206336648518
C   -7.36983790976868     -2.77954514593389      0.00312634335708
C   -4.92459910905015     -2.80843725734101     -0.00460528907921
C   -6.16662249566744     -3.51665219282533      0.00169655107992
C   -3.70251035970491     -3.52468154912026      0.00571878010666
C   -2.46764698511392     -2.82132596280400     -0.00632585824990
C   -0.01513347410770     -2.83314164539971     -0.00604426974092
C   -1.24712184122656     -3.53473217556300      0.00551968366725
C   1.20924506964357     -3.54791467864352      0.00805871345849
C   2.43733602215464     -2.84764173817541     -0.00608104485234
C   4.89430234377080     -2.86112296828604     -0.00526030478103
C   3.66461525504104     -3.56421984553201      0.00761911515957
C   6.12863901474565     -3.58258405771778      0.00096495711699
C   7.33967266469532     -2.85841330737039      0.00248018319869
H   -9.54144911125902     -1.17456346666430      0.00226083090216
H   9.52826186807155     -1.27691907390448      0.00197485379837
H   -8.31516504384864     -3.31814985321231      0.00729857188773
H   8.27915514249207     -3.40714078989363      0.00681973918158
C   -6.14499418870218     -4.92764727278338      0.00302254913999
C   -3.70678334799751     -4.94126171411716     -0.00679841894792
C   -4.95559005800169     -5.64349397349412      0.00116871569699
C   -2.48612132622665     -5.65478557440947      0.00614125209662
C   -1.25405833548005     -4.95612205000132     -0.00503435388927
C   1.20101257386816     -4.96928038819302     -0.00385322963129
C   -0.03033667441341     -5.66952030313900      0.00398997003238
C   3.65375010132847     -4.98074377541453     -0.00309522988330
C   2.42549269587528     -5.68117463552727      0.00628170066869
C   6.09196561781097     -4.99325796338655      0.00325918379042
C   4.89497644461045     -5.69634842095790      0.00202298796027
H   -7.08989238804069     -5.46699984223871      0.00742531082125
H   7.03105520920009     -5.54265853633254      0.00683896355417
C   -4.92354532219813     -7.07882109967734      0.00061394679214
C   -2.48534208823777     -7.08772807792913     -0.00189594564379
C   -3.75168589177895     -7.76394715763627     -0.00170126671874
C   -0.03794895698805     -7.09946487446944     -0.00168022049625
C   -1.27795610040136     -7.77290438466689     -0.00366491325785
C   2.40944432072629     -7.11402201200282     -0.00081701968533
C   1.19474993715296     -7.78618536556242     -0.00296931056689
C   4.84762105249800     -7.13126211057943      0.00168979497423
C   3.66847160587561     -7.80378799294376     -0.00065863938960
H   -5.86994035041618     -7.61383059804164      0.00215798365757
H   5.78824962538815     -7.67633218931421      0.00281691445618
H   -3.75352693944918     -8.85107156923607     -0.00353718114765
H   -1.28430440589466     -8.86087539249706     -0.00809229711623
H   1.18922157469537     -8.87416062058945     -0.00706194725726
H   3.65854661482387     -8.89086063405326     -0.00231318081200

    units angstrom      # Angstroms are the default
    no_reorient         # Geometry fixed, default
    symmetry c1         # C1 symmetry, default
}

set {
    scf_type DF         # Density fitting, faster than exact integrals
    freeze_core True    # Freeze core electrons
    basis jun-cc-pVDZ   # Jun-cc-pVDZ basis set, recommended for sSAPT0 in https://doi.org/10.1063/1.4867135
}

energy('ssapt0')        # Compute sSAPT0 energy, includes also SAPT0
--------------------------------------------------------------------------

  Memory set to  59.605 GiB by Python driver.

Scratch directory: /tmp/
   => Loading Basis Set <=

    Name: JUN-CC-PVDZ
    Role: ORBITAL
    Keyword: BASIS
    atoms 1                                                   entry B          line   130 file /opt/software/pc2/EB-SW/software/PSI4/1.9-foss-2022a/share/psi4/basis/jun-cc-pvdz.gbs 
    atoms 2-5                                                 entry F          line   266 file /opt/software/pc2/EB-SW/software/PSI4/1.9-foss-2022a/share/psi4/basis/jun-cc-pvdz.gbs 
    atoms 6-23, 30-42, 45-59, 62-78, 81-93, 98-108, 111-119   entry C          line   164 file /opt/software/pc2/EB-SW/software/PSI4/1.9-foss-2022a/share/psi4/basis/jun-cc-pvdz.gbs 
    atoms 24-29, 43-44, 60-61, 79-80, 94-97, 109-110, 120-125 entry H          line    36 file /opt/software/pc2/EB-SW/software/PSI4/1.9-foss-2022a/share/psi4/basis/jun-cc-pvdz.gbs 

   => Loading Basis Set <=

    Name: JUN-CC-PVDZ
    Role: ORBITAL
    Keyword: BASIS
    atoms 1                                                   entry B          line   130 file /opt/software/pc2/EB-SW/software/PSI4/1.9-foss-2022a/share/psi4/basis/jun-cc-pvdz.gbs 
    atoms 2-5                                                 entry F          line   266 file /opt/software/pc2/EB-SW/software/PSI4/1.9-foss-2022a/share/psi4/basis/jun-cc-pvdz.gbs 
    atoms 6-23, 30-42, 45-59, 62-78, 81-93, 98-108, 111-119   entry C          line   164 file /opt/software/pc2/EB-SW/software/PSI4/1.9-foss-2022a/share/psi4/basis/jun-cc-pvdz.gbs 
    atoms 24-29, 43-44, 60-61, 79-80, 94-97, 109-110, 120-125 entry H          line    36 file /opt/software/pc2/EB-SW/software/PSI4/1.9-foss-2022a/share/psi4/basis/jun-cc-pvdz.gbs 


  //>>>>>>>>>>>>>>>>>>>>>>>>>>>>>>>>>>>//
  //              Dimer HF             //
  //<<<<<<<<<<<<<<<<<<<<<<<<<<<<<<<<<<<//

   => Libint2 <=

    Primary   basis highest AM E, G, H:  5, 4, 3
    Auxiliary basis highest AM E, G, H:  6, 5, 4
    Onebody   basis highest AM E, G, H:  6, 5, 4
    Solid Harmonics ordering:            gaussian

*** tstart() called on n2cn0565
*** at Sat Jan 27 12:22:35 2024

   => Loading Basis Set <=

    Name: JUN-CC-PVDZ
    Role: ORBITAL
    Keyword: BASIS
    atoms 1                                                   entry B          line   130 file /opt/software/pc2/EB-SW/software/PSI4/1.9-foss-2022a/share/psi4/basis/jun-cc-pvdz.gbs 
    atoms 2-5                                                 entry F          line   266 file /opt/software/pc2/EB-SW/software/PSI4/1.9-foss-2022a/share/psi4/basis/jun-cc-pvdz.gbs 
    atoms 6-23, 30-42, 45-59, 62-78, 81-93, 98-108, 111-119   entry C          line   164 file /opt/software/pc2/EB-SW/software/PSI4/1.9-foss-2022a/share/psi4/basis/jun-cc-pvdz.gbs 
    atoms 24-29, 43-44, 60-61, 79-80, 94-97, 109-110, 120-125 entry H          line    36 file /opt/software/pc2/EB-SW/software/PSI4/1.9-foss-2022a/share/psi4/basis/jun-cc-pvdz.gbs 


         ---------------------------------------------------------
                                   SCF
               by Justin Turney, Rob Parrish, Andy Simmonett
                          and Daniel G. A. Smith
                              RHF Reference
                       16 Threads,  61035 MiB Core
         ---------------------------------------------------------

  ==> Geometry <==

    Molecular point group: c1
    Full point group: C1

    Geometry (in Angstrom), charge = -1, multiplicity = 1:

       Center              X                  Y                   Z               Mass       
    ------------   -----------------  -----------------  -----------------  -----------------
         B           -0.000050191042     0.000351518223     7.448986735862    11.009305360000
         F           -1.153601191042     0.000062518223     8.264633735862    18.998403162730
         F            1.153656808958    -0.000566481777     8.264633735862    18.998403162730
         F           -0.000023191042    -1.153622481777     6.633352735862    18.998403162730
         F           -0.000023191042     1.153992518223     6.633352735862    18.998403162730
         C           -3.668445455062     7.803766688305    -0.549107222803    12.000000000000
         C           -4.847602910388     7.131256349563    -0.551473797735    12.000000000000
         C           -4.894963490217     5.696344921754    -0.552046708833    12.000000000000
         C           -3.653744869815     4.980744859182    -0.544386267104    12.000000000000
         C           -2.409429312536     7.113995554897    -0.548912880543    12.000000000000
         C           -2.425481535146     5.681136469126    -0.555917769413    12.000000000000
         C           -1.194748207477     7.786158712532    -0.547440700001    12.000000000000
         C            0.037954837895     7.099436163980    -0.549611404306    12.000000000000
         C            0.030328396378     5.669504077927    -0.555094789221    12.000000000000
         C           -1.200988698947     4.969284866138    -0.546125055288    12.000000000000
         C            1.277953634773     7.772873961417    -0.548235555745    12.000000000000
         C            2.485353893683     7.087711403460    -0.550510043650    12.000000000000
         C            2.486124493876     5.654785328463    -0.557447792637    12.000000000000
         C            1.254078728602     4.956092631887    -0.545819851049    12.000000000000
         C            3.751710400364     7.763926669203    -0.550383192269    12.000000000000
         C            4.923561865144     7.078795295213    -0.552439672977    12.000000000000
         C            4.955603080284     5.643461981592    -0.552600085784    12.000000000000
         C            3.706797343163     4.941224726556    -0.547508525615    12.000000000000
         H           -3.658525328800     8.890841937358    -0.547422234553     1.007825032230
         H           -1.189217520798     8.874135605583    -0.543468823559     1.007825032230
         H            1.284290047845     8.860847953711    -0.544076731604     1.007825032230
         H            3.753537895758     8.851049797195    -0.548860667954     1.007825032230
         H            5.869954512165     7.613809352878    -0.553365040020     1.007825032230
         H           -5.788235898544     7.676316731157    -0.553033645091     1.007825032230
         C           -6.091978149738     4.993274531866    -0.553918949324    12.000000000000
         C           -6.128665671359     3.582594687021    -0.552717772296    12.000000000000
         C           -3.664583931087     3.564196697967    -0.555642866913    12.000000000000
         C           -4.894302395740     2.861095294123    -0.546473881928    12.000000000000
         C           -2.437339185940     2.847626175307    -0.543811088377    12.000000000000
         C           -1.209232048638     3.547901453201    -0.557490115168    12.000000000000
         C            1.247137381121     3.534695269652    -0.558298721574    12.000000000000
         C            0.015171848527     2.833126357528    -0.546614538349    12.000000000000
         C            2.467640981399     2.821304495478    -0.546514480226    12.000000000000
         C            3.702545283538     3.524674672647    -0.560002441068    12.000000000000
         C            6.144976195342     4.927586884354    -0.553833530996    12.000000000000
         C            6.166584167820     3.516598994165    -0.551666977559    12.000000000000
         C            4.924605767418     2.808422443577    -0.545128231322    12.000000000000
         H            7.089901318599     5.466902284446    -0.557595411845     1.007825032230
         H           -7.031045942143     5.542702471080    -0.558152164276     1.007825032230
         C           -7.339702232165     2.858426052802    -0.554344939737    12.000000000000
         C           -7.364886149100     1.470337889806    -0.552579401610    12.000000000000
         C           -4.903508799989     1.444441330383    -0.557295665802    12.000000000000
         C           -6.132261343652     0.739953875277    -0.545005621819    12.000000000000
         C           -3.676878991558     0.726711660896    -0.546667949402    12.000000000000
         C           -2.445660777107     1.429655651485    -0.556977659603    12.000000000000
         C           -1.223604872343     0.715339019858    -0.545548395072    12.000000000000
         C            0.007633678272     1.417397667460    -0.547082741354    12.000000000000
         C            1.231215616705     0.702131208810    -0.565909327010    12.000000000000
         C            2.460816909489     1.403306554348    -0.546404818119    12.000000000000
         C            3.684426063155     0.687212946435    -0.547233604397    12.000000000000
         C            4.918704710497     1.391749079412    -0.559635426032    12.000000000000
         C            7.369797886919     2.779496721407    -0.553427397352    12.000000000000
         C            7.380158475080     1.391232026078    -0.551880714506    12.000000000000
         C            6.139795348081     0.674133141423    -0.545552372695    12.000000000000
         H           -8.279194990388     3.407132559347    -0.558642491859     1.007825032230
         H            8.315109280438     3.318132614846    -0.557637973151     1.007825032230
         C           -8.591760128623     0.724847071267    -0.552238973992    12.000000000000
         C           -8.599028794745    -0.632625288006    -0.550115849409    12.000000000000
         C           -6.139817330160    -0.674122118931    -0.557105190744    12.000000000000
         C           -7.380188303179    -1.391251671359    -0.549689129203    12.000000000000
         C           -4.918688671298    -1.391740499807    -0.544764692595    12.000000000000
         C           -3.684442486726    -0.687222797513    -0.555796932659    12.000000000000
         C           -2.460821231289    -1.403330660602    -0.545253846470    12.000000000000
         C           -1.231166203362    -0.702159346658    -0.557374225262    12.000000000000
         C           -0.007573816429    -1.417404331188    -0.549917700958    12.000000000000
         C            1.223643524847    -0.715260859041    -0.539912079009    12.000000000000
         C            2.445666458290    -1.429628770784    -0.551662091769    12.000000000000
         C            3.676862511805    -0.726692913333    -0.555802676164    12.000000000000
         C            6.132244655378    -0.739964321627    -0.557330650377    12.000000000000
         C            4.903514954462    -1.444443002318    -0.543489575837    12.000000000000
         C            8.599010657649     0.632618384891    -0.552018598362    12.000000000000
         C            8.591741297059    -0.724836348971    -0.550282218101    12.000000000000
         C            7.364858573348    -1.470318147383    -0.550512394794    12.000000000000
         H           -9.528310162860     1.276861967415    -0.553708900956     1.007825032230
         H            9.541406783565     1.174587006667    -0.553070630623     1.007825032230
         C           -7.369842100810    -2.779530627711    -0.547880920781    12.000000000000
         C           -4.924603300092    -2.808422739118    -0.555612553217    12.000000000000
         C           -6.166626686709    -3.516637674603    -0.549310713058    12.000000000000
         C           -3.702514550747    -3.524667030898    -0.545288484032    12.000000000000
         C           -2.467651176156    -2.821311444581    -0.557333122388    12.000000000000
         C           -0.015137665149    -2.833127127177    -0.557051533879    12.000000000000
         C           -1.247126032268    -3.534717657340    -0.545487580471    12.000000000000
         C            1.209240878602    -3.547900160421    -0.542948550680    12.000000000000
         C            2.437331831113    -2.847627219953    -0.557088308991    12.000000000000
         C            4.894298152729    -2.861108450063    -0.556267568919    12.000000000000
         C            3.664611063999    -3.564205327309    -0.543388148979    12.000000000000
         C            6.128634823704    -3.582569539495    -0.550042307021    12.000000000000
         C            7.339668473654    -2.858398789148    -0.548527080940    12.000000000000
         H           -9.541453302301    -1.174548948442    -0.548746433236     1.007825032230
         H            9.528257677030    -1.276904555682    -0.549032410340     1.007825032230
         H           -8.315169234890    -3.318135334990    -0.543708692251     1.007825032230
         H            8.279150951450    -3.407126271671    -0.544187524957     1.007825032230
         C           -6.144998379744    -4.927632754561    -0.547984714998    12.000000000000
         C           -3.706787539039    -4.941247195895    -0.557805683086    12.000000000000
         C           -4.955594249043    -5.643479455272    -0.549838548441    12.000000000000
         C           -2.486125517268    -5.654771056187    -0.544866012042    12.000000000000
         C           -1.254062526522    -4.956107531779    -0.556041618028    12.000000000000
         C            1.201008382827    -4.969265869970    -0.554860493770    12.000000000000
         C           -0.030340865455    -5.669505784916    -0.547017294106    12.000000000000
         C            3.653745910287    -4.980729257192    -0.554102494022    12.000000000000
         C            2.425488504834    -5.681160117305    -0.544725563470    12.000000000000
         C            6.091961426769    -4.993243445164    -0.547748080348    12.000000000000
         C            4.894972253569    -5.696333902735    -0.548984276178    12.000000000000
         H           -7.089896579082    -5.466985324016    -0.543581953317     1.007825032230
         H            7.031051018158    -5.542644018110    -0.544168300584     1.007825032230
         C           -4.923549513240    -7.078806581455    -0.550393317346    12.000000000000
         C           -2.485346279279    -7.087713559707    -0.552903209782    12.000000000000
         C           -3.751690082821    -7.763932639414    -0.552708530857    12.000000000000
         C           -0.037953148030    -7.099450356247    -0.552687484634    12.000000000000
         C           -1.277960291443    -7.772889866444    -0.554672177396    12.000000000000
         C            2.409440129685    -7.114007493780    -0.551824283824    12.000000000000
         C            1.194745746111    -7.786170847340    -0.553976574705    12.000000000000
         C            4.847616861456    -7.131247592357    -0.549317469164    12.000000000000
         C            3.668467414834    -7.803773474721    -0.551665903528    12.000000000000
         H           -5.869944541458    -7.613816079819    -0.548849280481     1.007825032230
         H            5.788245434347    -7.676317671092    -0.548190349682     1.007825032230
         H           -3.753531130491    -8.851057051013    -0.554544445286     1.007825032230
         H           -1.284308596936    -8.860860874274    -0.559099561254     1.007825032230
         H            1.189217383654    -8.874146102367    -0.558069211396     1.007825032230
         H            3.658542423782    -8.890846115831    -0.553320444950     1.007825032230

  Running in c1 symmetry.

  Rotational constants: A =      0.00058  B =      0.00058  C =      0.00035 [cm^-1]
  Rotational constants: A =     17.31814  B =     17.31558  C =     10.55117 [MHz]
  Nuclear repulsion = 17083.864596108920523

  Charge       = -1
  Multiplicity = 1
  Electrons    = 642
  Nalpha       = 321
  Nbeta        = 321

  ==> Algorithm <==

  SCF Algorithm Type is DF.
  DIIS enabled.
  MOM disabled.
  Fractional occupation disabled.
  Guess Type is SAD.
  Energy threshold   = 1.00e-08
  Density threshold  = 1.00e-08
  Integral threshold = 1.00e-12

  ==> Primary Basis <==

  Basis Set: JUN-CC-PVDZ
    Blend: JUN-CC-PVDZ
    Number of shells: 880
    Number of basis functions: 1938
    Number of Cartesian functions: 2039
    Spherical Harmonics?: true
    Max angular momentum: 2

   => Loading Basis Set <=

    Name: (JUN-CC-PVDZ AUX)
    Role: JKFIT
    Keyword: DF_BASIS_SCF
    atoms 1                                                   entry B          line    90 file /opt/software/pc2/EB-SW/software/PSI4/1.9-foss-2022a/share/psi4/basis/jun-cc-pvdz-jkfit.gbs 
    atoms 2-5                                                 entry F          line   314 file /opt/software/pc2/EB-SW/software/PSI4/1.9-foss-2022a/share/psi4/basis/jun-cc-pvdz-jkfit.gbs 
    atoms 6-23, 30-42, 45-59, 62-78, 81-93, 98-108, 111-119   entry C          line   146 file /opt/software/pc2/EB-SW/software/PSI4/1.9-foss-2022a/share/psi4/basis/jun-cc-pvdz-jkfit.gbs 
    atoms 24-29, 43-44, 60-61, 79-80, 94-97, 109-110, 120-125 entry H          line    70 file /opt/software/pc2/EB-SW/software/PSI4/1.9-foss-2022a/share/psi4/basis/jun-cc-pvdz-jkfit.gbs 

  ==> Integral Setup <==

  ==> DiskDFJK: Density-Fitted J/K Matrices <==

    J tasked:                  Yes
    K tasked:                  Yes
    wK tasked:                  No
    OpenMP threads:             16
    Integrals threads:          16
    Memory [MiB]:            45776
    Algorithm:                Disk
    Integral Cache:           SAVE
    Schwarz Cutoff:          1E-12
    Fitting Condition:       1E-10

   => Auxiliary Basis Set <=

  Basis Set: (JUN-CC-PVDZ AUX)
    Blend: JUN-CC-PVDZ-JKFIT
    Number of shells: 2943
    Number of basis functions: 8531
    Number of Cartesian functions: 9791
    Spherical Harmonics?: true
    Max angular momentum: 3

  Minimum eigenvalue in the overlap matrix is 9.0508093700E-11.
  Reciprocal condition number of the overlap matrix is 3.9693154453E-12.
    Using canonical orthogonalization.
  Overall, 37 of 1938 possible MOs eliminated.


  ==> Pre-Iterations <==

  SCF Guess: Superposition of Atomic Densities via on-the-fly atomic UHF (no occupation information).

   -------------------------
    Irrep   Nso     Nmo    
   -------------------------
     A       1938    1901 
   -------------------------
    Total    1938    1901
   -------------------------

  ==> Iterations <==

                           Total Energy        Delta E     RMS |[F,P]|

   @DF-RHF iter SAD: -4084.99833783281838   -4.08500e+03   0.00000e+00 
   @DF-RHF iter   1: -4071.52953826774865    1.34688e+01   7.86964e-04 DIIS/ADIIS
   @DF-RHF iter   2: -4072.91868509860888   -1.38915e+00   3.06302e-04 DIIS/ADIIS
   @DF-RHF iter   3: -4073.07906720834990   -1.60382e-01   1.01524e-04 DIIS/ADIIS
   @DF-RHF iter   4: -4073.10045381200462   -2.13866e-02   3.67364e-05 DIIS
   @DF-RHF iter   5: -4073.10362065928894   -3.16685e-03   1.08522e-05 DIIS
   @DF-RHF iter   6: -4073.10404474577945   -4.24086e-04   4.21477e-06 DIIS
   @DF-RHF iter   7: -4073.10422050959460   -1.75764e-04   2.21028e-06 DIIS
   @DF-RHF iter   8: -4073.10427352140368   -5.30118e-05   1.18310e-06 DIIS
   @DF-RHF iter   9: -4073.10429020528045   -1.66839e-05   3.72363e-07 DIIS
   @DF-RHF iter  10: -4073.10429123990571   -1.03463e-06   1.70157e-07 DIIS
   @DF-RHF iter  11: -4073.10429141438863   -1.74483e-07   6.14753e-08 DIIS
   @DF-RHF iter  12: -4073.10429144800946   -3.36208e-08   3.11575e-08 DIIS
   @DF-RHF iter  13: -4073.10429145523403   -7.22457e-09   1.02969e-08 DIIS
   @DF-RHF iter  14: -4073.10429145582339   -5.89353e-10   4.36016e-09 DIIS
  Energy and wave function converged.


  ==> Post-Iterations <==

    Orbital Energies [Eh]
    ---------------------

    Doubly Occupied:                                                      

       1A    -26.064396     2A    -26.064361     3A    -26.064102  
       4A    -26.063923     5A    -11.213818     6A    -11.213810  
       7A    -11.213798     8A    -11.213791     9A    -11.213779  
      10A    -11.213775    11A    -11.213770    12A    -11.213763  
      13A    -11.213758    14A    -11.213753    15A    -11.213740  
      16A    -11.213734    17A    -11.213673    18A    -11.213666  
      19A    -11.213664    20A    -11.213655    21A    -11.213644  
      22A    -11.213636    23A    -11.212932    24A    -11.212904  
      25A    -11.212878    26A    -11.212801    27A    -11.212797  
      28A    -11.212699    29A    -11.212667    30A    -11.212573  
      31A    -11.212562    32A    -11.212488    33A    -11.212461  
      34A    -11.212434    35A    -11.212327    36A    -11.212208  
      37A    -11.212186    38A    -11.212022    39A    -11.212018  
      40A    -11.211905    41A    -11.211820    42A    -11.211782  
      43A    -11.211620    44A    -11.211606    45A    -11.211553  
      46A    -11.211543    47A    -11.211138    48A    -11.211136  
      49A    -11.211114    50A    -11.211013    51A    -11.210991  
      52A    -11.210973    53A    -11.210942    54A    -11.210931  
      55A    -11.210834    56A    -11.210646    57A    -11.210630  
      58A    -11.210559    59A    -11.210508    60A    -11.210407  
      61A    -11.210392    62A    -11.210364    63A    -11.210360  
      64A    -11.210338    65A    -11.210246    66A    -11.210237  
      67A    -11.210175    68A    -11.210082    69A    -11.210038  
      70A    -11.210023    71A    -11.210017    72A    -11.210003  
      73A    -11.209936    74A    -11.209890    75A    -11.209869  
      76A    -11.209568    77A    -11.208599    78A    -11.208589  
      79A    -11.208559    80A    -11.208557    81A    -11.208554  
      82A    -11.208551    83A    -11.207137    84A    -11.207128  
      85A    -11.207097    86A    -11.207095    87A    -11.207093  
      88A    -11.207090    89A    -11.206142    90A    -11.206129  
      91A    -11.206110    92A    -11.206083    93A    -11.206080  
      94A    -11.206056    95A    -11.206047    96A    -11.206035  
      97A    -11.206020    98A    -11.205988    99A    -11.205986  
     100A    -11.205967   101A     -7.536487   102A     -1.408150  
     103A     -1.348560   104A     -1.348380   105A     -1.348125  
     106A     -1.203413   107A     -1.189404   108A     -1.189372  
     109A     -1.171447   110A     -1.171444   111A     -1.165692  
     112A     -1.152581   113A     -1.146820   114A     -1.138640  
     115A     -1.138615   116A     -1.125459   117A     -1.125456  
     118A     -1.106324   119A     -1.106318   120A     -1.103374  
     121A     -1.096595   122A     -1.096594   123A     -1.079789  
     124A     -1.065466   125A     -1.065094   126A     -1.063641  
     127A     -1.063273   128A     -1.063265   129A     -1.039759  
     130A     -1.039753   131A     -1.028978   132A     -1.028976  
     133A     -1.018621   134A     -1.018602   135A     -1.015770  
     136A     -0.998314   137A     -0.998305   138A     -0.992030  
     139A     -0.990750   140A     -0.990744   141A     -0.976022  
     142A     -0.971594   143A     -0.971558   144A     -0.958986  
     145A     -0.957856   146A     -0.955256   147A     -0.951606  
     148A     -0.951568   149A     -0.943338   150A     -0.922226  
     151A     -0.922190   152A     -0.907693   153A     -0.907645  
     154A     -0.857925   155A     -0.857882   156A     -0.856147  
     157A     -0.856099   158A     -0.854586   159A     -0.842808  
     160A     -0.842741   161A     -0.841147   162A     -0.841080  
     163A     -0.840517   164A     -0.824282   165A     -0.821898  
     166A     -0.803504   167A     -0.798889   168A     -0.798853  
     169A     -0.796413   170A     -0.794186   171A     -0.786232  
     172A     -0.786216   173A     -0.780480   174A     -0.780479  
     175A     -0.736864   176A     -0.736850   177A     -0.734653  
     178A     -0.734612   179A     -0.733811   180A     -0.733784  
     181A     -0.733086   182A     -0.718468   183A     -0.711559  
     184A     -0.701810   185A     -0.685819   186A     -0.678626  
     187A     -0.678617   188A     -0.676606   189A     -0.676056  
     190A     -0.676053   191A     -0.669445   192A     -0.664958  
     193A     -0.664947   194A     -0.651614   195A     -0.651609  
     196A     -0.637953   197A     -0.637949   198A     -0.637291  
     199A     -0.633906   200A     -0.633895   201A     -0.630524  
     202A     -0.605818   203A     -0.602830   204A     -0.602801  
     205A     -0.601635   206A     -0.601030   207A     -0.601003  
     208A     -0.599430   209A     -0.592317   210A     -0.592305  
     211A     -0.591954   212A     -0.591111   213A     -0.587546  
     214A     -0.587524   215A     -0.580812   216A     -0.567578  
     217A     -0.567555   218A     -0.566621   219A     -0.560729  
     220A     -0.560723   221A     -0.550546   222A     -0.549867  
     223A     -0.549849   224A     -0.549589   225A     -0.549163  
     226A     -0.549054   227A     -0.547158   228A     -0.547146  
     229A     -0.546704   230A     -0.544863   231A     -0.543546  
     232A     -0.543540   233A     -0.538267   234A     -0.530541  
     235A     -0.530540   236A     -0.526502   237A     -0.526499  
     238A     -0.525676   239A     -0.525608   240A     -0.525517  
     241A     -0.525354   242A     -0.519688   243A     -0.519661  
     244A     -0.519287   245A     -0.518388   246A     -0.518366  
     247A     -0.513681   248A     -0.510924   249A     -0.510192  
     250A     -0.510188   251A     -0.505890   252A     -0.502089  
     253A     -0.500530   254A     -0.495415   255A     -0.485597  
     256A     -0.485578   257A     -0.485062   258A     -0.485019  
     259A     -0.480066   260A     -0.480054   261A     -0.478805  
     262A     -0.468923   263A     -0.468874   264A     -0.467096  
     265A     -0.467091   266A     -0.461899   267A     -0.461883  
     268A     -0.449690   269A     -0.447963   270A     -0.447954  
     271A     -0.444492   272A     -0.444454   273A     -0.444229  
     274A     -0.444211   275A     -0.439683   276A     -0.433709  
     277A     -0.429402   278A     -0.429401   279A     -0.425920  
     280A     -0.420452   281A     -0.418010   282A     -0.418001  
     283A     -0.409916   284A     -0.405645   285A     -0.405641  
     286A     -0.405544   287A     -0.397237   288A     -0.397168  
     289A     -0.391556   290A     -0.391235   291A     -0.391176  
     292A     -0.386896   293A     -0.385982   294A     -0.382252  
     295A     -0.382119   296A     -0.382044   297A     -0.358569  
     298A     -0.358555   299A     -0.337973   300A     -0.337970  
     301A     -0.337011   302A     -0.336979   303A     -0.334172  
     304A     -0.305665   305A     -0.305647   306A     -0.301973  
     307A     -0.287650   308A     -0.284946   309A     -0.284926  
     310A     -0.284836   311A     -0.284784   312A     -0.257476  
     313A     -0.252462   314A     -0.252451   315A     -0.252407  
     316A     -0.237722   317A     -0.209270   318A     -0.204098  
     319A     -0.204058   320A     -0.155722   321A     -0.155650  

    Virtual:                                                              

     322A      0.036947   323A      0.037046   324A      0.084451  
     325A      0.084529   326A      0.085404   327A      0.085691  
     328A      0.085714   329A      0.086568   330A      0.088216  
     331A      0.088276   332A      0.092930   333A      0.096274  
     334A      0.101722   335A      0.101731   336A      0.112404  
     337A      0.113000   338A      0.113066   339A      0.115313  
     340A      0.119372   341A      0.119433   342A      0.122185  
     343A      0.123092   344A      0.123286   345A      0.123369  
     346A      0.125406   347A      0.125776   348A      0.125913  
     349A      0.128180   350A      0.131723   351A      0.132025  
     352A      0.132115   353A      0.136297   354A      0.136313  
     355A      0.137620   356A      0.140368   357A      0.140415  
     358A      0.140601   359A      0.147793   360A      0.147906  
     361A      0.148140   362A      0.149482   363A      0.152228  
     364A      0.154683   365A      0.154720   366A      0.154736  
     367A      0.154848   368A      0.157612   369A      0.157748  
     370A      0.159663   371A      0.159700   372A      0.159819  
     373A      0.160163   374A      0.160204   375A      0.167472  
     376A      0.167692   377A      0.167863   378A      0.171035  
     379A      0.171705   380A      0.174943   381A      0.175205  
     382A      0.180520   383A      0.181544   384A      0.181568  
     385A      0.185849   386A      0.186478   387A      0.186731  
     388A      0.187515   389A      0.187546   390A      0.194094  
     391A      0.194172   392A      0.197148   393A      0.197237  
     394A      0.197830   395A      0.198252   396A      0.199822  
     397A      0.200000   398A      0.201926   399A      0.202754  
     400A      0.203160   401A      0.205505   402A      0.205747  
     403A      0.205843   404A      0.206151   405A      0.206981  
     406A      0.210594   407A      0.210952   408A      0.212417  
     409A      0.212481   410A      0.213627   411A      0.215554  
     412A      0.215595   413A      0.219696   414A      0.220593  
     415A      0.223938   416A      0.223948   417A      0.229638  
     418A      0.229692   419A      0.232337   420A      0.232885  
     421A      0.232998   422A      0.233598   423A      0.233892  
     424A      0.234426   425A      0.238199   426A      0.238697  
     427A      0.238806   428A      0.239728   429A      0.240090  
     430A      0.244767   431A      0.245931   432A      0.246006  
     433A      0.246965   434A      0.247137   435A      0.248017  
     436A      0.248096   437A      0.248504   438A      0.251649  
     439A      0.256216   440A      0.256262   441A      0.256805  
     442A      0.256905   443A      0.257503   444A      0.257775  
     445A      0.259464   446A      0.261560   447A      0.262116  
     448A      0.262141   449A      0.262922   450A      0.263015  
     451A      0.265183   452A      0.265216   453A      0.265602  
     454A      0.265615   455A      0.267365   456A      0.267381  
     457A      0.269084   458A      0.271309   459A      0.272982  
     460A      0.273130   461A      0.276651   462A      0.278756  
     463A      0.280300   464A      0.280394   465A      0.280972  
     466A      0.282191   467A      0.283861   468A      0.283867  
     469A      0.285437   470A      0.285571   471A      0.286734  
     472A      0.289618   473A      0.292384   474A      0.293475  
     475A      0.294047   476A      0.296993   477A      0.297465  
     478A      0.297715   479A      0.300067   480A      0.300136  
     481A      0.302331   482A      0.304178   483A      0.304906  
     484A      0.305314   485A      0.305367   486A      0.305874  
     487A      0.308111   488A      0.308134   489A      0.312126  
     490A      0.312181   491A      0.312576   492A      0.313193  
     493A      0.313349   494A      0.317489   495A      0.317534  
     496A      0.322777   497A      0.322924   498A      0.324796  
     499A      0.324846   500A      0.326389   501A      0.326751  
     502A      0.328507   503A      0.329836   504A      0.330093  
     505A      0.330801   506A      0.330973   507A      0.333782  
     508A      0.333905   509A      0.334698   510A      0.337746  
     511A      0.338094   512A      0.340982   513A      0.342258  
     514A      0.342986   515A      0.344474   516A      0.345618  
     517A      0.345682   518A      0.349528   519A      0.350383  
     520A      0.350529   521A      0.351828   522A      0.351951  
     523A      0.352910   524A      0.353594   525A      0.354241  
     526A      0.354324   527A      0.354761   528A      0.357414  
     529A      0.357481   530A      0.358597   531A      0.358691  
     532A      0.361291   533A      0.361357   534A      0.362687  
     535A      0.366093   536A      0.366857   537A      0.367380  
     538A      0.369403   539A      0.369906   540A      0.371292  
     541A      0.372708   542A      0.372895   543A      0.372910  
     544A      0.374495   545A      0.375021   546A      0.375323  
     547A      0.376151   548A      0.376318   549A      0.376691  
     550A      0.376921   551A      0.379428   552A      0.381814  
     553A      0.382899   554A      0.384889   555A      0.385115  
     556A      0.387864   557A      0.387972   558A      0.388057  
     559A      0.390441   560A      0.390583   561A      0.391109  
     562A      0.391362   563A      0.394176   564A      0.395086  
     565A      0.396245   566A      0.398330   567A      0.398759  
     568A      0.399214   569A      0.400565   570A      0.401451  
     571A      0.402134   572A      0.402409   573A      0.403570  
     574A      0.404241   575A      0.405368   576A      0.407539  
     577A      0.409858   578A      0.410774   579A      0.411195  
     580A      0.412935   581A      0.413282   582A      0.413491  
     583A      0.416733   584A      0.417208   585A      0.418223  
     586A      0.421420   587A      0.424146   588A      0.424399  
     589A      0.424978   590A      0.426000   591A      0.426249  
     592A      0.428851   593A      0.429996   594A      0.432351  
     595A      0.432873   596A      0.433028   597A      0.433543  
     598A      0.433654   599A      0.437222   600A      0.437522  
     601A      0.437591   602A      0.439434   603A      0.439556  
     604A      0.439967   605A      0.442940   606A      0.443499  
     607A      0.443719   608A      0.444635   609A      0.444928  
     610A      0.445439   611A      0.446686   612A      0.447018  
     613A      0.447942   614A      0.448500   615A      0.448889  
     616A      0.450337   617A      0.452809   618A      0.453260  
     619A      0.453341   620A      0.453986   621A      0.454280  
     622A      0.455208   623A      0.457528   624A      0.457699  
     625A      0.457776   626A      0.457934   627A      0.459155  
     628A      0.461031   629A      0.461553   630A      0.462007  
     631A      0.462110   632A      0.462238   633A      0.462315  
     634A      0.464469   635A      0.464911   636A      0.465401  
     637A      0.465649   638A      0.465888   639A      0.468814  
     640A      0.468848   641A      0.469227   642A      0.470076  
     643A      0.471193   644A      0.473690   645A      0.474091  
     646A      0.475133   647A      0.476127   648A      0.476206  
     649A      0.477554   650A      0.478062   651A      0.480805  
     652A      0.481205   653A      0.481295   654A      0.481672  
     655A      0.482063   656A      0.484192   657A      0.485093  
     658A      0.485766   659A      0.486105   660A      0.488407  
     661A      0.488823   662A      0.489065   663A      0.490001  
     664A      0.491237   665A      0.491389   666A      0.494061  
     667A      0.496017   668A      0.496464   669A      0.498277  
     670A      0.500897   671A      0.500983   672A      0.501997  
     673A      0.502319   674A      0.502689   675A      0.502850  
     676A      0.502925   677A      0.506160   678A      0.506876  
     679A      0.507282   680A      0.508366   681A      0.509279  
     682A      0.509807   683A      0.509957   684A      0.514349  
     685A      0.514548   686A      0.514788   687A      0.516321  
     688A      0.518626   689A      0.520575   690A      0.521178  
     691A      0.521409   692A      0.522576   693A      0.522964  
     694A      0.524481   695A      0.524510   696A      0.526641  
     697A      0.528171   698A      0.529784   699A      0.530130  
     700A      0.530617   701A      0.531125   702A      0.531387  
     703A      0.532353   704A      0.533354   705A      0.533363  
     706A      0.534154   707A      0.534750   708A      0.534965  
     709A      0.536360   710A      0.537696   711A      0.538833  
     712A      0.541488   713A      0.542514   714A      0.542997  
     715A      0.543820   716A      0.544030   717A      0.544125  
     718A      0.544268   719A      0.545605   720A      0.547860  
     721A      0.550516   722A      0.550598   723A      0.552703  
     724A      0.553244   725A      0.556061   726A      0.556617  
     727A      0.557021   728A      0.558118   729A      0.558718  
     730A      0.562023   731A      0.563009   732A      0.563454  
     733A      0.565277   734A      0.565999   735A      0.566264  
     736A      0.567469   737A      0.569637   738A      0.572507  
     739A      0.572776   740A      0.572823   741A      0.573498  
     742A      0.575645   743A      0.577041   744A      0.581606  
     745A      0.583544   746A      0.585112   747A      0.585158  
     748A      0.585624   749A      0.585730   750A      0.590550  
     751A      0.592322   752A      0.597734   753A      0.598215  
     754A      0.600634   755A      0.605442   756A      0.607432  
     757A      0.607587   758A      0.609137   759A      0.612295  
     760A      0.612448   761A      0.613100   762A      0.615677  
     763A      0.615738   764A      0.620610   765A      0.622302  
     766A      0.623505   767A      0.623624   768A      0.625649  
     769A      0.627926   770A      0.629636   771A      0.631788  
     772A      0.632834   773A      0.633118   774A      0.634011  
     775A      0.634887   776A      0.635356   777A      0.636565  
     778A      0.636815   779A      0.639485   780A      0.639849  
     781A      0.645363   782A      0.646524   783A      0.647269  
     784A      0.648901   785A      0.652783   786A      0.653370  
     787A      0.654183   788A      0.654787   789A      0.654996  
     790A      0.655768   791A      0.662329   792A      0.666996  
     793A      0.668303   794A      0.668597   795A      0.669573  
     796A      0.669949   797A      0.673632   798A      0.674752  
     799A      0.679378   800A      0.680404   801A      0.682233  
     802A      0.682576   803A      0.685330   804A      0.691719  
     805A      0.692286   806A      0.695230   807A      0.698934  
     808A      0.699954   809A      0.701753   810A      0.706592  
     811A      0.706796   812A      0.709249   813A      0.709406  
     814A      0.709493   815A      0.712299   816A      0.712395  
     817A      0.715728   818A      0.721183   819A      0.721312  
     820A      0.724822   821A      0.727902   822A      0.733506  
     823A      0.734129   824A      0.737312   825A      0.738756  
     826A      0.738939   827A      0.739590   828A      0.740393  
     829A      0.741068   830A      0.742151   831A      0.742323  
     832A      0.742421   833A      0.745854   834A      0.751766  
     835A      0.753052   836A      0.753205   837A      0.759981  
     838A      0.760034   839A      0.760377   840A      0.762417  
     841A      0.770578   842A      0.771739   843A      0.778098  
     844A      0.780546   845A      0.781878   846A      0.787748  
     847A      0.790297   848A      0.790707   849A      0.795629  
     850A      0.796338   851A      0.796458   852A      0.800763  
     853A      0.800829   854A      0.803334   855A      0.821086  
     856A      0.828025   857A      0.831133   858A      0.831899  
     859A      0.836850   860A      0.836887   861A      0.840982  
     862A      0.842595   863A      0.844700   864A      0.849319  
     865A      0.849632   866A      0.852815   867A      0.853050  
     868A      0.854107   869A      0.855296   870A      0.858179  
     871A      0.861958   872A      0.862635   873A      0.863292  
     874A      0.864387   875A      0.865599   876A      0.865938  
     877A      0.874669   878A      0.875942   879A      0.876407  
     880A      0.882401   881A      0.883499   882A      0.884297  
     883A      0.884945   884A      0.885742   885A      0.886259  
     886A      0.890569   887A      0.891383   888A      0.891788  
     889A      0.893040   890A      0.896064   891A      0.900041  
     892A      0.901334   893A      0.904964   894A      0.905943  
     895A      0.908392   896A      0.908976   897A      0.909671  
     898A      0.911991   899A      0.913689   900A      0.915604  
     901A      0.915910   902A      0.917982   903A      0.919005  
     904A      0.919332   905A      0.919965   906A      0.922475  
     907A      0.923266   908A      0.924663   909A      0.924890  
     910A      0.926153   911A      0.927897   912A      0.929458  
     913A      0.931888   914A      0.932563   915A      0.933075  
     916A      0.935892   917A      0.938093   918A      0.939370  
     919A      0.940853   920A      0.941489   921A      0.942158  
     922A      0.944809   923A      0.945150   924A      0.947945  
     925A      0.949270   926A      0.952608   927A      0.953417  
     928A      0.954472   929A      0.959922   930A      0.962003  
     931A      0.966408   932A      0.966959   933A      0.967415  
     934A      0.967877   935A      0.968825   936A      0.968943  
     937A      0.968995   938A      0.969489   939A      0.974392  
     940A      0.975917   941A      0.978597   942A      0.980494  
     943A      0.980804   944A      0.981302   945A      0.982435  
     946A      0.985629   947A      0.986433   948A      0.987619  
     949A      0.992650   950A      0.993331   951A      0.996565  
     952A      0.997273   953A      0.997491   954A      0.998613  
     955A      0.999240   956A      0.999307   957A      1.001266  
     958A      1.003573   959A      1.003891   960A      1.004284  
     961A      1.004426   962A      1.004714   963A      1.009602  
     964A      1.012428   965A      1.014177   966A      1.015472  
     967A      1.015916   968A      1.020044   969A      1.023191  
     970A      1.030542   971A      1.031002   972A      1.031948  
     973A      1.036122   974A      1.040456   975A      1.041497  
     976A      1.041661   977A      1.042332   978A      1.047958  
     979A      1.050314   980A      1.050362   981A      1.052723  
     982A      1.053129   983A      1.053439   984A      1.054470  
     985A      1.054570   986A      1.062157   987A      1.062197  
     988A      1.063947   989A      1.066763   990A      1.066848  
     991A      1.069426   992A      1.069503   993A      1.069518  
     994A      1.077665   995A      1.079010   996A      1.079303  
     997A      1.079731   998A      1.084363   999A      1.084904  
    1000A      1.089142  1001A      1.093278  1002A      1.093453  
    1003A      1.094803  1004A      1.095545  1005A      1.096060  
    1006A      1.097014  1007A      1.097766  1008A      1.098093  
    1009A      1.099157  1010A      1.101335  1011A      1.101712  
    1012A      1.105391  1013A      1.105406  1014A      1.108970  
    1015A      1.109231  1016A      1.109294  1017A      1.112618  
    1018A      1.113220  1019A      1.115507  1020A      1.117015  
    1021A      1.117187  1022A      1.117357  1023A      1.117973  
    1024A      1.118503  1025A      1.119476  1026A      1.120418  
    1027A      1.121285  1028A      1.121581  1029A      1.122134  
    1030A      1.122216  1031A      1.122655  1032A      1.123043  
    1033A      1.124016  1034A      1.125767  1035A      1.125831  
    1036A      1.126805  1037A      1.127397  1038A      1.128326  
    1039A      1.129060  1040A      1.129745  1041A      1.130134  
    1042A      1.130481  1043A      1.130838  1044A      1.131533  
    1045A      1.132088  1046A      1.132621  1047A      1.132954  
    1048A      1.133542  1049A      1.134090  1050A      1.134100  
    1051A      1.134481  1052A      1.136939  1053A      1.137410  
    1054A      1.139057  1055A      1.142748  1056A      1.145468  
    1057A      1.145943  1058A      1.147048  1059A      1.149292  
    1060A      1.149609  1061A      1.150560  1062A      1.150849  
    1063A      1.150997  1064A      1.153158  1065A      1.159274  
    1066A      1.160226  1067A      1.163676  1068A      1.170124  
    1069A      1.171378  1070A      1.171950  1071A      1.172862  
    1072A      1.178373  1073A      1.179161  1074A      1.179541  
    1075A      1.181394  1076A      1.181977  1077A      1.182501  
    1078A      1.185088  1079A      1.187244  1080A      1.187801  
    1081A      1.190278  1082A      1.190892  1083A      1.191746  
    1084A      1.194570  1085A      1.197491  1086A      1.198566  
    1087A      1.200184  1088A      1.200367  1089A      1.201655  
    1090A      1.203030  1091A      1.206090  1092A      1.206197  
    1093A      1.210811  1094A      1.213876  1095A      1.214924  
    1096A      1.217860  1097A      1.219692  1098A      1.220462  
    1099A      1.225576  1100A      1.225822  1101A      1.230017  
    1102A      1.234053  1103A      1.235768  1104A      1.236986  
    1105A      1.237456  1106A      1.237829  1107A      1.242204  
    1108A      1.243308  1109A      1.251646  1110A      1.252428  
    1111A      1.252598  1112A      1.252733  1113A      1.252844  
    1114A      1.259463  1115A      1.260244  1116A      1.261402  
    1117A      1.261535  1118A      1.262881  1119A      1.264848  
    1120A      1.266917  1121A      1.267438  1122A      1.267696  
    1123A      1.271398  1124A      1.274386  1125A      1.282223  
    1126A      1.282752  1127A      1.295108  1128A      1.298984  
    1129A      1.299353  1130A      1.300101  1131A      1.301082  
    1132A      1.301492  1133A      1.307571  1134A      1.310001  
    1135A      1.310239  1136A      1.313197  1137A      1.315624  
    1138A      1.316885  1139A      1.317269  1140A      1.317849  
    1141A      1.323211  1142A      1.330873  1143A      1.330959  
    1144A      1.336804  1145A      1.337471  1146A      1.339379  
    1147A      1.342196  1148A      1.342270  1149A      1.342526  
    1150A      1.344984  1151A      1.347146  1152A      1.347380  
    1153A      1.348978  1154A      1.351654  1155A      1.352310  
    1156A      1.352782  1157A      1.356906  1158A      1.359865  
    1159A      1.361580  1160A      1.362495  1161A      1.363063  
    1162A      1.365906  1163A      1.366264  1164A      1.367676  
    1165A      1.368764  1166A      1.368937  1167A      1.370298  
    1168A      1.374403  1169A      1.374603  1170A      1.378079  
    1171A      1.378977  1172A      1.379497  1173A      1.382936  
    1174A      1.382994  1175A      1.386865  1176A      1.389186  
    1177A      1.389377  1178A      1.395814  1179A      1.397557  
    1180A      1.398754  1181A      1.405004  1182A      1.405245  
    1183A      1.406971  1184A      1.407215  1185A      1.408978  
    1186A      1.411252  1187A      1.411467  1188A      1.416643  
    1189A      1.417401  1190A      1.418437  1191A      1.422554  
    1192A      1.423410  1193A      1.423650  1194A      1.435764  
    1195A      1.435904  1196A      1.437300  1197A      1.441020  
    1198A      1.441258  1199A      1.442546  1200A      1.442661  
    1201A      1.450907  1202A      1.455399  1203A      1.455900  
    1204A      1.456016  1205A      1.457183  1206A      1.457627  
    1207A      1.460007  1208A      1.460684  1209A      1.462360  
    1210A      1.462555  1211A      1.468932  1212A      1.469430  
    1213A      1.472616  1214A      1.472700  1215A      1.473706  
    1216A      1.476213  1217A      1.476515  1218A      1.476600  
    1219A      1.478995  1220A      1.479801  1221A      1.482142  
    1222A      1.482451  1223A      1.483443  1224A      1.488082  
    1225A      1.488496  1226A      1.491564  1227A      1.499048  
    1228A      1.499551  1229A      1.499866  1230A      1.500139  
    1231A      1.500568  1232A      1.501553  1233A      1.504299  
    1234A      1.514047  1235A      1.514733  1236A      1.517524  
    1237A      1.518684  1238A      1.519416  1239A      1.521034  
    1240A      1.521265  1241A      1.528233  1242A      1.532355  
    1243A      1.532662  1244A      1.533520  1245A      1.540746  
    1246A      1.546856  1247A      1.547043  1248A      1.550424  
    1249A      1.551558  1250A      1.554362  1251A      1.554574  
    1252A      1.565927  1253A      1.566160  1254A      1.587132  
    1255A      1.587154  1256A      1.592085  1257A      1.593784  
    1258A      1.603020  1259A      1.603065  1260A      1.633728  
    1261A      1.633888  1262A      1.636258  1263A      1.636755  
    1264A      1.643305  1265A      1.645861  1266A      1.650633  
    1267A      1.653386  1268A      1.655818  1269A      1.656417  
    1270A      1.656714  1271A      1.657183  1272A      1.657777  
    1273A      1.659982  1274A      1.660893  1275A      1.662973  
    1276A      1.665038  1277A      1.665696  1278A      1.665966  
    1279A      1.667931  1280A      1.668529  1281A      1.669644  
    1282A      1.670787  1283A      1.671276  1284A      1.672225  
    1285A      1.675721  1286A      1.676167  1287A      1.676525  
    1288A      1.680779  1289A      1.681321  1290A      1.684204  
    1291A      1.684633  1292A      1.686188  1293A      1.686778  
    1294A      1.687191  1295A      1.688037  1296A      1.688664  
    1297A      1.689771  1298A      1.690018  1299A      1.690318  
    1300A      1.692565  1301A      1.695311  1302A      1.699696  
    1303A      1.699866  1304A      1.703744  1305A      1.704374  
    1306A      1.704559  1307A      1.704624  1308A      1.714139  
    1309A      1.714370  1310A      1.718180  1311A      1.718314  
    1312A      1.718367  1313A      1.718541  1314A      1.718815  
    1315A      1.721505  1316A      1.724341  1317A      1.725196  
    1318A      1.727467  1319A      1.728006  1320A      1.736073  
    1321A      1.737429  1322A      1.741848  1323A      1.743636  
    1324A      1.745382  1325A      1.745637  1326A      1.746498  
    1327A      1.748298  1328A      1.756906  1329A      1.757016  
    1330A      1.758957  1331A      1.763703  1332A      1.763733  
    1333A      1.764017  1334A      1.767338  1335A      1.769145  
    1336A      1.772491  1337A      1.772942  1338A      1.773161  
    1339A      1.773346  1340A      1.781060  1341A      1.786142  
    1342A      1.795587  1343A      1.796732  1344A      1.796935  
    1345A      1.797132  1346A      1.797969  1347A      1.812667  
    1348A      1.814319  1349A      1.816275  1350A      1.828717  
    1351A      1.831839  1352A      1.833534  1353A      1.834214  
    1354A      1.853182  1355A      1.853381  1356A      1.857930  
    1357A      1.866837  1358A      1.871482  1359A      1.872632  
    1360A      1.874866  1361A      1.874949  1362A      1.875199  
    1363A      1.876914  1364A      1.880607  1365A      1.880955  
    1366A      1.881527  1367A      1.885586  1368A      1.886086  
    1369A      1.886689  1370A      1.887545  1371A      1.894883  
    1372A      1.896142  1373A      1.902936  1374A      1.903014  
    1375A      1.908764  1376A      1.909239  1377A      1.912461  
    1378A      1.912550  1379A      1.914213  1380A      1.914584  
    1381A      1.918470  1382A      1.919070  1383A      1.919812  
    1384A      1.919927  1385A      1.921916  1386A      1.928195  
    1387A      1.928663  1388A      1.929608  1389A      1.931612  
    1390A      1.932282  1391A      1.932794  1392A      1.933023  
    1393A      1.933682  1394A      1.935185  1395A      1.938652  
    1396A      1.940236  1397A      1.947279  1398A      1.951546  
    1399A      1.951807  1400A      1.952626  1401A      1.952741  
    1402A      1.959004  1403A      1.960531  1404A      1.965023  
    1405A      1.966076  1406A      1.970656  1407A      1.971889  
    1408A      1.972169  1409A      1.974430  1410A      1.975102  
    1411A      1.975376  1412A      1.982668  1413A      1.984167  
    1414A      1.984396  1415A      1.984968  1416A      1.986535  
    1417A      1.987072  1418A      1.989370  1419A      1.991640  
    1420A      1.992221  1421A      1.993515  1422A      1.994364  
    1423A      1.999282  1424A      2.000946  1425A      2.001605  
    1426A      2.002595  1427A      2.002810  1428A      2.003950  
    1429A      2.007629  1430A      2.008067  1431A      2.008513  
    1432A      2.008795  1433A      2.010080  1434A      2.014779  
    1435A      2.017517  1436A      2.018490  1437A      2.019102  
    1438A      2.020024  1439A      2.023010  1440A      2.029887  
    1441A      2.030090  1442A      2.031054  1443A      2.031352  
    1444A      2.033880  1445A      2.035261  1446A      2.036618  
    1447A      2.037957  1448A      2.038439  1449A      2.042669  
    1450A      2.043289  1451A      2.043964  1452A      2.052924  
    1453A      2.055220  1454A      2.059661  1455A      2.060691  
    1456A      2.061413  1457A      2.064374  1458A      2.064527  
    1459A      2.065255  1460A      2.066280  1461A      2.068376  
    1462A      2.068960  1463A      2.070251  1464A      2.071060  
    1465A      2.071281  1466A      2.077141  1467A      2.079489  
    1468A      2.081347  1469A      2.081947  1470A      2.083800  
    1471A      2.085774  1472A      2.087540  1473A      2.088571  
    1474A      2.096567  1475A      2.097882  1476A      2.100721  
    1477A      2.102399  1478A      2.105197  1479A      2.105915  
    1480A      2.107278  1481A      2.107941  1482A      2.108995  
    1483A      2.109625  1484A      2.115606  1485A      2.117027  
    1486A      2.117978  1487A      2.118432  1488A      2.122490  
    1489A      2.124390  1490A      2.126092  1491A      2.127251  
    1492A      2.128096  1493A      2.130042  1494A      2.130451  
    1495A      2.131250  1496A      2.131732  1497A      2.132457  
    1498A      2.134073  1499A      2.136197  1500A      2.136750  
    1501A      2.137141  1502A      2.137585  1503A      2.138200  
    1504A      2.138416  1505A      2.139264  1506A      2.140867  
    1507A      2.141714  1508A      2.142464  1509A      2.145769  
    1510A      2.146305  1511A      2.146503  1512A      2.147477  
    1513A      2.149178  1514A      2.149405  1515A      2.149813  
    1516A      2.153832  1517A      2.155720  1518A      2.159121  
    1519A      2.160461  1520A      2.161178  1521A      2.161373  
    1522A      2.162344  1523A      2.163218  1524A      2.164908  
    1525A      2.166606  1526A      2.168626  1527A      2.174609  
    1528A      2.174952  1529A      2.175436  1530A      2.175753  
    1531A      2.175995  1532A      2.176360  1533A      2.178297  
    1534A      2.179844  1535A      2.183961  1536A      2.184236  
    1537A      2.186571  1538A      2.187017  1539A      2.191010  
    1540A      2.191434  1541A      2.191888  1542A      2.192451  
    1543A      2.192820  1544A      2.202950  1545A      2.203942  
    1546A      2.206813  1547A      2.207071  1548A      2.207707  
    1549A      2.208218  1550A      2.208675  1551A      2.208755  
    1552A      2.209921  1553A      2.210461  1554A      2.219566  
    1555A      2.219815  1556A      2.228025  1557A      2.228890  
    1558A      2.229453  1559A      2.230443  1560A      2.236898  
    1561A      2.237523  1562A      2.239624  1563A      2.241397  
    1564A      2.242249  1565A      2.244647  1566A      2.245881  
    1567A      2.247264  1568A      2.248818  1569A      2.249606  
    1570A      2.250218  1571A      2.250753  1572A      2.251737  
    1573A      2.252625  1574A      2.253597  1575A      2.257616  
    1576A      2.262132  1577A      2.262512  1578A      2.269295  
    1579A      2.269465  1580A      2.270422  1581A      2.271589  
    1582A      2.274118  1583A      2.274247  1584A      2.277249  
    1585A      2.278635  1586A      2.280028  1587A      2.280596  
    1588A      2.288211  1589A      2.288431  1590A      2.288998  
    1591A      2.290687  1592A      2.294901  1593A      2.295444  
    1594A      2.297763  1595A      2.298488  1596A      2.307043  
    1597A      2.308262  1598A      2.310860  1599A      2.312267  
    1600A      2.314182  1601A      2.316176  1602A      2.324467  
    1603A      2.330922  1604A      2.332538  1605A      2.337842  
    1606A      2.338533  1607A      2.343789  1608A      2.346120  
    1609A      2.351743  1610A      2.352148  1611A      2.357313  
    1612A      2.364440  1613A      2.373126  1614A      2.373527  
    1615A      2.373894  1616A      2.375663  1617A      2.377917  
    1618A      2.378614  1619A      2.379826  1620A      2.382195  
    1621A      2.383390  1622A      2.384076  1623A      2.388816  
    1624A      2.390151  1625A      2.390878  1626A      2.390924  
    1627A      2.393476  1628A      2.394307  1629A      2.394605  
    1630A      2.399152  1631A      2.399399  1632A      2.418360  
    1633A      2.422532  1634A      2.423064  1635A      2.431550  
    1636A      2.436521  1637A      2.439629  1638A      2.440842  
    1639A      2.442159  1640A      2.446394  1641A      2.466641  
    1642A      2.467965  1643A      2.472266  1644A      2.475789  
    1645A      2.481209  1646A      2.489980  1647A      2.491530  
    1648A      2.501086  1649A      2.502011  1650A      2.512558  
    1651A      2.512630  1652A      2.515988  1653A      2.516325  
    1654A      2.520010  1655A      2.520288  1656A      2.538545  
    1657A      2.538916  1658A      2.543451  1659A      2.550232  
    1660A      2.553767  1661A      2.554413  1662A      2.558887  
    1663A      2.564109  1664A      2.587772  1665A      2.587841  
    1666A      2.588131  1667A      2.590183  1668A      2.590806  
    1669A      2.593779  1670A      2.594879  1671A      2.596486  
    1672A      2.597464  1673A      2.599248  1674A      2.606095  
    1675A      2.606284  1676A      2.612888  1677A      2.618673  
    1678A      2.619405  1679A      2.626914  1680A      2.630424  
    1681A      2.630924  1682A      2.633163  1683A      2.634300  
    1684A      2.635267  1685A      2.635705  1686A      2.640052  
    1687A      2.641491  1688A      2.649306  1689A      2.649452  
    1690A      2.660772  1691A      2.660922  1692A      2.661225  
    1693A      2.661847  1694A      2.664919  1695A      2.665462  
    1696A      2.681130  1697A      2.689016  1698A      2.689751  
    1699A      2.692057  1700A      2.694047  1701A      2.695164  
    1702A      2.697179  1703A      2.698078  1704A      2.700127  
    1705A      2.703393  1706A      2.703791  1707A      2.714893  
    1708A      2.714984  1709A      2.715650  1710A      2.717707  
    1711A      2.717851  1712A      2.722988  1713A      2.724632  
    1714A      2.724848  1715A      2.732641  1716A      2.734295  
    1717A      2.735728  1718A      2.739385  1719A      2.739906  
    1720A      2.740280  1721A      2.740845  1722A      2.744717  
    1723A      2.745870  1724A      2.753039  1725A      2.768398  
    1726A      2.778206  1727A      2.778577  1728A      2.779138  
    1729A      2.779191  1730A      2.779286  1731A      2.800692  
    1732A      2.810480  1733A      2.810813  1734A      2.822493  
    1735A      2.825658  1736A      2.828864  1737A      2.828914  
    1738A      2.848629  1739A      2.849220  1740A      2.851165  
    1741A      2.851495  1742A      2.851609  1743A      2.858387  
    1744A      2.861016  1745A      2.863794  1746A      2.864049  
    1747A      2.864464  1748A      2.866269  1749A      2.877699  
    1750A      2.878000  1751A      2.889031  1752A      2.889258  
    1753A      2.890410  1754A      2.890696  1755A      2.893909  
    1756A      2.909086  1757A      2.914275  1758A      2.914498  
    1759A      2.918710  1760A      2.919530  1761A      2.922840  
    1762A      2.944513  1763A      2.945845  1764A      2.946283  
    1765A      2.947135  1766A      2.947635  1767A      2.963077  
    1768A      2.964896  1769A      2.965036  1770A      2.974619  
    1771A      2.976838  1772A      2.982477  1773A      2.982562  
    1774A      3.011120  1775A      3.012349  1776A      3.012824  
    1777A      3.023952  1778A      3.039686  1779A      3.040475  
    1780A      3.077793  1781A      3.078450  1782A      3.082896  
    1783A      3.086148  1784A      3.095329  1785A      3.095544  
    1786A      3.096154  1787A      3.106411  1788A      3.106485  
    1789A      3.109430  1790A      3.121392  1791A      3.155744  
    1792A      3.160263  1793A      3.160521  1794A      3.170533  
    1795A      3.175692  1796A      3.175959  1797A      3.180774  
    1798A      3.182385  1799A      3.189564  1800A      3.190525  
    1801A      3.196624  1802A      3.197034  1803A      3.197319  
    1804A      3.197928  1805A      3.200821  1806A      3.209231  
    1807A      3.217534  1808A      3.220503  1809A      3.222377  
    1810A      3.222458  1811A      3.240561  1812A      3.241584  
    1813A      3.267364  1814A      3.268274  1815A      3.301507  
    1816A      3.306534  1817A      3.309578  1818A      3.309976  
    1819A      3.310670  1820A      3.312581  1821A      3.316246  
    1822A      3.319408  1823A      3.323226  1824A      3.323509  
    1825A      3.341124  1826A      3.342185  1827A      3.343434  
    1828A      3.350415  1829A      3.410370  1830A      3.411334  
    1831A      3.419270  1832A      3.464905  1833A      3.478855  
    1834A      3.482002  1835A      3.490441  1836A      3.495810  
    1837A      3.498926  1838A      3.511003  1839A      3.513887  
    1840A      3.515062  1841A      3.520363  1842A      3.523285  
    1843A      3.530376  1844A      3.536518  1845A      3.543304  
    1846A      3.558672  1847A      3.590358  1848A      3.623610  
    1849A      3.625332  1850A      3.632662  1851A      3.638395  
    1852A      3.685149  1853A      3.687419  1854A      3.713563  
    1855A      3.715653  1856A      3.754271  1857A      3.796996  
    1858A      3.797560  1859A      3.799478  1860A      3.813255  
    1861A      3.826836  1862A      3.829375  1863A      3.890153  
    1864A      3.891925  1865A      3.919984  1866A      3.923150  
    1867A      3.953362  1868A      3.961912  1869A      3.988064  
    1870A      3.991164  1871A      3.996923  1872A      3.997860  
    1873A      4.007781  1874A      4.014904  1875A      4.020772  
    1876A      4.074356  1877A      4.077347  1878A      4.121291  
    1879A      4.175107  1880A      4.175235  1881A      4.175406  
    1882A      4.202898  1883A      4.203077  1884A      4.203549  
    1885A      4.203718  1886A      4.203853  1887A      4.235574  
    1888A      4.235642  1889A      4.236025  1890A      4.280181  
    1891A      4.353679  1892A      4.444407  1893A      4.450301  
    1894A      4.450553  1895A      4.450791  1896A      4.650005  
    1897A      4.650829  1898A      4.650927  1899A      4.751653  
    1900A      4.787241  1901A      4.787748  

    Final Occupation by Irrep:
              A 
    DOCC [   321 ]
    NA   [   321 ]
    NB   [   321 ]

  @DF-RHF Final Energy: -4073.10429145582339

   => Energetics <=

    Nuclear Repulsion Energy =          17083.8645961089205230
    One-Electron Energy =              -39646.4168063479446573
    Two-Electron Energy =               18489.4479187832002935
    Total Energy =                      -4073.1042914558238408

Computation Completed


Properties will be evaluated at   0.000000,   0.000000,   0.000000 [a0]

Properties computed using the SCF density matrix


 Multipole Moments:

 ------------------------------------------------------------------------------------
     Multipole            Electronic (a.u.)      Nuclear  (a.u.)        Total (a.u.)
 ------------------------------------------------------------------------------------

 L = 1.  Multiply by 2.5417464519 to convert [e a0] to [Debye]
 Dipole X            :         -0.0006202           -0.0001188           -0.0007390
 Dipole Y            :          0.0011708           -0.0002727            0.0008981
 Dipole Z            :         34.3809444          -47.6095208          -13.2285764
 Magnitude           :                                                   13.2285764

 ------------------------------------------------------------------------------------

*** tstop() called on n2cn0565 at Sat Jan 27 15:56:10 2024
Module time:
	user time   =   23312.62 seconds =     388.54 minutes
	system time =    1340.61 seconds =      22.34 minutes
	total time  =      12815 seconds =     213.58 minutes
Total time:
	user time   =   23312.62 seconds =     388.54 minutes
	system time =    1340.61 seconds =      22.34 minutes
	total time  =      12815 seconds =     213.58 minutes

  //>>>>>>>>>>>>>>>>>>>>>>>>>>>>>>>>>>>//
  //            Monomer A HF           //
  //<<<<<<<<<<<<<<<<<<<<<<<<<<<<<<<<<<<//

   => Libint2 <=

    Primary   basis highest AM E, G, H:  5, 4, 3
    Auxiliary basis highest AM E, G, H:  6, 5, 4
    Onebody   basis highest AM E, G, H:  6, 5, 4
    Solid Harmonics ordering:            gaussian

*** tstart() called on n2cn0565
*** at Sat Jan 27 15:56:10 2024

   => Loading Basis Set <=

    Name: JUN-CC-PVDZ
    Role: ORBITAL
    Keyword: BASIS
    atoms 1                                                   entry B          line   130 file /opt/software/pc2/EB-SW/software/PSI4/1.9-foss-2022a/share/psi4/basis/jun-cc-pvdz.gbs 
    atoms 2-5                                                 entry F          line   266 file /opt/software/pc2/EB-SW/software/PSI4/1.9-foss-2022a/share/psi4/basis/jun-cc-pvdz.gbs 
    atoms 6-23, 30-42, 45-59, 62-78, 81-93, 98-108, 111-119   entry C          line   164 file /opt/software/pc2/EB-SW/software/PSI4/1.9-foss-2022a/share/psi4/basis/jun-cc-pvdz.gbs 
    atoms 24-29, 43-44, 60-61, 79-80, 94-97, 109-110, 120-125 entry H          line    36 file /opt/software/pc2/EB-SW/software/PSI4/1.9-foss-2022a/share/psi4/basis/jun-cc-pvdz.gbs 


         ---------------------------------------------------------
                                   SCF
               by Justin Turney, Rob Parrish, Andy Simmonett
                          and Daniel G. A. Smith
                              RHF Reference
                       16 Threads,  61035 MiB Core
         ---------------------------------------------------------

  ==> Geometry <==

    Molecular point group: c1
    Full point group: C1

    Geometry (in Angstrom), charge = -1, multiplicity = 1:

       Center              X                  Y                   Z               Mass       
    ------------   -----------------  -----------------  -----------------  -----------------
         B           -0.000050191042     0.000351518223     7.448986735862    11.009305360000
         F           -1.153601191042     0.000062518223     8.264633735862    18.998403162730
         F            1.153656808958    -0.000566481777     8.264633735862    18.998403162730
         F           -0.000023191042    -1.153622481777     6.633352735862    18.998403162730
         F           -0.000023191042     1.153992518223     6.633352735862    18.998403162730
      Gh(C)          -3.668445455062     7.803766688305    -0.549107222803    12.000000000000
      Gh(C)          -4.847602910388     7.131256349563    -0.551473797735    12.000000000000
      Gh(C)          -4.894963490217     5.696344921754    -0.552046708833    12.000000000000
      Gh(C)          -3.653744869815     4.980744859182    -0.544386267104    12.000000000000
      Gh(C)          -2.409429312536     7.113995554897    -0.548912880543    12.000000000000
      Gh(C)          -2.425481535146     5.681136469126    -0.555917769413    12.000000000000
      Gh(C)          -1.194748207477     7.786158712532    -0.547440700001    12.000000000000
      Gh(C)           0.037954837895     7.099436163980    -0.549611404306    12.000000000000
      Gh(C)           0.030328396378     5.669504077927    -0.555094789221    12.000000000000
      Gh(C)          -1.200988698947     4.969284866138    -0.546125055288    12.000000000000
      Gh(C)           1.277953634773     7.772873961417    -0.548235555745    12.000000000000
      Gh(C)           2.485353893683     7.087711403460    -0.550510043650    12.000000000000
      Gh(C)           2.486124493876     5.654785328463    -0.557447792637    12.000000000000
      Gh(C)           1.254078728602     4.956092631887    -0.545819851049    12.000000000000
      Gh(C)           3.751710400364     7.763926669203    -0.550383192269    12.000000000000
      Gh(C)           4.923561865144     7.078795295213    -0.552439672977    12.000000000000
      Gh(C)           4.955603080284     5.643461981592    -0.552600085784    12.000000000000
      Gh(C)           3.706797343163     4.941224726556    -0.547508525615    12.000000000000
      Gh(H)          -3.658525328800     8.890841937358    -0.547422234553     1.007825032230
      Gh(H)          -1.189217520798     8.874135605583    -0.543468823559     1.007825032230
      Gh(H)           1.284290047845     8.860847953711    -0.544076731604     1.007825032230
      Gh(H)           3.753537895758     8.851049797195    -0.548860667954     1.007825032230
      Gh(H)           5.869954512165     7.613809352878    -0.553365040020     1.007825032230
      Gh(H)          -5.788235898544     7.676316731157    -0.553033645091     1.007825032230
      Gh(C)          -6.091978149738     4.993274531866    -0.553918949324    12.000000000000
[...]
    1498A      2.110058  1499A      2.111820  1500A      2.111890  
    1501A      2.111917  1502A      2.112849  1503A      2.114163  
    1504A      2.116553  1505A      2.117799  1506A      2.119671  
    1507A      2.125954  1508A      2.126466  1509A      2.126737  
    1510A      2.126857  1511A      2.126990  1512A      2.127544  
    1513A      2.128729  1514A      2.130808  1515A      2.134788  
    1516A      2.135076  1517A      2.136683  1518A      2.137127  
    1519A      2.142952  1520A      2.143089  1521A      2.143105  
    1522A      2.143843  1523A      2.144151  1524A      2.154173  
    1525A      2.154857  1526A      2.157209  1527A      2.157745  
    1528A      2.158528  1529A      2.159210  1530A      2.159753  
    1531A      2.160068  1532A      2.162412  1533A      2.162749  
    1534A      2.171112  1535A      2.171380  1536A      2.179545  
    1537A      2.180741  1538A      2.180976  1539A      2.182225  
    1540A      2.188222  1541A      2.188640  1542A      2.190445  
    1543A      2.191456  1544A      2.192524  1545A      2.194938  
    1546A      2.196620  1547A      2.197890  1548A      2.199958  
    1549A      2.200392  1550A      2.200736  1551A      2.201235  
    1552A      2.202970  1553A      2.204093  1554A      2.205470  
    1555A      2.208999  1556A      2.213610  1557A      2.213890  
    1558A      2.220144  1559A      2.222104  1560A      2.222686  
    1561A      2.224106  1562A      2.224698  1563A      2.224725  
    1564A      2.228769  1565A      2.231996  1566A      2.232285  
    1567A      2.232983  1568A      2.238644  1569A      2.238803  
    1570A      2.239422  1571A      2.241340  1572A      2.247403  
    1573A      2.247727  1574A      2.248177  1575A      2.248592  
    1576A      2.260288  1577A      2.261436  1578A      2.263308  
    1579A      2.264840  1580A      2.266463  1581A      2.269494  
    1582A      2.275188  1583A      2.282789  1584A      2.284236  
    1585A      2.290143  1586A      2.290979  1587A      2.296255  
    1588A      2.296754  1589A      2.303703  1590A      2.304116  
    1591A      2.309028  1592A      2.314110  1593A      2.324421  
    1594A      2.324855  1595A      2.325173  1596A      2.327067  
    1597A      2.329363  1598A      2.330542  1599A      2.331059  
    1600A      2.332918  1601A      2.334233  1602A      2.334990  
    1603A      2.339615  1604A      2.341356  1605A      2.342141  
    1606A      2.342317  1607A      2.344771  1608A      2.345780  
    1609A      2.346282  1610A      2.349052  1611A      2.349403  
    1612A      2.367923  1613A      2.372181  1614A      2.372767  
    1615A      2.383573  1616A      2.387918  1617A      2.390157  
    1618A      2.391578  1619A      2.392672  1620A      2.396902  
    1621A      2.418287  1622A      2.419462  1623A      2.423395  
    1624A      2.427503  1625A      2.431863  1626A      2.441433  
    1627A      2.442996  1628A      2.451970  1629A      2.453062  
    1630A      2.464276  1631A      2.464337  1632A      2.467697  
    1633A      2.468003  1634A      2.471902  1635A      2.472162  
    1636A      2.490947  1637A      2.491304  1638A      2.494304  
    1639A      2.502384  1640A      2.506123  1641A      2.506914  
    1642A      2.511437  1643A      2.516157  1644A      2.539058  
    1645A      2.539124  1646A      2.539961  1647A      2.542026  
    1648A      2.542633  1649A      2.544706  1650A      2.547436  
    1651A      2.548398  1652A      2.549105  1653A      2.551015  
    1654A      2.556516  1655A      2.556670  1656A      2.564194  
    1657A      2.571081  1658A      2.571453  1659A      2.579959  
    1660A      2.583630  1661A      2.584160  1662A      2.585020  
    1663A      2.586221  1664A      2.588445  1665A      2.588850  
    1666A      2.593199  1667A      2.593488  1668A      2.601311  
    1669A      2.601423  1670A      2.612636  1671A      2.612832  
    1672A      2.613177  1673A      2.613674  1674A      2.616729  
    1675A      2.617275  1676A      2.632518  1677A      2.640512  
    1678A      2.641394  1679A      2.643697  1680A      2.645375  
    1681A      2.647273  1682A      2.648541  1683A      2.649183  
    1684A      2.652722  1685A      2.655660  1686A      2.656041  
    1687A      2.665957  1688A      2.666039  1689A      2.667537  
    1690A      2.670359  1691A      2.670500  1692A      2.673545  
    1693A      2.677058  1694A      2.677511  1695A      2.684216  
    1696A      2.685464  1697A      2.686995  1698A      2.691048  
    1699A      2.691204  1700A      2.691536  1701A      2.692309  
    1702A      2.696021  1703A      2.697257  1704A      2.703936  
    1705A      2.720621  1706A      2.730641  1707A      2.730707  
    1708A      2.730829  1709A      2.731165  1710A      2.731813  
    1711A      2.752434  1712A      2.760504  1713A      2.760864  
    1714A      2.772127  1715A      2.775778  1716A      2.779560  
    1717A      2.779826  1718A      2.799008  1719A      2.799853  
    1720A      2.801346  1721A      2.802167  1722A      2.802209  
    1723A      2.807924  1724A      2.809420  1725A      2.809717  
    1726A      2.810568  1727A      2.811081  1728A      2.814700  
    1729A      2.815323  1730A      2.815515  1731A      2.815966  
    1732A      2.827899  1733A      2.828162  1734A      2.840081  
    1735A      2.840178  1736A      2.841533  1737A      2.841859  
    1738A      2.845095  1739A      2.859719  1740A      2.865127  
    1741A      2.865328  1742A      2.870253  1743A      2.871057  
    1744A      2.874098  1745A      2.895894  1746A      2.896781  
    1747A      2.912427  1748A      2.917596  1749A      2.917726  
    1750A      2.927401  1751A      2.929492  1752A      2.934714  
    1753A      2.934758  1754A      2.962979  1755A      2.964737  
    1756A      2.965228  1757A      2.976082  1758A      2.991572  
    1759A      2.992377  1760A      3.029333  1761A      3.029888  
    1762A      3.035299  1763A      3.038490  1764A      3.046775  
    1765A      3.047409  1766A      3.047957  1767A      3.057473  
    1768A      3.057515  1769A      3.063099  1770A      3.072823  
    1771A      3.108435  1772A      3.112749  1773A      3.113042  
    1774A      3.122211  1775A      3.126913  1776A      3.127318  
    1777A      3.132331  1778A      3.133914  1779A      3.141851  
    1780A      3.142923  1781A      3.148081  1782A      3.148576  
    1783A      3.149350  1784A      3.150012  1785A      3.153463  
    1786A      3.162068  1787A      3.167861  1788A      3.173109  
    1789A      3.174923  1790A      3.175023  1791A      3.193037  
    1792A      3.194115  1793A      3.220204  1794A      3.253356  
    1795A      3.259338  1796A      3.260791  1797A      3.261294  
    1798A      3.261942  1799A      3.264206  1800A      3.268056  
    1801A      3.271256  1802A      3.274956  1803A      3.275273  
    1804A      3.292547  1805A      3.293515  1806A      3.294536  
    1807A      3.302031  1808A      3.360986  1809A      3.361974  
    1810A      3.369673  1811A      3.415340  1812A      3.429465  
    1813A      3.431964  1814A      3.438641  1815A      3.445189  
    1816A      3.448242  1817A      3.460583  1818A      3.464361  
    1819A      3.465049  1820A      3.470751  1821A      3.473632  
    1822A      3.480667  1823A      3.486223  1824A      3.493303  
    1825A      3.509078  1826A      3.540206  1827A      3.574253  
    1828A      3.575925  1829A      3.583313  1830A      3.589825  
    1831A      3.635602  1832A      3.637818  1833A      3.664483  
    1834A      3.666650  1835A      3.704938  1836A      3.747242  
    1837A      3.749110  1838A      3.750328  1839A      3.763116  
    1840A      3.778571  1841A      3.779082  1842A      3.841832  
    1843A      3.843254  1844A      3.871428  1845A      3.874567  
    1846A      3.904519  1847A      3.912838  1848A      3.937860  
    1849A      3.940645  1850A      3.948192  1851A      3.949109  
    1852A      3.958372  1853A      3.964358  1854A      3.970689  
    1855A      4.024595  1856A      4.027419  1857A      4.070704  
    1858A      4.179009  1859A      4.181366  1860A      4.181869  
    1861A      4.228779  1862A      4.301994  1863A      4.318755  
    1864A      4.392776  1865A      5.746693  1866A      5.746939  
    1867A      5.747638  1868A      5.750901  1869A      5.751012  
    1870A      5.756634  1871A      5.757108  1872A      5.757772  
    1873A      5.775947  1874A      5.776683  1875A      5.776890  
    1876A      6.017724  1877A      6.018314  1878A      6.018594  
    1879A      6.190378  1880A      6.324795  1881A      6.325113  
    1882A      6.370502  1883A      6.371594  1884A      6.372415  
    1885A      7.138792  1886A      7.151045  1887A      7.220103  
    1888A      7.221365  1889A      7.224119  1890A      7.239056  
    1891A      7.239526  1892A      7.243610  1893A      7.450583  
    1894A      7.450786  1895A      7.455596  1896A      7.584516  
    1897A     12.588944  1898A     42.905218  1899A     42.906439  
    1900A     42.907281  1901A     42.935005  

    Final Occupation by Irrep:
              A 
    DOCC [   300 ]
    NA   [   300 ]
    NB   [   300 ]

  @DF-RHF Final Energy: -3650.33783389239261

   => Energetics <=

    Nuclear Repulsion Energy =          15611.4211649754324753
    One-Electron Energy =              -36072.0815672018870828
    Two-Electron Energy =               16810.3225683340606338
    Total Energy =                      -3650.3378338923939737

Computation Completed


Properties will be evaluated at   0.000000,   0.000000,   0.000000 [a0]

Properties computed using the SCF density matrix


 Multipole Moments:

 ------------------------------------------------------------------------------------
     Multipole            Electronic (a.u.)      Nuclear  (a.u.)        Total (a.u.)
 ------------------------------------------------------------------------------------

 L = 1.  Multiply by 2.5417464519 to convert [e a0] to [Debye]
 Dipole X            :         -0.0010681            0.0001983           -0.0008697
 Dipole Y            :          0.0010445           -0.0013163           -0.0002718
 Dipole Z            :        624.7485047         -624.7483015            0.0002032
 Magnitude           :                                                    0.0009336

 ------------------------------------------------------------------------------------

*** tstop() called on n2cn0565 at Sat Jan 27 18:29:41 2024
Module time:
	user time   =   16294.69 seconds =     271.58 minutes
	system time =     995.61 seconds =      16.59 minutes
	total time  =       5962 seconds =      99.37 minutes
Total time:
	user time   =   43484.27 seconds =     724.74 minutes
	system time =    2669.61 seconds =      44.49 minutes
	total time  =      22026 seconds =     367.10 minutes
  Constructing Basis Sets for SAPT...

   => Loading Basis Set <=

    Name: (JUN-CC-PVDZ AUX)
    Role: RIFIT
    Keyword: DF_BASIS_SAPT
    atoms 1                                                   entry B          line    56 file /opt/software/pc2/EB-SW/software/PSI4/1.9-foss-2022a/share/psi4/basis/jun-cc-pvdz-ri.gbs 
    atoms 2-5                                                 entry F          line   232 file /opt/software/pc2/EB-SW/software/PSI4/1.9-foss-2022a/share/psi4/basis/jun-cc-pvdz-ri.gbs 
    atoms 6-23, 30-42, 45-59, 62-78, 81-93, 98-108, 111-119   entry C          line   100 file /opt/software/pc2/EB-SW/software/PSI4/1.9-foss-2022a/share/psi4/basis/jun-cc-pvdz-ri.gbs 
    atoms 24-29, 43-44, 60-61, 79-80, 94-97, 109-110, 120-125 entry H          line    30 file /opt/software/pc2/EB-SW/software/PSI4/1.9-foss-2022a/share/psi4/basis/jun-cc-pvdz-ri.gbs 

   => Loading Basis Set <=

    Name: (JUN-CC-PVDZ AUX)
    Role: JKFIT
    Keyword: DF_BASIS_ELST
    atoms 1                                                   entry B          line    90 file /opt/software/pc2/EB-SW/software/PSI4/1.9-foss-2022a/share/psi4/basis/jun-cc-pvdz-jkfit.gbs 
    atoms 2-5                                                 entry F          line   314 file /opt/software/pc2/EB-SW/software/PSI4/1.9-foss-2022a/share/psi4/basis/jun-cc-pvdz-jkfit.gbs 
    atoms 6-23, 30-42, 45-59, 62-78, 81-93, 98-108, 111-119   entry C          line   146 file /opt/software/pc2/EB-SW/software/PSI4/1.9-foss-2022a/share/psi4/basis/jun-cc-pvdz-jkfit.gbs 
    atoms 24-29, 43-44, 60-61, 79-80, 94-97, 109-110, 120-125 entry H          line    70 file /opt/software/pc2/EB-SW/software/PSI4/1.9-foss-2022a/share/psi4/basis/jun-cc-pvdz-jkfit.gbs 


  //>>>>>>>>>>>>>>>>>>>>>>>>>>>>>>>>>>>//
  //               SSAPT0              //
  //<<<<<<<<<<<<<<<<<<<<<<<<<<<<<<<<<<<//


*** tstart() called on n2cn0565
*** at Sat Jan 27 18:29:44 2024

        SAPT0  
    Ed Hohenstein
     6 June 2009

      Orbital Information
  --------------------------
    NSO        =      1938
    NMO        =      1901
    NRI        =      6901
    NRI (Elst) =      8531
    NOCC A     =        21
    NOCC B     =       300
    FOCC A     =         5
    FOCC B     =        96
    NVIR A     =      1880
    NVIR B     =      1601

    Elst10,r            =     0.007101130982 [Eh]
    Exch10              =    -0.000000060366 [Eh]
    Exch10 (S^2)        =    -0.000000060366 [Eh]

    Iter     Energy [mEh]          dE [mEh]         Residual      Time [s]
       1      -0.00247710       0.002477097       0.366791819           586
       2      -0.00291157       0.000434472       0.191504807          1593
       3      -0.00309343       0.000181862       0.036192925          2420
       4      -0.00309717       0.000003740       0.007575392          3197
       5      -0.00309201      -0.000005156       0.001031951          4770
       6      -0.00309263       0.000000621       0.000197665          5994
       7      -0.00309261      -0.000000020       0.000049844          6936
       8      -0.00309260      -0.000000009       0.000013098          7657
       9      -0.00309260      -0.000000001       0.000002374          8383
      10      -0.00309260       0.000000001       0.000000377          9216

    CHF Iterations converged


    Iter     Energy [mEh]          dE [mEh]         Residual      Time [s]
       1      -3.27982680       3.279826802      31.455583174          1005
       2      -2.11912349      -1.160703307       3.618582451          2061
       3      -2.11173885      -0.007384648       1.246923745          2984
       4      -2.15062865       0.038889805       0.376775601          3774
       5      -2.15533010       0.004701451       0.127885894          4927
       6      -2.15491108      -0.000419024       0.081899295          6117
       7      -2.15384927      -0.001061811       0.037521728          7250
       8      -2.15395587       0.000106602       0.021910644          8304
       9      -2.15422557       0.000269700       0.013214969          9526
      10      -2.15414327      -0.000082300       0.010524683         10800
      11      -2.15410048      -0.000042794       0.004375318         11798
      12      -2.15410676       0.000006280       0.001897982         12956
      13      -2.15411563       0.000008878       0.000717367         14205
      14      -2.15411741       0.000001774       0.000267671         15534
      15      -2.15411627      -0.000001136       0.000171311         16684
      16      -2.15411519      -0.000001082       0.000100532         18201
      17      -2.15411586       0.000000671       0.000046251         19318
      18      -2.15411599       0.000000127       0.000016812         20504
      19      -2.15411591      -0.000000077       0.000008611         21874
      20      -2.15411588      -0.000000030       0.000003568         23031
      21      -2.15411589       0.000000009       0.000001674         24570
      22      -2.15411590       0.000000007       0.000000867         26539

    CHF Iterations converged

    Ind20,r (A<-B)      =    -0.000003092604 [Eh]
    Ind20,r (B<-A)      =    -0.002154115896 [Eh]
    Ind20,r             =    -0.002157208501 [Eh]
    Exch-Ind20,r (A<-B) =     0.000000014145 [Eh]
    Exch-Ind20,r (B<-A) =     0.000000030048 [Eh]
    Exch-Ind20,r        =     0.000000044193 [Eh]
    Disp20              =    -0.000248325524 [Eh]
    Disp20 (SS)         =    -0.000124162762 [Eh]
    Disp20 (OS)         =    -0.000124162762 [Eh]
    Exch-Disp20         =     0.000000015508 [Eh]
    Exch-Disp20 (SS)    =     0.000000011873 [Eh]
    Exch-Disp20 (OS)    =     0.000000003635 [Eh]

    SAPT Results 
  --------------------------------------------------------------------------------------------------------
    Electrostatics                  7.10113098 [mEh]       4.45602697 [kcal/mol]      18.64401683 [kJ/mol]
      Elst10,r                      7.10113098 [mEh]       4.45602697 [kcal/mol]      18.64401683 [kJ/mol]

    Exchange                       -0.00006037 [mEh]      -0.00003788 [kcal/mol]      -0.00015849 [kJ/mol]
      Exch10                       -0.00006037 [mEh]      -0.00003788 [kcal/mol]      -0.00015849 [kJ/mol]
      Exch10(S^2)                  -0.00006037 [mEh]      -0.00003788 [kcal/mol]      -0.00015849 [kJ/mol]

    Induction                      -2.14845969 [mEh]      -1.34817881 [kcal/mol]      -5.64078013 [kJ/mol]
      Ind20,r                      -2.15720850 [mEh]      -1.35366877 [kcal/mol]      -5.66375014 [kJ/mol]
      Exch-Ind20,r                  0.00004419 [mEh]       0.00002773 [kcal/mol]       0.00011603 [kJ/mol]
      delta HF,r (2)                0.00870462 [mEh]       0.00546223 [kcal/mol]       0.02285398 [kJ/mol]

    Dispersion                     -0.24831002 [mEh]      -0.15581689 [kcal/mol]      -0.65193786 [kJ/mol]
      Disp20                       -0.24832552 [mEh]      -0.15582662 [kcal/mol]      -0.65197857 [kJ/mol]
      Exch-Disp20                   0.00001551 [mEh]       0.00000973 [kcal/mol]       0.00004072 [kJ/mol]
      Disp20 (SS)                  -0.12416276 [mEh]      -0.07791331 [kcal/mol]      -0.32598929 [kJ/mol]
      Disp20 (OS)                  -0.12416276 [mEh]      -0.07791331 [kcal/mol]      -0.32598929 [kJ/mol]
      Exch-Disp20 (SS)              0.00001187 [mEh]       0.00000745 [kcal/mol]       0.00003117 [kJ/mol]
      Exch-Disp20 (OS)              0.00000364 [mEh]       0.00000228 [kcal/mol]       0.00000954 [kJ/mol]

  Total HF                          4.95261093 [mEh]       3.10781028 [kcal/mol]      13.00307820 [kJ/mol]
  Total SAPT0                       4.70430091 [mEh]       2.95199339 [kcal/mol]      12.35114034 [kJ/mol]

  Special recipe for scaled SAPT0 (see Manual):
    Electrostatics sSAPT0           7.10113098 [mEh]       4.45602697 [kcal/mol]      18.64401683 [kJ/mol]
    Exchange sSAPT0                -0.00006037 [mEh]      -0.00003788 [kcal/mol]      -0.00015849 [kJ/mol]
    Induction sSAPT0               -2.14845969 [mEh]      -1.34817881 [kcal/mol]      -5.64078013 [kJ/mol]
    Dispersion sSAPT0              -0.24831002 [mEh]      -0.15581689 [kcal/mol]      -0.65193786 [kJ/mol]
  Total sSAPT0                      4.70430091 [mEh]       2.95199339 [kcal/mol]      12.35114034 [kJ/mol]
  --------------------------------------------------------------------------------------------------------

*** tstop() called on n2cn0565 at Mon Jan 29 12:24:05 2024
Module time:
	user time   =   60295.79 seconds =    1004.93 minutes
	system time =    3744.81 seconds =      62.41 minutes
	total time  =     150861 seconds =    2514.35 minutes
Total time:
	user time   =  103781.49 seconds =    1729.69 minutes
	system time =    6414.43 seconds =     106.91 minutes
	total time  =     172890 seconds =    2881.50 minutes

    Psi4 stopped on: Monday, 29 January 2024 12:24PM
    Psi4 wall time for execution: 2 days, 0:01:31.40

*** Psi4 exiting successfully. Buy a developer a beer!
