
    -----------------------------------------------------------------------
          Psi4: An Open-Source Ab Initio Electronic Structure Package
                               Psi4 1.9 release

                         Git: Rev {} zzzzzzz 


    D. G. A. Smith, L. A. Burns, A. C. Simmonett, R. M. Parrish,
    M. C. Schieber, R. Galvelis, P. Kraus, H. Kruse, R. Di Remigio,
    A. Alenaizan, A. M. James, S. Lehtola, J. P. Misiewicz, M. Scheurer,
    R. A. Shaw, J. B. Schriber, Y. Xie, Z. L. Glick, D. A. Sirianni,
    J. S. O'Brien, J. M. Waldrop, A. Kumar, E. G. Hohenstein,
    B. P. Pritchard, B. R. Brooks, H. F. Schaefer III, A. Yu. Sokolov,
    K. Patkowski, A. E. DePrince III, U. Bozkaya, R. A. King,
    F. A. Evangelista, J. M. Turney, T. D. Crawford, C. D. Sherrill,
    J. Chem. Phys. 152(18) 184108 (2020). https://doi.org/10.1063/5.0006002

                            Additional Code Authors
    E. T. Seidl, C. L. Janssen, E. F. Valeev, M. L. Leininger,
    J. F. Gonthier, R. M. Richard, H. R. McAlexander, M. Saitow, X. Wang,
    P. Verma, M. H. Lechner, A. Jiang, S. Behnle, A. G. Heide,
    M. F. Herbst, and D. L. Poole

             Previous Authors, Complete List of Code Contributors,
                       and Citations for Specific Modules
    https://github.com/psi4/psi4/blob/master/codemeta.json
    https://github.com/psi4/psi4/graphs/contributors
    http://psicode.org/psi4manual/master/introduction.html#citing-psifour

    -----------------------------------------------------------------------


    Psi4 started on: Monday, 22 January 2024 10:35AM

    Process ID: 2837281
    Host:       d-18-8-4
    PSIDATADIR: /home/gridsan/tfroembgen/.conda/envs/psi4test/share/psi4
    Memory:     500.0 MiB
    Threads:    12
    
  ==> Input File <==

--------------------------------------------------------------------------
memory 32 GB # how much memory is available ! Depends on the nodes/cores !

molecule dimer {
# monomer A
-1 1    # Charge and multiplicity
B -1.977592e-04  2.742729e-04 3.800034
F  1.123153e-16  1.430594e-17 5.212819
F  1.147860e+00  6.757812e-01 3.328893
F  1.191806e-02 -1.332011e+00 3.329095
F -1.159666e+00  6.560735e-01 3.329174
--
# monomer B
0 1     # Charge and multiplicity
C   1.22531237526482      0.70753866091955      0.00613762728373
C   1.22532433589282     -0.70753852257020     -0.00619318228664
C   -0.00000567409046      1.41496628609039     -0.00672680580738
C   2.45644923379077      1.41832825917820      0.00902448468363
C   0.00001130712078     -1.41497612663474      0.00347275151708
C   -1.22530046906674      0.70754574598412      0.00838914760619
C   2.45643823516184     -1.41832293188077     -0.00843833914343
C   -0.00000085313587      2.83680140328112     -0.00913035594137
C   3.68182717731192      0.70931832800114     -0.00808954934571
C   2.45512052870677      2.83422403348893     -0.00819210630633
C   3.68182158506039     -0.70933346742900      0.00798293467272
C   -1.22531311884624     -0.70752714354401     -0.00512042085974
C   1.22670006104402      3.54346985599427      0.00816696660346
C   0.00000526469929     -2.83678176723568      0.00832091913869
C   -2.45643555300670      1.41831729028492      0.00842454345199
C   2.45512389762097     -2.83422965658853      0.00783102630520
C   -1.22671388474763      3.54346943575023      0.00827029982280
C   4.91451777504333      1.42717324448953     -0.00160886631602
C   3.69315067131765      3.54279566454522     -0.00155906667985
C   -2.45643712022637     -1.41831290883911     -0.00846337726810
C   1.22670532178455     -3.54347386990643     -0.00780316414624
C   -2.45512491866593      2.83421703463423     -0.00818572995999
C   4.91452486062398     -1.42718653794377      0.00136387641845
C   1.22142509354026      4.97013443726031      0.00150231067809
C   4.89300870916237      2.82518837202648     -0.00039219795739
C   -1.22669652864725     -3.54347062507680     -0.00753595973677
C   -3.68181849668397      0.70932533873199     -0.00807686886569
C   3.69314758099218     -3.54280096939050      0.00148176697923
C   -1.22143177215231      4.97012866986289      0.00168580605083
C   6.13477145276790      0.68054831910577     -0.00083909176631
C   3.65678936045204      4.97295361556775     -0.00065042889723
C   -2.45512642789169     -2.83421472106065      0.00758666850712
C   -3.68181869921921     -0.70932533146830      0.00810055625144
C   4.89301309775526     -2.82519973363176      0.00021895393805
C   -0.00000059327114      5.65044773803267      0.00045449734393
C   6.13477559217374     -0.68055448207492      0.00042622874941
C   2.47813196269732      5.65357712333155      0.00063835075260
C   1.22142288457925     -4.97012668293268     -0.00129718634452
C   -3.69316190412301      3.54279732619245     -0.00139355922051
C   -1.22142804110313     -4.97011793159564     -0.00140994817719
C   -4.91452132810043      1.42717581899491     -0.00153192130862
C   3.65678749952045     -4.97295485423912      0.00080007163680
C   -2.47813805026426      5.65357479452875      0.00092287576113
C   -3.69314125872231     -3.54278984697859      0.00136564082345
C   -4.91451200321153     -1.42718062802730      0.00139857359209
C   -0.00000552908399     -5.65043791501335      0.00005899322272
C   -4.89302000425900      2.82518897091939     -0.00040227981744
C   2.47812647313991     -5.65357317188818     -0.00029052915548
C   -3.65679823041642      4.97295655404175     -0.00047374852278
C   -4.89299899901461     -2.82519139505969      0.00006491824035
C   -2.47812801824129     -5.65356579800621     -0.00056571680280
C   -6.13477002348955      0.68054913825639     -0.00086464346868
C   -3.65678835334731     -4.97294365097028      0.00058578382008
C   -6.13476456307132     -0.68055354348201      0.00040575295444
H   5.83528897565761      3.36927626695423      0.00396712770529
H   7.07385965258860      1.22821762089947     -0.00037744837300
H   4.60066374401555      5.51238117445323     -0.00014522814529
H   5.83528386714679     -3.36930568472863     -0.00423551337640
H   -0.00001167146422      6.73853104613662     -0.00389474766392
H   7.07386165167227     -1.22822657074368     -0.00008250934481
H   2.47331421164041      6.74068466339473      0.00017162982210
H   4.60066897122302     -5.51237575717576      0.00039007446835
H   -2.47331820069565      6.74068209160650      0.00047297644710
H   -0.00000978838621     -6.73852780445195      0.00458867820736
H   -5.83530143450167      3.36927132229595      0.00410314985360
H   2.47330840367253     -6.74068500242887      0.00027980126949
H   -4.60067436136587      5.51237839860371      0.00002010017831
H   -5.83527902699321     -3.36928859177951     -0.00451481925734
H   -2.47329986759855     -6.74067870613986     -0.00016951527498
H   -7.07385728692578      1.22822084484047     -0.00046143985387
H   -4.60067330624313     -5.51236229778631      0.00021776644566
H   -7.07385645456741     -1.22822025997701     -0.00017736581114

    units angstrom      # Angstroms are the default
    no_reorient         # Geometry fixed, default
    symmetry c1         # C1 symmetry, default
}

set {
    scf_type DF         # Density fitting, faster than exact integrals
    freeze_core True    # Freeze core electrons
    basis jun-cc-pVDZ   # Jun-cc-pVDZ basis set, recommended for sSAPT0 in https://doi.org/10.1063/1.4867135
}

energy('ssapt0')        # Compute sSAPT0 energy, includes also SAPT0
--------------------------------------------------------------------------

  Memory set to  29.802 GiB by Python driver.

Scratch directory: /state/partition1/slurm_tmp/24790957.4294967291.0/
   => Loading Basis Set <=

    Name: JUN-CC-PVDZ
    Role: ORBITAL
    Keyword: BASIS
    atoms 1     entry B          line   130 file /home/gridsan/tfroembgen/.conda/envs/psi4test/share/psi4/basis/jun-cc-pvdz.gbs 
    atoms 2-5   entry F          line   266 file /home/gridsan/tfroembgen/.conda/envs/psi4test/share/psi4/basis/jun-cc-pvdz.gbs 
    atoms 6-59  entry C          line   164 file /home/gridsan/tfroembgen/.conda/envs/psi4test/share/psi4/basis/jun-cc-pvdz.gbs 
    atoms 60-77 entry H          line    36 file /home/gridsan/tfroembgen/.conda/envs/psi4test/share/psi4/basis/jun-cc-pvdz.gbs 

   => Loading Basis Set <=

    Name: JUN-CC-PVDZ
    Role: ORBITAL
    Keyword: BASIS
    atoms 1     entry B          line   130 file /home/gridsan/tfroembgen/.conda/envs/psi4test/share/psi4/basis/jun-cc-pvdz.gbs 
    atoms 2-5   entry F          line   266 file /home/gridsan/tfroembgen/.conda/envs/psi4test/share/psi4/basis/jun-cc-pvdz.gbs 
    atoms 6-59  entry C          line   164 file /home/gridsan/tfroembgen/.conda/envs/psi4test/share/psi4/basis/jun-cc-pvdz.gbs 
    atoms 60-77 entry H          line    36 file /home/gridsan/tfroembgen/.conda/envs/psi4test/share/psi4/basis/jun-cc-pvdz.gbs 


  //>>>>>>>>>>>>>>>>>>>>>>>>>>>>>>>>>>>//
  //              Dimer HF             //
  //<<<<<<<<<<<<<<<<<<<<<<<<<<<<<<<<<<<//

   => Libint2 <=

    Primary   basis highest AM E, G, H:  7, 7, 4
    Auxiliary basis highest AM E, G, H:  7, 7, 5
    Onebody   basis highest AM E, G, H:  7, 7, 5
    Solid Harmonics ordering:            gaussian

*** tstart() called on d-18-8-4
*** at Mon Jan 22 10:35:52 2024

   => Loading Basis Set <=

    Name: JUN-CC-PVDZ
    Role: ORBITAL
    Keyword: BASIS
    atoms 1     entry B          line   130 file /home/gridsan/tfroembgen/.conda/envs/psi4test/share/psi4/basis/jun-cc-pvdz.gbs 
    atoms 2-5   entry F          line   266 file /home/gridsan/tfroembgen/.conda/envs/psi4test/share/psi4/basis/jun-cc-pvdz.gbs 
    atoms 6-59  entry C          line   164 file /home/gridsan/tfroembgen/.conda/envs/psi4test/share/psi4/basis/jun-cc-pvdz.gbs 
    atoms 60-77 entry H          line    36 file /home/gridsan/tfroembgen/.conda/envs/psi4test/share/psi4/basis/jun-cc-pvdz.gbs 


         ---------------------------------------------------------
                                   SCF
               by Justin Turney, Rob Parrish, Andy Simmonett
                          and Daniel G. A. Smith
                              RHF Reference
                       12 Threads,  30517 MiB Core
         ---------------------------------------------------------

  ==> Geometry <==

    Molecular point group: c1
    Full point group: C1

    Geometry (in Angstrom), charge = -1, multiplicity = 1:

       Center              X                  Y                   Z               Mass       
    ------------   -----------------  -----------------  -----------------  -----------------
         B           -0.000198161052     0.000273808717     3.361061473265    11.009305360000
         F           -0.000000401852    -0.000000464183     4.773846473265    18.998403162730
         F            1.147859598148     0.675780735817     2.889920473265    18.998403162730
         F            0.011917658148    -1.332011464183     2.890122473265    18.998403162730
         F           -1.159666401852     0.656073035817     2.890201473265    18.998403162730
         C            1.225311973413     0.707538196736    -0.432834899451    12.000000000000
         C            1.225323934041    -0.707538986754    -0.445165709021    12.000000000000
         C           -0.000006075942     1.414965821907    -0.445699332542    12.000000000000
         C            2.456448831939     1.418327794995    -0.429948042051    12.000000000000
         C            0.000010905269    -1.414976590818    -0.435499775218    12.000000000000
         C           -1.225300870919     0.707545281801    -0.430583379129    12.000000000000
         C            2.456437833310    -1.418323396064    -0.447410865878    12.000000000000
         C           -0.000001254988     2.836800939098    -0.448102882676    12.000000000000
         C            3.681826775460     0.709317863818    -0.447062076080    12.000000000000
         C            2.455120126855     2.834223569306    -0.447164633041    12.000000000000
         C            3.681821183209    -0.709333931612    -0.430989592062    12.000000000000
         C           -1.225313520698    -0.707527607727    -0.444092947595    12.000000000000
         C            1.226699659192     3.543469391811    -0.430805560131    12.000000000000
         C            0.000004862847    -2.836782231419    -0.430651607596    12.000000000000
         C           -2.456435954859     1.418316826102    -0.430547983283    12.000000000000
         C            2.455123495769    -2.834230120772    -0.431141500430    12.000000000000
         C           -1.226714286599     3.543468971567    -0.430702226912    12.000000000000
         C            4.914517373191     1.427172780306    -0.440581393051    12.000000000000
         C            3.693150269466     3.542795200362    -0.440531593415    12.000000000000
         C           -2.456437522078    -1.418313373022    -0.447435904003    12.000000000000
         C            1.226704919933    -3.543474334090    -0.446775690881    12.000000000000
         C           -2.455125320518     2.834216570451    -0.447158256695    12.000000000000
         C            4.914524458772    -1.427187002127    -0.437608650316    12.000000000000
         C            1.221424691688     4.970133973077    -0.437470216057    12.000000000000
         C            4.893008307311     2.825187907843    -0.439364724692    12.000000000000
         C           -1.226696930499    -3.543471089260    -0.446508486472    12.000000000000
         C           -3.681818898536     0.709324874549    -0.447049395600    12.000000000000
         C            3.693147179140    -3.542801433574    -0.437490759756    12.000000000000
         C           -1.221432174004     4.970128205680    -0.437286720684    12.000000000000
         C            6.134771050916     0.680547854922    -0.439811618501    12.000000000000
         C            3.656788958600     4.972953151384    -0.439622955632    12.000000000000
         C           -2.455126829744    -2.834215185244    -0.431385858228    12.000000000000
         C           -3.681819101071    -0.709325795652    -0.430871970483    12.000000000000
         C            4.893012695903    -2.825200197815    -0.438753572797    12.000000000000
         C           -0.000000995123     5.650447273849    -0.438518029391    12.000000000000
         C            6.134775190322    -0.680554946258    -0.438546297985    12.000000000000
         C            2.478131560845     5.653576659148    -0.438334175982    12.000000000000
         C            1.221422482727    -4.970127147116    -0.440269713079    12.000000000000
         C           -3.693162305975     3.542796862009    -0.440366085955    12.000000000000
         C           -1.221428442955    -4.970118395779    -0.440382474912    12.000000000000
         C           -4.914521729952     1.427175354812    -0.440504448043    12.000000000000
         C            3.656787097669    -4.972955318422    -0.438172455098    12.000000000000
         C           -2.478138452116     5.653574330345    -0.438049650974    12.000000000000
         C           -3.693141660574    -3.542790311162    -0.437606885911    12.000000000000
         C           -4.914512405063    -1.427181092211    -0.437573953143    12.000000000000
         C           -0.000005930936    -5.650438379197    -0.438913533512    12.000000000000
         C           -4.893020406111     2.825188506736    -0.439374806552    12.000000000000
         C            2.478126071288    -5.653573636072    -0.439263055890    12.000000000000
         C           -3.656798632268     4.972956089858    -0.439446275258    12.000000000000
         C           -4.892999400866    -2.825191859243    -0.438907608494    12.000000000000
         C           -2.478128420093    -5.653566262190    -0.439538243538    12.000000000000
         C           -6.134770425341     0.680548674073    -0.439837170203    12.000000000000
         C           -3.656788755199    -4.972944115154    -0.438386742915    12.000000000000
         C           -6.134764964923    -0.680554007665    -0.438566773780    12.000000000000
         H            5.835288573806     3.369275802771    -0.435005399029     1.007825032230
         H            7.073859250737     1.228217156716    -0.439349975108     1.007825032230
         H            4.600663342164     5.512380710270    -0.439117754880     1.007825032230
         H            5.835283465295    -3.369306148912    -0.443208040111     1.007825032230
         H           -0.000012073316     6.738530581953    -0.442867274399     1.007825032230
         H            7.073861249820    -1.228227034927    -0.439055036080     1.007825032230
         H            2.473313809789     6.740684199211    -0.438800896913     1.007825032230
         H            4.600668569371    -5.512376221359    -0.438582452266     1.007825032230
         H           -2.473318602548     6.740681627423    -0.438499550288     1.007825032230
         H           -0.000010190238    -6.738528268635    -0.434383848527     1.007825032230
         H           -5.835301836354     3.369270858113    -0.434869376881     1.007825032230
         H            2.473308001821    -6.740685466612    -0.438692725465     1.007825032230
         H           -4.600674763218     5.512377934420    -0.438952426556     1.007825032230
         H           -5.835279428845    -3.369289055963    -0.443487345992     1.007825032230
         H           -2.473300269450    -6.740679170323    -0.439142042010     1.007825032230
         H           -7.073857688778     1.228220380657    -0.439433966589     1.007825032230
         H           -4.600673708095    -5.512362761970    -0.438754760289     1.007825032230
         H           -7.073856856419    -1.228220724160    -0.439149892546     1.007825032230

  Running in c1 symmetry.

  Rotational constants: A =      0.00191  B =      0.00191  C =      0.00110 [cm^-1]
  Rotational constants: A =     57.34324  B =     57.33564  C =     33.02251 [MHz]
  Nuclear repulsion = 7904.276881449089160

  Charge       = -1
  Multiplicity = 1
  Electrons    = 384
  Nalpha       = 192
  Nbeta        = 192

  ==> Algorithm <==

  SCF Algorithm Type is DF.
  DIIS enabled.
  MOM disabled.
  Fractional occupation disabled.
  Guess Type is SAD.
  Energy threshold   = 1.00e-08
  Density threshold  = 1.00e-08
  Integral threshold = 1.00e-12

  ==> Primary Basis <==

  Basis Set: JUN-CC-PVDZ
    Blend: JUN-CC-PVDZ
    Number of shells: 526
    Number of basis functions: 1152
    Number of Cartesian functions: 1211
    Spherical Harmonics?: true
    Max angular momentum: 2

   => Loading Basis Set <=

    Name: (JUN-CC-PVDZ AUX)
    Role: JKFIT
    Keyword: DF_BASIS_SCF
    atoms 1     entry B          line    90 file /home/gridsan/tfroembgen/.conda/envs/psi4test/share/psi4/basis/jun-cc-pvdz-jkfit.gbs 
    atoms 2-5   entry F          line   314 file /home/gridsan/tfroembgen/.conda/envs/psi4test/share/psi4/basis/jun-cc-pvdz-jkfit.gbs 
    atoms 6-59  entry C          line   146 file /home/gridsan/tfroembgen/.conda/envs/psi4test/share/psi4/basis/jun-cc-pvdz-jkfit.gbs 
    atoms 60-77 entry H          line    70 file /home/gridsan/tfroembgen/.conda/envs/psi4test/share/psi4/basis/jun-cc-pvdz-jkfit.gbs 

  ==> Integral Setup <==

  ==> DiskDFJK: Density-Fitted J/K Matrices <==

    J tasked:                  Yes
    K tasked:                  Yes
    wK tasked:                  No
    OpenMP threads:             12
    Integrals threads:          12
    Memory [MiB]:            22888
    Algorithm:                Core
    Integral Cache:           SAVE
    Schwarz Cutoff:          1E-12
    Fitting Condition:       1E-10

   => Auxiliary Basis Set <=

  Basis Set: (JUN-CC-PVDZ AUX)
    Blend: JUN-CC-PVDZ-JKFIT
    Number of shells: 1755
    Number of basis functions: 5075
    Number of Cartesian functions: 5819
    Spherical Harmonics?: true
    Max angular momentum: 3

  Minimum eigenvalue in the overlap matrix is 7.3243039092E-10.
  Reciprocal condition number of the overlap matrix is 3.1332971506E-11.
    Using canonical orthogonalization.
  Overall, 14 of 1152 possible MOs eliminated.


  ==> Pre-Iterations <==

  SCF Guess: Superposition of Atomic Densities via on-the-fly atomic UHF (no occupation information).

   -------------------------
    Irrep   Nso     Nmo    
   -------------------------
     A       1152    1138 
   -------------------------
    Total    1152    1138
   -------------------------

  ==> Iterations <==

                           Total Energy        Delta E     RMS |[F,P]|

   @DF-RHF iter SAD: -2483.36312623200502   -2.48336e+03   0.00000e+00 
   @DF-RHF iter   1: -2477.60009099635863    5.76304e+00   1.10888e-03 ADIIS/DIIS
   @DF-RHF iter   2: -2478.49986554470570   -8.99775e-01   4.93570e-04 ADIIS/DIIS
   @DF-RHF iter   3: -2478.64478700357449   -1.44921e-01   1.44619e-04 ADIIS/DIIS
   @DF-RHF iter   4: -2478.65977834539353   -1.49913e-02   6.73047e-05 DIIS
   @DF-RHF iter   5: -2478.66351431496514   -3.73597e-03   1.76927e-05 DIIS
   @DF-RHF iter   6: -2478.66384399258277   -3.29678e-04   5.45903e-06 DIIS
   @DF-RHF iter   7: -2478.66392804314319   -8.40506e-05   2.70467e-06 DIIS
   @DF-RHF iter   8: -2478.66395174079980   -2.36977e-05   1.21953e-06 DIIS
   @DF-RHF iter   9: -2478.66395867589790   -6.93510e-06   2.71891e-07 DIIS
   @DF-RHF iter  10: -2478.66395892961646   -2.53719e-07   9.67285e-08 DIIS
   @DF-RHF iter  11: -2478.66395894882407   -1.92076e-08   3.89276e-08 DIIS
   @DF-RHF iter  12: -2478.66395895351343   -4.68935e-09   1.58100e-08 DIIS
   @DF-RHF iter  13: -2478.66395895428650   -7.73070e-10   8.76702e-09 DIIS
  Energy and wave function converged.


  ==> Post-Iterations <==

    Orbital Energies [Eh]
    ---------------------

    Doubly Occupied:                                                      

       1A    -26.080736     2A    -26.080642     3A    -26.080553  
       4A    -26.075611     5A    -11.180098     6A    -11.180085  
       7A    -11.180082     8A    -11.180014     9A    -11.180002  
      10A    -11.179998    11A    -11.179957    12A    -11.179953  
      13A    -11.179951    14A    -11.179872    15A    -11.179870  
      16A    -11.179867    17A    -11.177900    18A    -11.177896  
      19A    -11.177895    20A    -11.177891    21A    -11.177890  
      22A    -11.177886    23A    -11.176503    24A    -11.176499  
      25A    -11.176498    26A    -11.176495    27A    -11.176494  
      28A    -11.176491    29A    -11.175994    30A    -11.175941  
      31A    -11.175936    32A    -11.175753    33A    -11.175751  
      34A    -11.175570    35A    -11.175371    36A    -11.175122  
      37A    -11.175121    38A    -11.174774    39A    -11.174773  
      40A    -11.174535    41A    -11.174291    42A    -11.174116  
      43A    -11.174111    44A    -11.173903    45A    -11.173902  
      46A    -11.173848    47A    -11.173445    48A    -11.173441  
      49A    -11.173437    50A    -11.173359    51A    -11.173355  
      52A    -11.173354    53A    -11.171469    54A    -11.171014  
      55A    -11.171001    56A    -11.169791    57A    -11.169783  
      58A    -11.169289    59A     -7.551148    60A     -1.423539  
      61A     -1.365115    62A     -1.364948    63A     -1.361005  
      64A     -1.158980    65A     -1.137896    66A     -1.137896  
      67A     -1.109408    68A     -1.109400    69A     -1.097430  
      70A     -1.079176    71A     -1.069265    72A     -1.053162  
      73A     -1.053156    74A     -1.034980    75A     -1.034976  
      76A     -1.001285    77A     -1.001276    78A     -0.997025  
      79A     -0.988190    80A     -0.988185    81A     -0.960178  
      82A     -0.941816    83A     -0.939800    84A     -0.938856  
      85A     -0.938815    86A     -0.935306    87A     -0.906381  
      88A     -0.906338    89A     -0.883228    90A     -0.883180  
      91A     -0.816169    92A     -0.816139    93A     -0.805546  
      94A     -0.803275    95A     -0.803218    96A     -0.800765  
      97A     -0.800716    98A     -0.783518    99A     -0.761421  
     100A     -0.739485   101A     -0.735180   102A     -0.731739  
     103A     -0.731730   104A     -0.717159   105A     -0.717148  
     106A     -0.665520   107A     -0.664402   108A     -0.654444  
     109A     -0.654421   110A     -0.652564   111A     -0.652556  
     112A     -0.636706   113A     -0.620641   114A     -0.620629  
     115A     -0.614732   116A     -0.614418   117A     -0.614401  
     118A     -0.583792   119A     -0.573257   120A     -0.573252  
     121A     -0.573048   122A     -0.570036   123A     -0.561452  
     124A     -0.561450   125A     -0.549807   126A     -0.547830  
     127A     -0.547817   128A     -0.541418   129A     -0.541331  
     130A     -0.540855   131A     -0.531792   132A     -0.521682  
     133A     -0.521650   134A     -0.521276   135A     -0.519430  
     136A     -0.514000   137A     -0.509682   138A     -0.509508  
     139A     -0.509496   140A     -0.494049   141A     -0.494043  
     142A     -0.490371   143A     -0.490355   144A     -0.486134  
     145A     -0.486125   146A     -0.478233   147A     -0.477253  
     148A     -0.477241   149A     -0.461250   150A     -0.461247  
     151A     -0.460108   152A     -0.460062   153A     -0.458082  
     154A     -0.458077   155A     -0.450986   156A     -0.445006  
     157A     -0.444098   158A     -0.444090   159A     -0.423464  
     160A     -0.420975   161A     -0.420887   162A     -0.418607  
     163A     -0.417753   164A     -0.415445   165A     -0.408475  
     166A     -0.405077   167A     -0.402582   168A     -0.402574  
     169A     -0.398561   170A     -0.397824   171A     -0.397765  
     172A     -0.385587   173A     -0.385562   174A     -0.369104  
     175A     -0.369023   176A     -0.361563   177A     -0.361554  
     178A     -0.322915   179A     -0.322891   180A     -0.320453  
     181A     -0.298583   182A     -0.298581   183A     -0.269674  
     184A     -0.252417   185A     -0.250461   186A     -0.250385  
     187A     -0.233186   188A     -0.222206   189A     -0.201874  
     190A     -0.201825   191A     -0.145293   192A     -0.145222  

    Virtual:                                                              

     193A      0.092915   194A      0.092973   195A      0.107326  
     196A      0.107336   197A      0.108965   198A      0.109778  
     199A      0.109779   200A      0.116446   201A      0.120679  
     202A      0.131696   203A      0.131697   204A      0.145300  
     205A      0.145349   206A      0.146584   207A      0.146585  
     208A      0.149082   209A      0.155329   210A      0.155335  
     211A      0.155634   212A      0.155641   213A      0.156023  
     214A      0.161113   215A      0.161122   216A      0.162785  
     217A      0.165160   218A      0.166249   219A      0.169235  
     220A      0.170606   221A      0.176885   222A      0.176890  
     223A      0.178291   224A      0.180452   225A      0.189490  
     226A      0.189497   227A      0.190360   228A      0.190379  
     229A      0.191109   230A      0.191117   231A      0.195663  
     232A      0.196015   233A      0.197437   234A      0.198828  
     235A      0.201218   236A      0.201227   237A      0.206349  
     238A      0.213469   239A      0.213476   240A      0.215674  
     241A      0.215699   242A      0.219448   243A      0.219454  
     244A      0.223195   245A      0.223200   246A      0.226686  
     247A      0.234831   248A      0.237287   249A      0.237342  
     250A      0.243758   251A      0.250157   252A      0.251548  
     253A      0.251554   254A      0.253195   255A      0.253211  
     256A      0.256122   257A      0.261681   258A      0.261770  
     259A      0.262960   260A      0.262983   261A      0.264837  
     262A      0.267545   263A      0.267546   264A      0.270722  
     265A      0.270732   266A      0.271011   267A      0.274604  
     268A      0.274644   269A      0.276335   270A      0.276935  
     271A      0.276959   272A      0.277189   273A      0.278051  
     274A      0.280390   275A      0.281087   276A      0.289765  
     277A      0.291284   278A      0.291295   279A      0.293834  
     280A      0.293852   281A      0.294963   282A      0.296565  
     283A      0.296574   284A      0.303616   285A      0.304579  
     286A      0.304616   287A      0.305171   288A      0.308948  
     289A      0.308956   290A      0.311773   291A      0.311896  
     292A      0.320018   293A      0.320051   294A      0.323302  
     295A      0.323321   296A      0.327283   297A      0.327299  
     298A      0.329359   299A      0.331062   300A      0.331077  
     301A      0.340003   302A      0.340020   303A      0.341942  
     304A      0.341951   305A      0.343255   306A      0.343280  
     307A      0.349469   308A      0.356356   309A      0.356386  
     310A      0.360224   311A      0.360259   312A      0.364077  
     313A      0.364571   314A      0.364576   315A      0.365549  
     316A      0.365557   317A      0.365819   318A      0.365867  
     319A      0.371012   320A      0.371033   321A      0.373348  
     322A      0.378423   323A      0.378991   324A      0.379010  
     325A      0.379389   326A      0.380379   327A      0.380411  
     328A      0.384495   329A      0.385904   330A      0.385911  
     331A      0.388609   332A      0.390360   333A      0.391935  
     334A      0.392280   335A      0.392302   336A      0.395371  
     337A      0.398916   338A      0.402694   339A      0.402818  
     340A      0.406052   341A      0.408067   342A      0.410331  
     343A      0.410354   344A      0.412353   345A      0.413693  
     346A      0.413706   347A      0.420706   348A      0.421898  
     349A      0.423019   350A      0.423024   351A      0.423726  
     352A      0.427452   353A      0.427514   354A      0.437575  
     355A      0.437814   356A      0.437879   357A      0.444223  
     358A      0.444269   359A      0.446603   360A      0.453329  
     361A      0.455390   362A      0.455468   363A      0.458524  
     364A      0.458542   365A      0.462687   366A      0.462774  
     367A      0.462970   368A      0.463219   369A      0.463264  
     370A      0.464878   371A      0.465692   372A      0.469559  
     373A      0.470632   374A      0.470658   375A      0.472179  
     376A      0.472246   377A      0.475645   378A      0.475709  
     379A      0.479452   380A      0.479512   381A      0.480087  
     382A      0.481054   383A      0.487363   384A      0.487381  
     385A      0.490848   386A      0.491582   387A      0.495043  
     388A      0.495085   389A      0.496183   390A      0.496195  
     391A      0.499522   392A      0.502033   393A      0.502045  
     394A      0.502621   395A      0.502694   396A      0.503769  
     397A      0.510757   398A      0.511600   399A      0.512109  
     400A      0.512140   401A      0.514174   402A      0.515588  
     403A      0.515891   404A      0.515984   405A      0.521229  
     406A      0.521240   407A      0.525512   408A      0.525646  
     409A      0.525871   410A      0.529680   411A      0.529872  
     412A      0.530341   413A      0.530553   414A      0.537623  
     415A      0.537775   416A      0.540338   417A      0.541787  
     418A      0.541918   419A      0.545705   420A      0.547604  
     421A      0.549266   422A      0.549305   423A      0.552298  
     424A      0.553495   425A      0.553619   426A      0.558883  
     427A      0.561577   428A      0.561736   429A      0.566557  
     430A      0.566590   431A      0.568134   432A      0.569844  
     433A      0.569932   434A      0.572617   435A      0.572658  
     436A      0.574252   437A      0.580207   438A      0.581130  
     439A      0.581165   440A      0.582333   441A      0.585689  
     442A      0.585821   443A      0.589455   444A      0.589496  
     445A      0.599239   446A      0.599572   447A      0.600765  
     448A      0.606426   449A      0.607146   450A      0.607156  
     451A      0.615869   452A      0.620040   453A      0.620240  
     454A      0.620892   455A      0.621977   456A      0.622010  
     457A      0.623361   458A      0.624659   459A      0.626510  
     460A      0.626520   461A      0.627794   462A      0.634918  
     463A      0.637135   464A      0.638979   465A      0.640502  
     466A      0.640611   467A      0.645324   468A      0.645359  
     469A      0.648085   470A      0.658823   471A      0.660584  
     472A      0.660606   473A      0.667801   474A      0.668089  
     475A      0.669650   476A      0.674511   477A      0.679198  
     478A      0.679223   479A      0.687747   480A      0.698534  
     481A      0.698632   482A      0.705082   483A      0.705137  
     484A      0.707807   485A      0.707875   486A      0.720728  
     487A      0.720829   488A      0.727387   489A      0.733455  
     490A      0.733484   491A      0.735832   492A      0.741530  
     493A      0.743781   494A      0.743891   495A      0.747974  
     496A      0.752033   497A      0.752181   498A      0.755003  
     499A      0.756269   500A      0.756415   501A      0.764566  
     502A      0.795501   503A      0.795532   504A      0.812641  
     505A      0.816352   506A      0.819357   507A      0.823707  
     508A      0.823794   509A      0.825207   510A      0.825250  
     511A      0.834474   512A      0.834489   513A      0.846543  
     514A      0.851474   515A      0.868661   516A      0.869242  
     517A      0.869358   518A      0.869681   519A      0.884379  
     520A      0.884572   521A      0.885421   522A      0.888742  
     523A      0.893484   524A      0.896499   525A      0.896543  
     526A      0.904450   527A      0.904690   528A      0.904845  
     529A      0.904897   530A      0.906946   531A      0.907032  
     532A      0.920307   533A      0.922697   534A      0.932669  
     535A      0.932705   536A      0.940917   537A      0.942194  
     538A      0.942260   539A      0.951945   540A      0.952013  
     541A      0.957841   542A      0.957954   543A      0.964504  
     544A      0.964535   545A      0.972596   546A      0.972640  
     547A      0.976092   548A      0.976924   549A      0.976930  
     550A      0.985901   551A      0.988028   552A      0.988684  
     553A      0.988848   554A      0.989194   555A      0.996277  
     556A      0.996441   557A      0.996604   558A      0.997205  
     559A      0.997273   560A      1.000928   561A      1.003958  
     562A      1.009157   563A      1.013527   564A      1.013608  
     565A      1.019520   566A      1.019836   567A      1.021238  
     568A      1.021266   569A      1.024565   570A      1.028500  
     571A      1.031726   572A      1.031773   573A      1.035847  
     574A      1.035882   575A      1.044054   576A      1.044132  
     577A      1.047625   578A      1.047895   579A      1.052447  
     580A      1.052599   581A      1.057460   582A      1.057596  
     583A      1.063453   584A      1.068538   585A      1.068578  
     586A      1.073287   587A      1.075957   588A      1.075983  
     589A      1.087656   590A      1.091694   591A      1.091734  
     592A      1.091818   593A      1.093749   594A      1.093797  
     595A      1.100699   596A      1.108624   597A      1.108654  
     598A      1.114121   599A      1.117267   600A      1.117345  
     601A      1.120180   602A      1.120262   603A      1.120910  
     604A      1.122729   605A      1.122839   606A      1.123121  
     607A      1.127052   608A      1.127119   609A      1.129234  
     610A      1.132607   611A      1.132693   612A      1.133241  
     613A      1.138251   614A      1.141729   615A      1.142168  
     616A      1.150611   617A      1.150629   618A      1.159406  
     619A      1.159433   620A      1.161342   621A      1.162377  
     622A      1.166087   623A      1.166122   624A      1.171417  
     625A      1.173932   626A      1.173977   627A      1.178681  
     628A      1.178896   629A      1.179140   630A      1.184649  
     631A      1.184686   632A      1.187950   633A      1.188038  
     634A      1.193434   635A      1.193461   636A      1.194004  
     637A      1.201739   638A      1.201935   639A      1.206493  
     640A      1.211278   641A      1.212346   642A      1.212810  
     643A      1.213089   644A      1.223112   645A      1.223678  
     646A      1.223817   647A      1.229116   648A      1.229142  
     649A      1.229249   650A      1.234053   651A      1.234721  
     652A      1.234807   653A      1.238407   654A      1.241395  
     655A      1.251778   656A      1.251830   657A      1.256034  
     658A      1.266294   659A      1.274413   660A      1.274465  
     661A      1.277721   662A      1.277741   663A      1.281144  
     664A      1.281168   665A      1.285747   666A      1.285768  
     667A      1.288766   668A      1.293841   669A      1.300489  
     670A      1.300607   671A      1.300693   672A      1.307755  
     673A      1.307780   674A      1.313165   675A      1.315123  
     676A      1.315178   677A      1.316145   678A      1.337306  
     679A      1.337413   680A      1.339331   681A      1.339394  
     682A      1.343424   683A      1.343503   684A      1.345206  
     685A      1.345234   686A      1.353986   687A      1.354138  
     688A      1.354242   689A      1.355913   690A      1.373717  
     691A      1.375594   692A      1.376582   693A      1.376853  
     694A      1.383842   695A      1.386634   696A      1.391592  
     697A      1.391610   698A      1.395012   699A      1.395100  
     700A      1.401146   701A      1.401170   702A      1.407624  
     703A      1.407649   704A      1.410081   705A      1.410177  
     706A      1.417160   707A      1.418209   708A      1.427645  
     709A      1.431990   710A      1.432072   711A      1.437173  
     712A      1.437199   713A      1.438868   714A      1.438902  
     715A      1.441340   716A      1.455000   717A      1.455189  
     718A      1.455299   719A      1.459828   720A      1.461557  
     721A      1.461638   722A      1.472593   723A      1.482501  
     724A      1.482540   725A      1.491128   726A      1.491174  
     727A      1.492600   728A      1.492650   729A      1.498683  
     730A      1.502120   731A      1.503465   732A      1.511369  
     733A      1.512735   734A      1.512799   735A      1.515941  
     736A      1.516013   737A      1.517879   738A      1.521975  
     739A      1.522169   740A      1.528167   741A      1.528529  
     742A      1.528583   743A      1.529590   744A      1.532210  
     745A      1.552979   746A      1.553074   747A      1.560297  
     748A      1.560397   749A      1.595827   750A      1.595848  
     751A      1.602625   752A      1.602654   753A      1.609186  
     754A      1.628670   755A      1.633395   756A      1.663140  
     757A      1.663312   758A      1.663362   759A      1.675748  
     760A      1.684338   761A      1.684964   762A      1.694329  
     763A      1.694409   764A      1.697835   765A      1.705262  
     766A      1.705436   767A      1.705713   768A      1.708246  
     769A      1.708426   770A      1.712731   771A      1.719708  
     772A      1.719909   773A      1.724217   774A      1.724249  
     775A      1.725261   776A      1.731356   777A      1.731558  
     778A      1.734645   779A      1.740742   780A      1.740774  
     781A      1.746514   782A      1.753144   783A      1.754793  
     784A      1.754842   785A      1.758562   786A      1.761820  
     787A      1.761890   788A      1.762453   789A      1.769011  
     790A      1.769045   791A      1.774651   792A      1.777276  
     793A      1.777318   794A      1.779514   795A      1.788767  
     796A      1.788859   797A      1.789176   798A      1.795361  
     799A      1.795388   800A      1.821890   801A      1.832992  
     802A      1.835809   803A      1.836950   804A      1.836962  
     805A      1.841341   806A      1.856191   807A      1.856205  
     808A      1.871402   809A      1.871420   810A      1.894352  
     811A      1.894608   812A      1.894650   813A      1.906846  
     814A      1.906926   815A      1.910191   816A      1.910248  
     817A      1.918683   818A      1.923651   819A      1.926379  
     820A      1.930606   821A      1.937698   822A      1.937751  
     823A      1.944481   824A      1.945852   825A      1.945955  
     826A      1.951006   827A      1.956009   828A      1.961396  
     829A      1.961419   830A      1.977043   831A      1.977142  
     832A      1.977253   833A      1.979046   834A      1.979180  
     835A      1.990287   836A      1.990411   837A      1.996229  
     838A      1.996368   839A      1.997870   840A      1.997936  
     841A      1.999530   842A      2.002005   843A      2.002059  
     844A      2.014872   845A      2.015411   846A      2.015479  
     847A      2.019838   848A      2.022184   849A      2.022234  
     850A      2.031836   851A      2.032001   852A      2.033880  
     853A      2.033974   854A      2.037568   855A      2.044456  
     856A      2.044524   857A      2.051265   858A      2.072034  
     859A      2.072151   860A      2.072847   861A      2.076341  
     862A      2.078291   863A      2.081223   864A      2.081349  
     865A      2.084221   866A      2.088210   867A      2.088240  
     868A      2.096977   869A      2.096996   870A      2.104362  
     871A      2.104756   872A      2.104869   873A      2.105189  
     874A      2.110852   875A      2.112206   876A      2.112694  
     877A      2.112729   878A      2.130039   879A      2.131219  
     880A      2.131292   881A      2.135506   882A      2.135691  
     883A      2.144282   884A      2.144771   885A      2.152151  
     886A      2.152868   887A      2.153073   888A      2.153215  
     889A      2.156230   890A      2.162828   891A      2.163159  
     892A      2.164177   893A      2.164293   894A      2.168504  
     895A      2.171791   896A      2.173958   897A      2.177964  
     898A      2.178079   899A      2.180394   900A      2.182613  
     901A      2.182672   902A      2.185795   903A      2.188180  
     904A      2.188249   905A      2.190566   906A      2.196276  
     907A      2.197693   908A      2.197753   909A      2.200243  
     910A      2.203236   911A      2.203367   912A      2.206388  
     913A      2.206557   914A      2.211182   915A      2.213223  
     916A      2.213290   917A      2.213487   918A      2.214740  
     919A      2.214782   920A      2.221763   921A      2.221827  
     922A      2.229558   923A      2.242673   924A      2.242727  
     925A      2.246470   926A      2.254429   927A      2.259968  
     928A      2.260409   929A      2.261717   930A      2.261832  
     931A      2.269199   932A      2.269463   933A      2.270188  
     934A      2.274035   935A      2.281840   936A      2.282146  
     937A      2.288769   938A      2.299417   939A      2.300237  
     940A      2.300369   941A      2.307780   942A      2.307924  
     943A      2.308518   944A      2.315478   945A      2.318993  
     946A      2.319164   947A      2.321132   948A      2.321251  
     949A      2.324337   950A      2.331481   951A      2.331524  
     952A      2.339651   953A      2.339774   954A      2.349094  
     955A      2.349102   956A      2.350492   957A      2.350531  
     958A      2.355785   959A      2.378932   960A      2.384679  
     961A      2.396942   962A      2.397432   963A      2.399230  
     964A      2.409718   965A      2.416323   966A      2.416402  
     967A      2.421266   968A      2.424413   969A      2.429913  
     970A      2.434297   971A      2.434685   972A      2.435399  
     973A      2.435891   974A      2.449767   975A      2.449870  
     976A      2.460810   977A      2.474641   978A      2.493787  
     979A      2.503717   980A      2.504279   981A      2.504309  
     982A      2.513927   983A      2.523005   984A      2.523037  
     985A      2.550892   986A      2.555958   987A      2.556108  
     988A      2.567842   989A      2.567875   990A      2.583432  
     991A      2.600964   992A      2.610690   993A      2.614705  
     994A      2.624555   995A      2.624592   996A      2.625331  
     997A      2.630164   998A      2.630233   999A      2.638323  
    1000A      2.639194  1001A      2.639202  1002A      2.651815  
    1003A      2.652321  1004A      2.652900  1005A      2.652934  
    1006A      2.664500  1007A      2.664648  1008A      2.667508  
    1009A      2.669138  1010A      2.672501  1011A      2.687295  
    1012A      2.702591  1013A      2.702670  1014A      2.712001  
    1015A      2.712559  1016A      2.713093  1017A      2.719822  
    1018A      2.719953  1019A      2.729412  1020A      2.729717  
    1021A      2.734985  1022A      2.762468  1023A      2.767095  
    1024A      2.767854  1025A      2.768009  1026A      2.787199  
    1027A      2.787625  1028A      2.794438  1029A      2.794456  
    1030A      2.799424  1031A      2.799440  1032A      2.804308  
    1033A      2.804522  1034A      2.826228  1035A      2.835159  
    1036A      2.835517  1037A      2.859190  1038A      2.877914  
    1039A      2.878010  1040A      2.901432  1041A      2.909633  
    1042A      2.910202  1043A      2.936787  1044A      2.936912  
    1045A      2.940578  1046A      2.942424  1047A      2.942537  
    1048A      2.942855  1049A      2.952618  1050A      2.996658  
    1051A      2.996690  1052A      3.003055  1053A      3.014280  
    1054A      3.014344  1055A      3.030704  1056A      3.030895  
    1057A      3.041451  1058A      3.086944  1059A      3.087094  
    1060A      3.088159  1061A      3.105431  1062A      3.143896  
    1063A      3.144137  1064A      3.148329  1065A      3.148343  
    1066A      3.153026  1067A      3.173685  1068A      3.174031  
    1069A      3.210192  1070A      3.210390  1071A      3.210568  
    1072A      3.212144  1073A      3.212260  1074A      3.216078  
    1075A      3.225747  1076A      3.226017  1077A      3.226052  
    1078A      3.233418  1079A      3.233557  1080A      3.240220  
    1081A      3.240352  1082A      3.245029  1083A      3.245403  
    1084A      3.267994  1085A      3.287044  1086A      3.300593  
    1087A      3.320946  1088A      3.356823  1089A      3.357001  
    1090A      3.358816  1091A      3.364502  1092A      3.373619  
    1093A      3.373750  1094A      3.501919  1095A      3.502280  
    1096A      3.556223  1097A      3.571754  1098A      3.573686  
    1099A      3.637034  1100A      3.672552  1101A      3.674314  
    1102A      3.684020  1103A      3.709547  1104A      3.711211  
    1105A      3.744642  1106A      3.753408  1107A      3.852851  
    1108A      3.874726  1109A      3.875847  1110A      3.949182  
    1111A      3.949203  1112A      3.993280  1113A      3.993361  
    1114A      4.059882  1115A      4.093812  1116A      4.133894  
    1117A      4.142110  1118A      4.162506  1119A      4.170122  
    1120A      4.171415  1121A      4.194075  1122A      4.196663  
    1123A      4.199055  1124A      4.199595  1125A      4.203093  
    1126A      4.203786  1127A      4.248846  1128A      4.249013  
    1129A      4.254566  1130A      4.439938  1131A      4.440317  
    1132A      4.445486  1133A      4.651084  1134A      4.651155  
    1135A      4.666864  1136A      4.744180  1137A      4.780270  
    1138A      4.780556  

    Final Occupation by Irrep:
              A 
    DOCC [   192 ]
    NA   [   192 ]
    NB   [   192 ]

  @DF-RHF Final Energy: -2478.66395895428650

   => Energetics <=

    Nuclear Repulsion Energy =           7904.2768814490891600
    One-Electron Energy =              -19166.8133244200253102
    Two-Electron Energy =                8783.8724840166505601
    Total Energy =                      -2478.6639589542864996

Computation Completed


Properties will be evaluated at   0.000000,   0.000000,   0.000000 [a0]

Properties computed using the SCF density matrix


 Multipole Moments:

 ------------------------------------------------------------------------------------
     Multipole            Electronic (a.u.)      Nuclear  (a.u.)        Total (a.u.)
 ------------------------------------------------------------------------------------

 L = 1.  Multiply by 2.5417464519 to convert [e a0] to [Debye]
 Dipole X            :         -0.0005609            0.0000481           -0.0005128
 Dipole Y            :          0.0010060           -0.0001453            0.0008607
 Dipole Z            :         18.3102944          -23.2951119           -4.9848174
 Magnitude           :                                                    4.9848175

 ------------------------------------------------------------------------------------

*** tstop() called on d-18-8-4 at Mon Jan 22 10:43:28 2024
Module time:
	user time   =    3885.24 seconds =      64.75 minutes
	system time =     108.14 seconds =       1.80 minutes
	total time  =        456 seconds =       7.60 minutes
Total time:
	user time   =    3885.24 seconds =      64.75 minutes
	system time =     108.14 seconds =       1.80 minutes
	total time  =        456 seconds =       7.60 minutes

  //>>>>>>>>>>>>>>>>>>>>>>>>>>>>>>>>>>>//
  //            Monomer A HF           //
  //<<<<<<<<<<<<<<<<<<<<<<<<<<<<<<<<<<<//

   => Libint2 <=

    Primary   basis highest AM E, G, H:  7, 7, 4
    Auxiliary basis highest AM E, G, H:  7, 7, 5
    Onebody   basis highest AM E, G, H:  7, 7, 5
    Solid Harmonics ordering:            gaussian

*** tstart() called on d-18-8-4
*** at Mon Jan 22 10:43:28 2024

   => Loading Basis Set <=

    Name: JUN-CC-PVDZ
    Role: ORBITAL
    Keyword: BASIS
    atoms 1     entry B          line   130 file /home/gridsan/tfroembgen/.conda/envs/psi4test/share/psi4/basis/jun-cc-pvdz.gbs 
    atoms 2-5   entry F          line   266 file /home/gridsan/tfroembgen/.conda/envs/psi4test/share/psi4/basis/jun-cc-pvdz.gbs 
    atoms 6-59  entry C          line   164 file /home/gridsan/tfroembgen/.conda/envs/psi4test/share/psi4/basis/jun-cc-pvdz.gbs 
    atoms 60-77 entry H          line    36 file /home/gridsan/tfroembgen/.conda/envs/psi4test/share/psi4/basis/jun-cc-pvdz.gbs 


         ---------------------------------------------------------
                                   SCF
               by Justin Turney, Rob Parrish, Andy Simmonett
                          and Daniel G. A. Smith
                              RHF Reference
                       12 Threads,  30517 MiB Core
         ---------------------------------------------------------

  ==> Geometry <==

    Molecular point group: c1
    Full point group: C1

    Geometry (in Angstrom), charge = -1, multiplicity = 1:

       Center              X                  Y                   Z               Mass       
    ------------   -----------------  -----------------  -----------------  -----------------
         B           -0.000198161052     0.000273808717     3.361061473265    11.009305360000
         F           -0.000000401852    -0.000000464183     4.773846473265    18.998403162730
         F            1.147859598148     0.675780735817     2.889920473265    18.998403162730
         F            0.011917658148    -1.332011464183     2.890122473265    18.998403162730
         F           -1.159666401852     0.656073035817     2.890201473265    18.998403162730
      Gh(C)           1.225311973413     0.707538196736    -0.432834899451    12.000000000000
      Gh(C)           1.225323934041    -0.707538986754    -0.445165709021    12.000000000000
      Gh(C)          -0.000006075942     1.414965821907    -0.445699332542    12.000000000000
      Gh(C)           2.456448831939     1.418327794995    -0.429948042051    12.000000000000
      Gh(C)           0.000010905269    -1.414976590818    -0.435499775218    12.000000000000
      Gh(C)          -1.225300870919     0.707545281801    -0.430583379129    12.000000000000
      Gh(C)           2.456437833310    -1.418323396064    -0.447410865878    12.000000000000
      Gh(C)          -0.000001254988     2.836800939098    -0.448102882676    12.000000000000
      Gh(C)           3.681826775460     0.709317863818    -0.447062076080    12.000000000000
      Gh(C)           2.455120126855     2.834223569306    -0.447164633041    12.000000000000
      Gh(C)           3.681821183209    -0.709333931612    -0.430989592062    12.000000000000
      Gh(C)          -1.225313520698    -0.707527607727    -0.444092947595    12.000000000000
      Gh(C)           1.226699659192     3.543469391811    -0.430805560131    12.000000000000
      Gh(C)           0.000004862847    -2.836782231419    -0.430651607596    12.000000000000
      Gh(C)          -2.456435954859     1.418316826102    -0.430547983283    12.000000000000
      Gh(C)           2.455123495769    -2.834230120772    -0.431141500430    12.000000000000
      Gh(C)          -1.226714286599     3.543468971567    -0.430702226912    12.000000000000
      Gh(C)           4.914517373191     1.427172780306    -0.440581393051    12.000000000000
      Gh(C)           3.693150269466     3.542795200362    -0.440531593415    12.000000000000
      Gh(C)          -2.456437522078    -1.418313373022    -0.447435904003    12.000000000000
      Gh(C)           1.226704919933    -3.543474334090    -0.446775690881    12.000000000000
      Gh(C)          -2.455125320518     2.834216570451    -0.447158256695    12.000000000000
      Gh(C)           4.914524458772    -1.427187002127    -0.437608650316    12.000000000000
      Gh(C)           1.221424691688     4.970133973077    -0.437470216057    12.000000000000
      Gh(C)           4.893008307311     2.825187907843    -0.439364724692    12.000000000000
      Gh(C)          -1.226696930499    -3.543471089260    -0.446508486472    12.000000000000
      Gh(C)          -3.681818898536     0.709324874549    -0.447049395600    12.000000000000
      Gh(C)           3.693147179140    -3.542801433574    -0.437490759756    12.000000000000
      Gh(C)          -1.221432174004     4.970128205680    -0.437286720684    12.000000000000
      Gh(C)           6.134771050916     0.680547854922    -0.439811618501    12.000000000000
      Gh(C)           3.656788958600     4.972953151384    -0.439622955632    12.000000000000
      Gh(C)          -2.455126829744    -2.834215185244    -0.431385858228    12.000000000000
      Gh(C)          -3.681819101071    -0.709325795652    -0.430871970483    12.000000000000
      Gh(C)           4.893012695903    -2.825200197815    -0.438753572797    12.000000000000
      Gh(C)          -0.000000995123     5.650447273849    -0.438518029391    12.000000000000
      Gh(C)           6.134775190322    -0.680554946258    -0.438546297985    12.000000000000
      Gh(C)           2.478131560845     5.653576659148    -0.438334175982    12.000000000000
      Gh(C)           1.221422482727    -4.970127147116    -0.440269713079    12.000000000000
      Gh(C)          -3.693162305975     3.542796862009    -0.440366085955    12.000000000000
      Gh(C)          -1.221428442955    -4.970118395779    -0.440382474912    12.000000000000
      Gh(C)          -4.914521729952     1.427175354812    -0.440504448043    12.000000000000
      Gh(C)           3.656787097669    -4.972955318422    -0.438172455098    12.000000000000
      Gh(C)          -2.478138452116     5.653574330345    -0.438049650974    12.000000000000
      Gh(C)          -3.693141660574    -3.542790311162    -0.437606885911    12.000000000000
      Gh(C)          -4.914512405063    -1.427181092211    -0.437573953143    12.000000000000
      Gh(C)          -0.000005930936    -5.650438379197    -0.438913533512    12.000000000000
      Gh(C)          -4.893020406111     2.825188506736    -0.439374806552    12.000000000000
      Gh(C)           2.478126071288    -5.653573636072    -0.439263055890    12.000000000000
      Gh(C)          -3.656798632268     4.972956089858    -0.439446275258    12.000000000000
      Gh(C)          -4.892999400866    -2.825191859243    -0.438907608494    12.000000000000
      Gh(C)          -2.478128420093    -5.653566262190    -0.439538243538    12.000000000000
      Gh(C)          -6.134770425341     0.680548674073    -0.439837170203    12.000000000000
      Gh(C)          -3.656788755199    -4.972944115154    -0.438386742915    12.000000000000
      Gh(C)          -6.134764964923    -0.680554007665    -0.438566773780    12.000000000000
      Gh(H)           5.835288573806     3.369275802771    -0.435005399029     1.007825032230
      Gh(H)           7.073859250737     1.228217156716    -0.439349975108     1.007825032230
      Gh(H)           4.600663342164     5.512380710270    -0.439117754880     1.007825032230
      Gh(H)           5.835283465295    -3.369306148912    -0.443208040111     1.007825032230
      Gh(H)          -0.000012073316     6.738530581953    -0.442867274399     1.007825032230
      Gh(H)           7.073861249820    -1.228227034927    -0.439055036080     1.007825032230
      Gh(H)           2.473313809789     6.740684199211    -0.438800896913     1.007825032230
      Gh(H)           4.600668569371    -5.512376221359    -0.438582452266     1.007825032230
      Gh(H)          -2.473318602548     6.740681627423    -0.438499550288     1.007825032230
      Gh(H)          -0.000010190238    -6.738528268635    -0.434383848527     1.007825032230
      Gh(H)          -5.835301836354     3.369270858113    -0.434869376881     1.007825032230
      Gh(H)           2.473308001821    -6.740685466612    -0.438692725465     1.007825032230
      Gh(H)          -4.600674763218     5.512377934420    -0.438952426556     1.007825032230
      Gh(H)          -5.835279428845    -3.369289055963    -0.443487345992     1.007825032230
      Gh(H)          -2.473300269450    -6.740679170323    -0.439142042010     1.007825032230
      Gh(H)          -7.073857688778     1.228220380657    -0.439433966589     1.007825032230
      Gh(H)          -4.600673708095    -5.512362761970    -0.438754760289     1.007825032230
      Gh(H)          -7.073856856419    -1.228220724160    -0.439149892546     1.007825032230

  Running in c1 symmetry.

  Rotational constants: A =      0.00191  B =      0.00191  C =      0.00110 [cm^-1]
  Rotational constants: A =     57.34324  B =     57.33564  C =     33.02251 [MHz]
  Nuclear repulsion =  178.879455044809106

  Charge       = -1
  Multiplicity = 1
  Electrons    = 42
  Nalpha       = 21
  Nbeta        = 21

  ==> Algorithm <==

  SCF Algorithm Type is DF.
  DIIS enabled.
  MOM disabled.
  Fractional occupation disabled.
  Guess Type is SAD.
  Energy threshold   = 1.00e-08
  Density threshold  = 1.00e-08
  Integral threshold = 1.00e-12

  ==> Primary Basis <==

  Basis Set: JUN-CC-PVDZ
    Blend: JUN-CC-PVDZ
    Number of shells: 526
    Number of basis functions: 1152
    Number of Cartesian functions: 1211
    Spherical Harmonics?: true
    Max angular momentum: 2

   => Loading Basis Set <=

    Name: (JUN-CC-PVDZ AUX)
    Role: JKFIT
    Keyword: DF_BASIS_SCF
    atoms 1     entry B          line    90 file /home/gridsan/tfroembgen/.conda/envs/psi4test/share/psi4/basis/jun-cc-pvdz-jkfit.gbs 
    atoms 2-5   entry F          line   314 file /home/gridsan/tfroembgen/.conda/envs/psi4test/share/psi4/basis/jun-cc-pvdz-jkfit.gbs 
    atoms 6-59  entry C          line   146 file /home/gridsan/tfroembgen/.conda/envs/psi4test/share/psi4/basis/jun-cc-pvdz-jkfit.gbs 
    atoms 60-77 entry H          line    70 file /home/gridsan/tfroembgen/.conda/envs/psi4test/share/psi4/basis/jun-cc-pvdz-jkfit.gbs 

  ==> Integral Setup <==

  ==> DiskDFJK: Density-Fitted J/K Matrices <==

    J tasked:                  Yes
    K tasked:                  Yes
    wK tasked:                  No
    OpenMP threads:             12
    Integrals threads:          12
    Memory [MiB]:            22888
    Algorithm:                Core
    Integral Cache:           LOAD
    Schwarz Cutoff:          1E-12
    Fitting Condition:       1E-10

   => Auxiliary Basis Set <=

  Basis Set: (JUN-CC-PVDZ AUX)
    Blend: JUN-CC-PVDZ-JKFIT
    Number of shells: 1755
    Number of basis functions: 5075
    Number of Cartesian functions: 5819
    Spherical Harmonics?: true
    Max angular momentum: 3

  Minimum eigenvalue in the overlap matrix is 7.3243039092E-10.
  Reciprocal condition number of the overlap matrix is 3.1332971506E-11.
    Using canonical orthogonalization.
  Overall, 14 of 1152 possible MOs eliminated.


  ==> Pre-Iterations <==

  SCF Guess: Superposition of Atomic Densities via on-the-fly atomic UHF (no occupation information).

   -------------------------
    Irrep   Nso     Nmo    
   -------------------------
     A       1152    1138 
   -------------------------
    Total    1152    1138
   -------------------------

  ==> Iterations <==

                           Total Energy        Delta E     RMS |[F,P]|

   @DF-RHF iter SAD:  -421.23045011512829   -4.21230e+02   0.00000e+00 
   @DF-RHF iter   1:  -422.65114848761505   -1.42070e+00   5.30548e-04 ADIIS/DIIS
   @DF-RHF iter   2:  -422.73409460046753   -8.29461e-02   3.23789e-04 ADIIS/DIIS
   @DF-RHF iter   3:  -422.77262801075392   -3.85334e-02   1.74834e-05 DIIS
   @DF-RHF iter   4:  -422.77299023539729   -3.62225e-04   2.77543e-06 DIIS
   @DF-RHF iter   5:  -422.77299895615187   -8.72075e-06   7.16826e-07 DIIS
   @DF-RHF iter   6:  -422.77299953870698   -5.82555e-07   1.47192e-07 DIIS
   @DF-RHF iter   7:  -422.77299956076007   -2.20531e-08   1.56260e-08 DIIS
   @DF-RHF iter   8:  -422.77299956100262   -2.42551e-10   5.72007e-09 DIIS
  Energy and wave function converged.


  ==> Post-Iterations <==

    Orbital Energies [Eh]
    ---------------------

    Doubly Occupied:                                                      

       1A    -26.067091     2A    -26.067078     3A    -26.066993  
       4A    -26.066909     5A     -7.538643     6A     -1.410708  
       7A     -1.351140     8A     -1.351031     9A     -1.350866  
      10A     -0.601962    11A     -0.528205    12A     -0.528166  
      13A     -0.528080    14A     -0.447036    15A     -0.446994  
      16A     -0.408305    17A     -0.408276    18A     -0.408195  
      19A     -0.384803    20A     -0.384741    21A     -0.384610  

    Virtual:                                                              

      22A      0.091221    23A      0.091711    24A      0.091716  
      25A      0.098305    26A      0.098308    27A      0.109555  
      28A      0.110249    29A      0.121734    30A      0.125756  
      31A      0.125757    32A      0.133744    33A      0.133746  
      34A      0.143697    35A      0.143703    36A      0.146354  
      37A      0.148839    38A      0.148842    39A      0.149209  
      40A      0.149224    41A      0.159991    42A      0.160798  
      43A      0.160801    44A      0.164994    45A      0.165123  
      46A      0.169266    47A      0.173373    48A      0.177330  
      49A      0.178022    50A      0.180869    51A      0.182099  
      52A      0.182105    53A      0.188252    54A      0.188261  
      55A      0.188879    56A      0.188885    57A      0.194597  
      58A      0.194622    59A      0.198398    60A      0.201826  
      61A      0.201830    62A      0.204128    63A      0.204135  
      64A      0.204889    65A      0.204891    66A      0.207483  
      67A      0.213200    68A      0.213209    69A      0.213852  
      70A      0.213854    71A      0.219953    72A      0.222662  
      73A      0.223381    74A      0.223382    75A      0.224809  
      76A      0.232117    77A      0.232138    78A      0.234440  
      79A      0.235668    80A      0.235683    81A      0.236255  
      82A      0.236270    83A      0.241568    84A      0.242473  
      85A      0.245420    86A      0.245422    87A      0.246758  
      88A      0.248328    89A      0.255247    90A      0.255282  
      91A      0.259342    92A      0.260070    93A      0.264252  
      94A      0.267687    95A      0.269556    96A      0.269560  
      97A      0.272828    98A      0.274193    99A      0.274217  
     100A      0.277628   101A      0.277635   102A      0.279111  
     103A      0.281988   104A      0.281996   105A      0.284203  
     106A      0.284210   107A      0.288433   108A      0.288436  
     109A      0.293444   110A      0.294483   111A      0.300576  
     112A      0.300591   113A      0.303379   114A      0.303386  
     115A      0.307601   116A      0.307624   117A      0.308562  
     118A      0.309484   119A      0.309496   120A      0.310818  
     121A      0.316169   122A      0.319719   123A      0.320536  
     124A      0.325535   125A      0.325558   126A      0.327827  
     127A      0.327830   128A      0.329725   129A      0.329730  
     130A      0.334964   131A      0.334983   132A      0.336448  
     133A      0.342876   134A      0.342897   135A      0.347602  
     136A      0.347646   137A      0.348845   138A      0.351738  
     139A      0.353212   140A      0.353347   141A      0.353350  
     142A      0.356576   143A      0.356581   144A      0.359816  
     145A      0.359817   146A      0.361095   147A      0.365338  
     148A      0.370234   149A      0.381581   150A      0.385335  
     151A      0.385349   152A      0.387022   153A      0.387101  
     154A      0.387259   155A      0.391405   156A      0.392025  
     157A      0.392043   158A      0.401721   159A      0.401723  
     160A      0.402227   161A      0.403201   162A      0.408372  
     163A      0.408406   164A      0.409849   165A      0.409890  
     166A      0.411596   167A      0.412880   168A      0.419131  
     169A      0.422921   170A      0.422982   171A      0.425340  
     172A      0.432782   173A      0.432835   174A      0.434480  
     175A      0.434541   176A      0.439150   177A      0.439543  
     178A      0.441472   179A      0.441553   180A      0.442585  
     181A      0.444544   182A      0.444563   183A      0.449198  
     184A      0.449636   185A      0.449940   186A      0.453031  
     187A      0.453819   188A      0.454020   189A      0.455451  
     190A      0.460114   191A      0.460221   192A      0.464611  
     193A      0.464659   194A      0.466251   195A      0.466284  
     196A      0.475089   197A      0.475145   198A      0.480755  
     199A      0.482402   200A      0.482425   201A      0.489608  
     202A      0.489658   203A      0.490601   204A      0.497098  
     205A      0.501297   206A      0.502831   207A      0.503150  
     208A      0.503188   209A      0.505545   210A      0.511135  
     211A      0.511188   212A      0.511258   213A      0.513987  
     214A      0.514083   215A      0.516105   216A      0.516142  
     217A      0.517576   218A      0.518277   219A      0.519911  
     220A      0.519959   221A      0.524360   222A      0.524405  
     223A      0.528558   224A      0.528591   225A      0.529808  
     226A      0.534605   227A      0.535435   228A      0.535466  
     229A      0.544992   230A      0.550581   231A      0.550876  
     232A      0.552910   233A      0.552942   234A      0.556341  
     235A      0.556388   236A      0.560145   237A      0.562067  
     238A      0.562213   239A      0.562229   240A      0.566077  
     241A      0.566141   242A      0.566855   243A      0.567943  
     244A      0.568032   245A      0.572268   246A      0.577785  
     247A      0.577852   248A      0.578323   249A      0.585557  
     250A      0.585933   251A      0.585969   252A      0.596853  
     253A      0.600711   254A      0.600796   255A      0.601091  
     256A      0.602209   257A      0.602280   258A      0.604327  
     259A      0.605588   260A      0.605599   261A      0.606068  
     262A      0.607251   263A      0.609394   264A      0.609422  
     265A      0.618766   266A      0.621612   267A      0.626680  
     268A      0.629196   269A      0.629269   270A      0.631665  
     271A      0.631714   272A      0.633166   273A      0.638847  
     274A      0.644472   275A      0.644558   276A      0.646367  
     277A      0.646431   278A      0.654736   279A      0.656713  
     280A      0.657000   281A      0.658007   282A      0.658054  
     283A      0.662035   284A      0.662066   285A      0.672325  
     286A      0.674486   287A      0.674574   288A      0.675719  
     289A      0.675768   290A      0.681966   291A      0.682011  
     292A      0.684798   293A      0.692084   294A      0.692093  
     295A      0.693698   296A      0.693726   297A      0.700070  
     298A      0.700123   299A      0.707696   300A      0.707735  
     301A      0.714914   302A      0.720946   303A      0.723097  
     304A      0.723333   305A      0.723851   306A      0.723860  
     307A      0.725647   308A      0.725807   309A      0.733734  
     310A      0.733793   311A      0.737268   312A      0.738460  
     313A      0.738516   314A      0.742977   315A      0.749913  
     316A      0.753218   317A      0.753238   318A      0.760648  
     319A      0.763360   320A      0.763387   321A      0.766167  
     322A      0.766196   323A      0.768088   324A      0.773092  
     325A      0.773174   326A      0.775626   327A      0.779254  
     328A      0.785003   329A      0.785434   330A      0.785801  
     331A      0.785828   332A      0.795424   333A      0.795474  
     334A      0.802275   335A      0.802555   336A      0.806129  
     337A      0.806427   338A      0.806451   339A      0.812319  
     340A      0.816518   341A      0.816634   342A      0.821900  
     343A      0.822028   344A      0.823843   345A      0.832578  
     346A      0.837548   347A      0.837618   348A      0.837691  
     349A      0.839944   350A      0.839988   351A      0.845353  
     352A      0.845388   353A      0.850087   354A      0.851332  
     355A      0.851428   356A      0.856114   357A      0.856177  
     358A      0.859426   359A      0.868307   360A      0.868490  
     361A      0.873171   362A      0.874989   363A      0.875014  
     364A      0.875302   365A      0.878271   366A      0.878272  
     367A      0.880640   368A      0.880744   369A      0.883969  
     370A      0.884000   371A      0.888265   372A      0.889453  
     373A      0.894527   374A      0.894560   375A      0.905325  
     376A      0.906539   377A      0.906621   378A      0.913457  
     379A      0.916211   380A      0.916266   381A      0.930230  
     382A      0.930249   383A      0.948563   384A      0.963868  
     385A      0.964230   386A      0.965549   387A      0.965568  
     388A      0.978802   389A      0.978852   390A      0.980850  
     391A      0.980911   392A      0.983001   393A      0.983075  
     394A      0.985016   395A      0.994038   396A      0.999766  
     397A      0.999912   398A      1.021756   399A      1.021766  
     400A      1.033525   401A      1.040930   402A      1.040953  
     403A      1.052742   404A      1.052780   405A      1.058000  
     406A      1.060396   407A      1.060455   408A      1.061042  
     409A      1.061686   410A      1.070266   411A      1.070270  
     412A      1.098058   413A      1.099445   414A      1.104302  
     415A      1.127693   416A      1.127759   417A      1.143322  
     418A      1.143338   419A      1.146184   420A      1.150934  
     421A      1.150980   422A      1.160992   423A      1.161034  
     424A      1.181246   425A      1.181273   426A      1.181653  
     427A      1.192545   428A      1.246481   429A      1.250576  
     430A      1.250614   431A      1.251249   432A      1.251353  
     433A      1.262184   434A      1.262193   435A      1.266942  
     436A      1.285956   437A      1.286002   438A      1.308065  
     439A      1.308075   440A      1.312134   441A      1.320250  
     442A      1.325203   443A      1.364040   444A      1.364142  
     445A      1.383641   446A      1.390628   447A      1.390700  
     448A      1.395359   449A      1.395410   450A      1.398952  
     451A      1.407793   452A      1.407864   453A      1.420366  
     454A      1.424672   455A      1.446170   456A      1.462425  
     457A      1.462478   458A      1.512501   459A      1.544662  
     460A      1.545001   461A      1.558243   462A      1.558274  
     463A      1.565922   464A      1.566047   465A      1.570052  
     466A      1.573720   467A      1.580351   468A      1.580995  
     469A      1.626517   470A      1.644483   471A      1.651281  
     472A      1.651474   473A      1.662711   474A      1.663565  
     475A      1.668953   476A      1.677104   477A      1.677180  
     478A      1.690244   479A      1.724789   480A      1.735694  
     481A      1.736624   482A      1.753114   483A      1.754039  
     484A      1.755078   485A      1.773322   486A      1.773635  
     487A      1.776435   488A      1.784363   489A      1.785030  
     490A      1.796991   491A      1.808820   492A      1.831695  
     493A      1.832203   494A      1.833424   495A      1.834858  
     496A      1.835256   497A      1.837208   498A      1.840652  
     499A      1.840748   500A      1.860838   501A      1.864338  
     502A      1.869737   503A      1.869854   504A      1.877694  
     505A      1.878528   506A      1.882558   507A      1.883610  
     508A      1.903636   509A      1.905940   510A      1.911975  
     511A      1.912145   512A      1.912757   513A      1.916452  
     514A      1.916767   515A      1.917256   516A      1.920156  
     517A      1.924748   518A      1.924857   519A      1.925298  
     520A      1.934521   521A      1.934709   522A      1.934758  
     523A      1.945531   524A      1.946474   525A      1.962448  
     526A      1.964001   527A      1.964235   528A      1.964884  
     529A      1.970827   530A      1.976591   531A      1.976725  
     532A      1.979421   533A      1.987057   534A      1.987254  
     535A      1.993775   536A      1.993841   537A      2.001758  
     538A      2.004307   539A      2.005379   540A      2.007138  
     541A      2.007427   542A      2.007882   543A      2.013847  
     544A      2.014402   545A      2.019132   546A      2.019540  
     547A      2.027034   548A      2.036903   549A      2.038403  
     550A      2.038425   551A      2.046065   552A      2.046087  
     553A      2.048208   554A      2.048297   555A      2.052336  
     556A      2.059562   557A      2.063696   558A      2.064027  
     559A      2.070504   560A      2.070717   561A      2.079072  
     562A      2.079249   563A      2.080603   564A      2.082988  
     565A      2.083036   566A      2.085112   567A      2.088418  
     568A      2.088939   569A      2.089046   570A      2.092999  
     571A      2.106421   572A      2.117620   573A      2.117700  
     574A      2.121005   575A      2.121120   576A      2.139131  
     577A      2.139296   578A      2.150333   579A      2.163789  
     580A      2.163937   581A      2.164264   582A      2.164774  
     583A      2.170691   584A      2.180715   585A      2.180869  
     586A      2.181734   587A      2.182271   588A      2.182509  
     589A      2.187545   590A      2.203028   591A      2.203945  
     592A      2.213145   593A      2.213266   594A      2.213562  
     595A      2.217783   596A      2.220014   597A      2.220074  
     598A      2.223679   599A      2.223751   600A      2.226310  
     601A      2.228185   602A      2.228254   603A      2.234240  
     604A      2.234914   605A      2.234956   606A      2.238358  
     607A      2.242205   608A      2.242230   609A      2.243252  
     610A      2.243356   611A      2.247625   612A      2.248860  
     613A      2.249103   614A      2.250850   615A      2.250915  
     616A      2.252784   617A      2.252833   618A      2.257434  
     619A      2.260073   620A      2.260120   621A      2.262558  
     622A      2.262576   623A      2.270417   624A      2.272378  
     625A      2.273578   626A      2.273725   627A      2.276868  
     628A      2.276900   629A      2.278134   630A      2.278482  
     631A      2.282728   632A      2.282855   633A      2.286141  
     634A      2.287293   635A      2.290936   636A      2.308204  
     637A      2.308244   638A      2.319131   639A      2.319174  
     640A      2.321826   641A      2.328779   642A      2.331269  
     643A      2.333960   644A      2.333985   645A      2.335679  
     646A      2.335835   647A      2.343938   648A      2.343957  
     649A      2.352820   650A      2.359102   651A      2.359209  
     652A      2.362491   653A      2.363685   654A      2.363907  
     655A      2.364051   656A      2.368688   657A      2.368787  
     658A      2.373936   659A      2.374375   660A      2.375013  
     661A      2.382173   662A      2.382313   663A      2.383195  
     664A      2.398405   665A      2.398411   666A      2.404251  
     667A      2.418945   668A      2.418969   669A      2.424288  
     670A      2.427988   671A      2.430095   672A      2.430171  
     673A      2.440244   674A      2.440297   675A      2.446540  
     676A      2.448958   677A      2.457537   678A      2.457596  
     679A      2.461135   680A      2.465544   681A      2.466329  
     682A      2.466340   683A      2.467068   684A      2.467127  
     685A      2.468984   686A      2.477702   687A      2.480899  
     688A      2.484582   689A      2.484709   690A      2.488138  
     691A      2.488264   692A      2.492688   693A      2.496027  
     694A      2.503803   695A      2.503850   696A      2.508739  
     697A      2.509796   698A      2.509820   699A      2.517149  
     700A      2.534109   701A      2.534159   702A      2.555409  
     703A      2.555492   704A      2.555793   705A      2.555878  
     706A      2.558204   707A      2.558426   708A      2.560061  
     709A      2.563507   710A      2.566527   711A      2.571834  
     712A      2.572129   713A      2.579446   714A      2.591670  
     715A      2.591698   716A      2.595022   717A      2.595061  
     718A      2.601612   719A      2.611357   720A      2.611628  
     721A      2.614887   722A      2.615355   723A      2.616004  
     724A      2.625204   725A      2.625287   726A      2.629835  
     727A      2.641596   728A      2.641713   729A      2.641978  
     730A      2.647280   731A      2.647562   732A      2.648510  
     733A      2.648601   734A      2.651301   735A      2.653660  
     736A      2.659377   737A      2.662246   738A      2.662732  
     739A      2.672843   740A      2.675238   741A      2.675597  
     742A      2.694263   743A      2.694311   744A      2.713231  
     745A      2.713326   746A      2.714036   747A      2.719499  
     748A      2.720243   749A      2.720398   750A      2.730200  
     751A      2.730335   752A      2.739303   753A      2.742686  
     754A      2.743627   755A      2.744122   756A      2.750236  
     757A      2.750439   758A      2.750718   759A      2.750791  
     760A      2.755050   761A      2.767644   762A      2.767947  
     763A      2.778855   764A      2.778877   765A      2.790694  
     766A      2.790788   767A      2.795124   768A      2.796388  
     769A      2.805641   770A      2.806494   771A      2.806544  
     772A      2.809950   773A      2.810054   774A      2.813258  
     775A      2.813263   776A      2.829219   777A      2.838564  
     778A      2.838964   779A      2.841012   780A      2.845284  
     781A      2.845653   782A      2.846200   783A      2.849202  
     784A      2.849281   785A      2.857117   786A      2.880285  
[...]
     718A      1.430027   719A      1.433573   720A      1.433605  
     721A      1.436147   722A      1.440477   723A      1.440482  
     724A      1.440752   725A      1.442618   726A      1.442756  
     727A      1.451091   728A      1.451111   729A      1.451225  
     730A      1.456699   731A      1.462662   732A      1.462809  
     733A      1.473062   734A      1.473113   735A      1.482884  
     736A      1.497235   737A      1.497637   738A      1.518915  
     739A      1.518947   740A      1.523707   741A      1.523738  
     742A      1.536714   743A      1.552498   744A      1.590779  
     745A      1.601927   746A      1.605155   747A      1.605714  
     748A      1.611743   749A      1.611758   750A      1.616702  
     751A      1.616966   752A      1.617074   753A      1.631571  
     754A      1.631727   755A      1.635138   756A      1.635375  
     757A      1.637098   758A      1.643721   759A      1.644022  
     760A      1.644156   761A      1.646552   762A      1.649358  
     763A      1.649409   764A      1.653754   765A      1.661652  
     766A      1.661683   767A      1.667776   768A      1.676585  
     769A      1.676675   770A      1.677395   771A      1.678304  
     772A      1.678315   773A      1.685203   774A      1.688123  
     775A      1.688185   776A      1.697018   777A      1.699189  
     778A      1.699228   779A      1.701370   780A      1.704749  
     781A      1.705020   782A      1.705067   783A      1.714561  
     784A      1.714599   785A      1.718191   786A      1.741995  
     787A      1.747327   788A      1.747620   789A      1.751810  
     790A      1.761201   791A      1.761435   792A      1.761443  
     793A      1.762134   794A      1.777425   795A      1.777439  
     796A      1.793405   797A      1.793435   798A      1.813667  
     799A      1.813722   800A      1.817094   801A      1.821067  
     802A      1.821144   803A      1.825369   804A      1.825452  
     805A      1.834771   806A      1.840549   807A      1.842040  
     808A      1.842130   809A      1.842546   810A      1.854345  
     811A      1.856422   812A      1.862978   813A      1.862981  
     814A      1.865990   815A      1.870272   816A      1.870335  
     817A      1.874556   818A      1.878920   819A      1.881382  
     820A      1.881399   821A      1.897305   822A      1.897366  
     823A      1.903819   824A      1.906467   825A      1.906642  
     826A      1.910605   827A      1.910689   828A      1.918397  
     829A      1.918537   830A      1.919990   831A      1.920733  
     832A      1.920983   833A      1.922687   834A      1.922825  
     835A      1.941476   836A      1.943435   837A      1.944707  
     838A      1.944890   839A      1.948964   840A      1.949001  
     841A      1.955054   842A      1.955198   843A      1.958260  
     844A      1.963826   845A      1.963898   846A      1.970244  
     847A      1.989260   848A      1.989362   849A      1.997345  
     850A      1.998872   851A      2.001759   852A      2.001798  
     853A      2.006982   854A      2.009066   855A      2.014039  
     856A      2.014248   857A      2.029048   858A      2.029756  
     859A      2.030791   860A      2.031232   861A      2.033956  
     862A      2.034258   863A      2.034453   864A      2.048671  
     865A      2.049643   866A      2.053731   867A      2.054032  
     868A      2.062377   869A      2.062939   870A      2.066129  
     871A      2.066348   872A      2.071151   873A      2.077640  
     874A      2.078148   875A      2.079381   876A      2.079822  
     877A      2.079861   878A      2.092115   879A      2.093581  
     880A      2.094948   881A      2.095050   882A      2.096885  
     883A      2.098578   884A      2.100908   885A      2.102273  
     886A      2.102339   887A      2.110048   888A      2.110139  
     889A      2.111122   890A      2.116228   891A      2.116392  
     892A      2.117946   893A      2.121147   894A      2.121272  
     895A      2.123488   896A      2.123532   897A      2.128170  
     898A      2.129238   899A      2.129467   900A      2.134760  
     901A      2.137145   902A      2.137205   903A      2.139800  
     904A      2.144077   905A      2.144129   906A      2.158001  
     907A      2.163067   908A      2.163118   909A      2.169295  
     910A      2.169355   911A      2.174473   912A      2.181464  
     913A      2.181545   914A      2.192688   915A      2.192908  
     916A      2.193004   917A      2.196047   918A      2.197029  
     919A      2.197122   920A      2.218413   921A      2.219904  
     922A      2.221041   923A      2.221064   924A      2.230464  
     925A      2.232538   926A      2.235314   927A      2.235495  
     928A      2.244973   929A      2.245178   930A      2.246116  
     931A      2.246325   932A      2.248712   933A      2.261479  
     934A      2.261556   935A      2.270871   936A      2.270888  
     937A      2.273016   938A      2.273043   939A      2.281219  
     940A      2.301236   941A      2.306879   942A      2.316216  
     943A      2.317242   944A      2.326447   945A      2.331795  
     946A      2.331898   947A      2.336806   948A      2.339293  
     949A      2.346565   950A      2.352934   951A      2.353442  
     952A      2.354196   953A      2.354569   954A      2.368278  
     955A      2.368492   956A      2.375301   957A      2.391698  
     958A      2.416846   959A      2.424330   960A      2.424756  
     961A      2.424785   962A      2.436622   963A      2.442068  
     964A      2.442105   965A      2.470869   966A      2.478028  
     967A      2.478191   968A      2.488485   969A      2.488499  
     970A      2.503418   971A      2.522374   972A      2.530911  
     973A      2.536925   974A      2.546863   975A      2.546881  
     976A      2.548521   977A      2.554637   978A      2.554687  
     979A      2.555106   980A      2.560479   981A      2.560482  
     982A      2.573361   983A      2.573386   984A      2.576332  
     985A      2.576804   986A      2.586443   987A      2.586542  
     988A      2.588733   989A      2.591614   990A      2.592255  
     991A      2.609894   992A      2.625199   993A      2.625267  
     994A      2.632076   995A      2.632222   996A      2.632627  
     997A      2.642763   998A      2.642845   999A      2.653033  
    1000A      2.653358  1001A      2.657562  1002A      2.684404  
    1003A      2.686795  1004A      2.687735  1005A      2.694503  
    1006A      2.704331  1007A      2.704696  1008A      2.713401  
    1009A      2.713425  1010A      2.719171  1011A      2.719197  
    1012A      2.724300  1013A      2.724519  1014A      2.744626  
    1015A      2.756970  1016A      2.757314  1017A      2.777454  
    1018A      2.796372  1019A      2.796484  1020A      2.823257  
    1021A      2.827606  1022A      2.829650  1023A      2.851673  
    1024A      2.856124  1025A      2.856288  1026A      2.856572  
    1027A      2.858646  1028A      2.860854  1029A      2.860982  
    1030A      2.876042  1031A      2.884944  1032A      2.885456  
    1033A      2.919649  1034A      2.919685  1035A      2.927208  
    1036A      2.936847  1037A      2.936906  1038A      2.953969  
    1039A      2.954102  1040A      2.964123  1041A      3.012864  
    1042A      3.014519  1043A      3.014708  1044A      3.038242  
    1045A      3.064727  1046A      3.064782  1047A      3.072261  
    1048A      3.072326  1049A      3.116064  1050A      3.116769  
    1051A      3.130887  1052A      3.131943  1053A      3.132188  
    1054A      3.138345  1055A      3.147950  1056A      3.147956  
    1057A      3.148003  1058A      3.150163  1059A      3.150185  
    1060A      3.161049  1061A      3.161458  1062A      3.167097  
    1063A      3.167540  1064A      3.191960  1065A      3.211279  
    1066A      3.221093  1067A      3.243208  1068A      3.277536  
    1069A      3.277613  1070A      3.277779  1071A      3.286517  
    1072A      3.286656  1073A      3.418955  1074A      3.419356  
    1075A      3.449982  1076A      3.487825  1077A      3.489813  
    1078A      3.552159  1079A      3.585061  1080A      3.586887  
    1081A      3.600039  1082A      3.629648  1083A      3.631300  
    1084A      3.664725  1085A      3.672843  1086A      3.771743  
    1087A      3.788991  1088A      3.790011  1089A      3.871405  
    1090A      3.871428  1091A      3.914250  1092A      3.914342  
    1093A      3.977543  1094A      4.011493  1095A      4.054617  
    1096A      4.064903  1097A      4.104450  1098A      4.346403  
    1099A      4.418030  1100A      4.418131  1101A      4.465398  
    1102A      5.759349  1103A      5.759355  1104A      5.760763  
    1105A      5.767656  1106A      5.767675  1107A      5.769752  
    1108A      5.770382  1109A      5.770404  1110A      5.807202  
    1111A      5.807255  1112A      5.816987  1113A      6.027663  
    1114A      6.027993  1115A      6.030543  1116A      6.206781  
    1117A      6.333474  1118A      6.333785  1119A      6.391260  
    1120A      6.391629  1121A      6.396000  1122A      7.282639  
    1123A      7.282826  1124A      7.308085  1125A      7.308263  
    1126A      7.336949  1127A      7.354623  1128A      7.354904  
    1129A      7.450578  1130A      7.535954  1131A      7.620950  
    1132A      7.621112  1133A      7.775332  1134A     12.698534  
    1135A     42.937944  1136A     42.959866  1137A     42.959920  
    1138A     42.967502  

    Final Occupation by Irrep:
              A 
    DOCC [   171 ]
    NA   [   171 ]
    NB   [   171 ]

  @DF-RHF Final Energy: -2055.89404509491987

   => Energetics <=

    Nuclear Repulsion Energy =           6452.5568002797772351
    One-Electron Energy =              -15636.4889714615783305
    Two-Electron Energy =                7128.0381260868807658
    Total Energy =                      -2055.8940450949203296

Computation Completed


Properties will be evaluated at   0.000000,   0.000000,   0.000000 [a0]

Properties computed using the SCF density matrix


 Multipole Moments:

 ------------------------------------------------------------------------------------
     Multipole            Electronic (a.u.)      Nuclear  (a.u.)        Total (a.u.)
 ------------------------------------------------------------------------------------

 L = 1.  Multiply by 2.5417464519 to convert [e a0] to [Debye]
 Dipole X            :          0.0000278            0.0000419            0.0000697
 Dipole Y            :          0.0000389           -0.0000426           -0.0000037
 Dipole Z            :        283.7030799         -283.7033884           -0.0003085
 Magnitude           :                                                    0.0003163

 ------------------------------------------------------------------------------------

*** tstop() called on d-18-8-4 at Mon Jan 22 10:49:44 2024
Module time:
	user time   =    2293.65 seconds =      38.23 minutes
	system time =      37.72 seconds =       0.63 minutes
	total time  =        243 seconds =       4.05 minutes
Total time:
	user time   =    7424.09 seconds =     123.73 minutes
	system time =     165.68 seconds =       2.76 minutes
	total time  =        832 seconds =      13.87 minutes
  Constructing Basis Sets for SAPT...

   => Loading Basis Set <=

    Name: (JUN-CC-PVDZ AUX)
    Role: RIFIT
    Keyword: DF_BASIS_SAPT
    atoms 1     entry B          line    56 file /home/gridsan/tfroembgen/.conda/envs/psi4test/share/psi4/basis/jun-cc-pvdz-ri.gbs 
    atoms 2-5   entry F          line   232 file /home/gridsan/tfroembgen/.conda/envs/psi4test/share/psi4/basis/jun-cc-pvdz-ri.gbs 
    atoms 6-59  entry C          line   100 file /home/gridsan/tfroembgen/.conda/envs/psi4test/share/psi4/basis/jun-cc-pvdz-ri.gbs 
    atoms 60-77 entry H          line    30 file /home/gridsan/tfroembgen/.conda/envs/psi4test/share/psi4/basis/jun-cc-pvdz-ri.gbs 

   => Loading Basis Set <=

    Name: (JUN-CC-PVDZ AUX)
    Role: JKFIT
    Keyword: DF_BASIS_ELST
    atoms 1     entry B          line    90 file /home/gridsan/tfroembgen/.conda/envs/psi4test/share/psi4/basis/jun-cc-pvdz-jkfit.gbs 
    atoms 2-5   entry F          line   314 file /home/gridsan/tfroembgen/.conda/envs/psi4test/share/psi4/basis/jun-cc-pvdz-jkfit.gbs 
    atoms 6-59  entry C          line   146 file /home/gridsan/tfroembgen/.conda/envs/psi4test/share/psi4/basis/jun-cc-pvdz-jkfit.gbs 
    atoms 60-77 entry H          line    70 file /home/gridsan/tfroembgen/.conda/envs/psi4test/share/psi4/basis/jun-cc-pvdz-jkfit.gbs 


  //>>>>>>>>>>>>>>>>>>>>>>>>>>>>>>>>>>>//
  //               SSAPT0              //
  //<<<<<<<<<<<<<<<<<<<<<<<<<<<<<<<<<<<//


*** tstart() called on d-18-8-4
*** at Mon Jan 22 10:49:45 2024

        SAPT0  
    Ed Hohenstein
     6 June 2009

      Orbital Information
  --------------------------
    NSO        =      1152
    NMO        =      1138
    NRI        =      4087
    NRI (Elst) =      5075
    NOCC A     =        21
    NOCC B     =       171
    FOCC A     =         5
    FOCC B     =        54
    NVIR A     =      1117
    NVIR B     =       967

    Elst10,r            =     0.011846756151 [Eh]
    Exch10              =     0.004567337462 [Eh]
    Exch10 (S^2)        =     0.004566298514 [Eh]

    Iter     Energy [mEh]          dE [mEh]         Residual      Time [s]
       1      -0.35493597       0.354935971       2.628069193           156
       2      -0.43448487       0.079548900       0.867371598           203
       3      -0.43861462       0.004129745       0.148146933           217
       4      -0.43769429      -0.000920324       0.042471727           237
       5      -0.43769213      -0.000002165       0.013789539           256
       6      -0.43772628       0.000034149       0.003473326           275
       7      -0.43773166       0.000005381       0.000580689           293
       8      -0.43773014      -0.000001514       0.000130715           312
       9      -0.43773006      -0.000000081       0.000031251           330
      10      -0.43773014       0.000000075       0.000004186           344
      11      -0.43773013      -0.000000009       0.000000877           359

    CHF Iterations converged


    Iter     Energy [mEh]          dE [mEh]         Residual      Time [s]
       1     -20.02966060      20.029660596      74.278574212           270
       2     -13.61096233      -6.418698266       9.540314425           445
       3     -13.58225812      -0.028704211       3.123064244           534
       4     -13.85652375       0.274265631       0.816646868           554
       5     -13.87566560       0.019141848       0.259153555           572
       6     -13.86526667      -0.010398929       0.122647437           590
       7     -13.86359908      -0.001667590       0.051135393           607
       8     -13.86509738       0.001498297       0.019381012           623
       9     -13.86535149       0.000254118       0.008644560           638
      10     -13.86519036      -0.000161129       0.006518512           653
      11     -13.86514175      -0.000048618       0.003896009           668
      12     -13.86517834       0.000036590       0.002220611           685
      13     -13.86520395       0.000025609       0.000940642           701
      14     -13.86519617      -0.000007778       0.000440002           721
      15     -13.86519030      -0.000005865       0.000154829           755
      16     -13.86519211       0.000001809       0.000070343           774
      17     -13.86519286       0.000000749       0.000028662           793
      18     -13.86519282      -0.000000041       0.000009321           812
      19     -13.86519265      -0.000000167       0.000004260           831
      20     -13.86519265      -0.000000004       0.000002459           849
      21     -13.86519269       0.000000044       0.000001418           869
      22     -13.86519269      -0.000000002       0.000000765           888

    CHF Iterations converged

    Ind20,r (A<-B)      =    -0.000437730128 [Eh]
    Ind20,r (B<-A)      =    -0.013865192690 [Eh]
    Ind20,r             =    -0.014302922818 [Eh]
    Exch-Ind20,r (A<-B) =     0.000394963712 [Eh]
    Exch-Ind20,r (B<-A) =     0.000846271949 [Eh]
    Exch-Ind20,r        =     0.001241235661 [Eh]
    Disp20              =    -0.008623012993 [Eh]
    Disp20 (SS)         =    -0.004311506497 [Eh]
    Disp20 (OS)         =    -0.004311506497 [Eh]
    Exch-Disp20         =     0.000728382497 [Eh]
    Exch-Disp20 (SS)    =     0.000440926536 [Eh]
    Exch-Disp20 (OS)    =     0.000287455961 [Eh]

    SAPT Results 
  --------------------------------------------------------------------------------------------------------
    Electrostatics                 11.84675615 [mEh]       7.43395172 [kcal/mol]      31.10365399 [kJ/mol]
      Elst10,r                     11.84675615 [mEh]       7.43395172 [kcal/mol]      31.10365399 [kJ/mol]

    Exchange                        4.56733746 [mEh]       2.86604753 [kcal/mol]      11.99154285 [kJ/mol]
      Exch10                        4.56733746 [mEh]       2.86604753 [kcal/mol]      11.99154285 [kJ/mol]
      Exch10(S^2)                   4.56629851 [mEh]       2.86539558 [kcal/mol]      11.98881510 [kJ/mol]

    Induction                     -13.32839198 [mEh]      -8.36369224 [kcal/mol]     -34.99368832 [kJ/mol]
      Ind20,r                     -14.30292282 [mEh]      -8.97521957 [kcal/mol]     -37.55231868 [kJ/mol]
      Exch-Ind20,r                  1.24123566 [mEh]       0.77888714 [kcal/mol]       3.25886378 [kJ/mol]
      delta HF,r (2)               -0.26670482 [mEh]      -0.16735980 [kcal/mol]      -0.70023341 [kJ/mol]

    Dispersion                     -7.89463050 [mEh]      -4.95395543 [kcal/mol]     -20.72734951 [kJ/mol]
      Disp20                       -8.62301299 [mEh]      -5.41102235 [kcal/mol]     -22.63971749 [kJ/mol]
      Exch-Disp20                   0.72838250 [mEh]       0.45706692 [kcal/mol]       1.91236798 [kJ/mol]
      Disp20 (SS)                  -4.31150650 [mEh]      -2.70551117 [kcal/mol]     -11.31985875 [kJ/mol]
      Disp20 (OS)                  -4.31150650 [mEh]      -2.70551117 [kcal/mol]     -11.31985875 [kJ/mol]
      Exch-Disp20 (SS)              0.44092654 [mEh]       0.27668558 [kcal/mol]       1.15765246 [kJ/mol]
      Exch-Disp20 (OS)              0.28745596 [mEh]       0.18038134 [kcal/mol]       0.75471552 [kJ/mol]

  Total HF                          3.08570164 [mEh]       1.93630701 [kcal/mol]       8.10150853 [kJ/mol]
  Total SAPT0                      -4.80892886 [mEh]      -3.01764842 [kcal/mol]     -12.62584098 [kJ/mol]

  Special recipe for scaled SAPT0 (see Manual):
    Electrostatics sSAPT0          11.84675615 [mEh]       7.43395172 [kcal/mol]      31.10365399 [kJ/mol]
    Exchange sSAPT0                 4.56733746 [mEh]       2.86604753 [kcal/mol]      11.99154285 [kJ/mol]
    Induction sSAPT0              -13.32754455 [mEh]      -8.36316047 [kcal/mol]     -34.99146339 [kJ/mol]
    Dispersion sSAPT0              -7.89413321 [mEh]      -4.95364337 [kcal/mol]     -20.72604388 [kJ/mol]
  Total sSAPT0                     -4.80758414 [mEh]      -3.01680459 [kcal/mol]     -12.62231042 [kJ/mol]
  --------------------------------------------------------------------------------------------------------

*** tstop() called on d-18-8-4 at Mon Jan 22 12:01:01 2024
Module time:
	user time   =    7247.72 seconds =     120.80 minutes
	system time =     696.56 seconds =      11.61 minutes
	total time  =       4276 seconds =      71.27 minutes
Total time:
	user time   =   14673.37 seconds =     244.56 minutes
	system time =     862.32 seconds =      14.37 minutes
	total time  =       5109 seconds =      85.15 minutes

    Psi4 stopped on: Monday, 22 January 2024 12:01PM
    Psi4 wall time for execution: 1:25:10.05

*** Psi4 exiting successfully. Buy a developer a beer!
