
    -----------------------------------------------------------------------
          Psi4: An Open-Source Ab Initio Electronic Structure Package
                               Psi4 1.9 release

                         Git: Rev {} zzzzzzz 


    D. G. A. Smith, L. A. Burns, A. C. Simmonett, R. M. Parrish,
    M. C. Schieber, R. Galvelis, P. Kraus, H. Kruse, R. Di Remigio,
    A. Alenaizan, A. M. James, S. Lehtola, J. P. Misiewicz, M. Scheurer,
    R. A. Shaw, J. B. Schriber, Y. Xie, Z. L. Glick, D. A. Sirianni,
    J. S. O'Brien, J. M. Waldrop, A. Kumar, E. G. Hohenstein,
    B. P. Pritchard, B. R. Brooks, H. F. Schaefer III, A. Yu. Sokolov,
    K. Patkowski, A. E. DePrince III, U. Bozkaya, R. A. King,
    F. A. Evangelista, J. M. Turney, T. D. Crawford, C. D. Sherrill,
    J. Chem. Phys. 152(18) 184108 (2020). https://doi.org/10.1063/5.0006002

                            Additional Code Authors
    E. T. Seidl, C. L. Janssen, E. F. Valeev, M. L. Leininger,
    J. F. Gonthier, R. M. Richard, H. R. McAlexander, M. Saitow, X. Wang,
    P. Verma, M. H. Lechner, A. Jiang, S. Behnle, A. G. Heide,
    M. F. Herbst, and D. L. Poole

             Previous Authors, Complete List of Code Contributors,
                       and Citations for Specific Modules
    https://github.com/psi4/psi4/blob/master/codemeta.json
    https://github.com/psi4/psi4/graphs/contributors
    http://psicode.org/psi4manual/master/introduction.html#citing-psifour

    -----------------------------------------------------------------------


    Psi4 started on: Saturday, 03 February 2024 04:15PM

    Process ID: 1998126
    Host:       n2cn1050
    PSIDATADIR: /opt/software/pc2/EB-SW/software/PSI4/1.9-foss-2022a/share/psi4
    Memory:     500.0 MiB
    Threads:    16
    
  ==> Input File <==

--------------------------------------------------------------------------
memory 32 GB # how much memory is available ! Depends on the nodes/cores !

molecule dimer {
# monomer A
+1 1    # Charge and multiplicity
C  0.680067 1.417258 -5.015929
C -0.680504 1.419286 -5.015545
N -1.085635 1.420284 -3.697221
C  0.000108 1.423560 -2.915820
C -2.477365 1.469690 -3.229242
N  1.085222 1.420284 -3.697221
H  1.385146 1.409430 -5.833368
H -1.385302 1.419096 -5.833214
H -0.000009 1.425307 -1.834731
C  2.478117 1.403392 -3.232123
H  2.490592 1.430737 -2.141870
H  2.967028 0.489946 -3.579299
H  3.001428 2.278875 -3.623595
H -2.857359 2.491761 -3.309201
H -3.082679 0.799606 -3.842306
H -2.518128 1.142706 -2.189294
--
# monomer B
0 1     # Charge and multiplicity
C   1.22531237526482      0.70753866091955      0.00613762728373
C   1.22532433589282     -0.70753852257020     -0.00619318228664
C   -0.00000567409046      1.41496628609039     -0.00672680580738
C   2.45644923379077      1.41832825917820      0.00902448468363
C   0.00001130712078     -1.41497612663474      0.00347275151708
C   -1.22530046906674      0.70754574598412      0.00838914760619
C   2.45643823516184     -1.41832293188077     -0.00843833914343
C   -0.00000085313587      2.83680140328112     -0.00913035594137
C   3.68182717731192      0.70931832800114     -0.00808954934571
C   2.45512052870677      2.83422403348893     -0.00819210630633
C   3.68182158506039     -0.70933346742900      0.00798293467272
C   -1.22531311884624     -0.70752714354401     -0.00512042085974
C   1.22670006104402      3.54346985599427      0.00816696660346
C   0.00000526469929     -2.83678176723568      0.00832091913869
C   -2.45643555300670      1.41831729028492      0.00842454345199
C   2.45512389762097     -2.83422965658853      0.00783102630520
C   -1.22671388474763      3.54346943575023      0.00827029982280
C   4.91451777504333      1.42717324448953     -0.00160886631602
C   3.69315067131765      3.54279566454522     -0.00155906667985
C   -2.45643712022637     -1.41831290883911     -0.00846337726810
C   1.22670532178455     -3.54347386990643     -0.00780316414624
C   -2.45512491866593      2.83421703463423     -0.00818572995999
C   4.91452486062398     -1.42718653794377      0.00136387641845
C   1.22142509354026      4.97013443726031      0.00150231067809
C   4.89300870916237      2.82518837202648     -0.00039219795739
C   -1.22669652864725     -3.54347062507680     -0.00753595973677
C   -3.68181849668397      0.70932533873199     -0.00807686886569
C   3.69314758099218     -3.54280096939050      0.00148176697923
C   -1.22143177215231      4.97012866986289      0.00168580605083
C   6.13477145276790      0.68054831910577     -0.00083909176631
C   3.65678936045204      4.97295361556775     -0.00065042889723
C   -2.45512642789169     -2.83421472106065      0.00758666850712
C   -3.68181869921921     -0.70932533146830      0.00810055625144
C   4.89301309775526     -2.82519973363176      0.00021895393805
C   -0.00000059327114      5.65044773803267      0.00045449734393
C   6.13477559217374     -0.68055448207492      0.00042622874941
C   2.47813196269732      5.65357712333155      0.00063835075260
C   1.22142288457925     -4.97012668293268     -0.00129718634452
C   -3.69316190412301      3.54279732619245     -0.00139355922051
C   -1.22142804110313     -4.97011793159564     -0.00140994817719
C   -4.91452132810043      1.42717581899491     -0.00153192130862
C   3.65678749952045     -4.97295485423912      0.00080007163680
C   -2.47813805026426      5.65357479452875      0.00092287576113
C   -3.69314125872231     -3.54278984697859      0.00136564082345
C   -4.91451200321153     -1.42718062802730      0.00139857359209
C   -0.00000552908399     -5.65043791501335      0.00005899322272
C   -4.89302000425900      2.82518897091939     -0.00040227981744
C   2.47812647313991     -5.65357317188818     -0.00029052915548
C   -3.65679823041642      4.97295655404175     -0.00047374852278
C   -4.89299899901461     -2.82519139505969      0.00006491824035
C   -2.47812801824129     -5.65356579800621     -0.00056571680280
C   -6.13477002348955      0.68054913825639     -0.00086464346868
C   -3.65678835334731     -4.97294365097028      0.00058578382008
C   -6.13476456307132     -0.68055354348201      0.00040575295444
H   5.83528897565761      3.36927626695423      0.00396712770529
H   7.07385965258860      1.22821762089947     -0.00037744837300
H   4.60066374401555      5.51238117445323     -0.00014522814529
H   5.83528386714679     -3.36930568472863     -0.00423551337640
H   -0.00001167146422      6.73853104613662     -0.00389474766392
H   7.07386165167227     -1.22822657074368     -0.00008250934481
H   2.47331421164041      6.74068466339473      0.00017162982210
H   4.60066897122302     -5.51237575717576      0.00039007446835
H   -2.47331820069565      6.74068209160650      0.00047297644710
H   -0.00000978838621     -6.73852780445195      0.00458867820736
H   -5.83530143450167      3.36927132229595      0.00410314985360
H   2.47330840367253     -6.74068500242887      0.00027980126949
H   -4.60067436136587      5.51237839860371      0.00002010017831
H   -5.83527902699321     -3.36928859177951     -0.00451481925734
H   -2.47329986759855     -6.74067870613986     -0.00016951527498
H   -7.07385728692578      1.22822084484047     -0.00046143985387
H   -4.60067330624313     -5.51236229778631      0.00021776644566
H   -7.07385645456741     -1.22822025997701     -0.00017736581114

    units angstrom      # Angstroms are the default
    no_reorient         # Geometry fixed, default
    symmetry c1         # C1 symmetry, default
}

set {
    scf_type DF         # Density fitting, faster than exact integrals
    freeze_core True    # Freeze core electrons
    basis jun-cc-pVDZ   # Jun-cc-pVDZ basis set, recommended for sSAPT0 in https://doi.org/10.1063/1.4867135
}

energy('ssapt0')        # Compute sSAPT0 energy, includes also SAPT0
--------------------------------------------------------------------------

  Memory set to  29.802 GiB by Python driver.

Scratch directory: /tmp/
   => Loading Basis Set <=

    Name: JUN-CC-PVDZ
    Role: ORBITAL
    Keyword: BASIS
    atoms 1-2, 4-5, 10, 17-70 entry C          line   164 file /opt/software/pc2/EB-SW/software/PSI4/1.9-foss-2022a/share/psi4/basis/jun-cc-pvdz.gbs 
    atoms 3, 6                entry N          line   198 file /opt/software/pc2/EB-SW/software/PSI4/1.9-foss-2022a/share/psi4/basis/jun-cc-pvdz.gbs 
    atoms 7-9, 11-16, 71-88   entry H          line    36 file /opt/software/pc2/EB-SW/software/PSI4/1.9-foss-2022a/share/psi4/basis/jun-cc-pvdz.gbs 

   => Loading Basis Set <=

    Name: JUN-CC-PVDZ
    Role: ORBITAL
    Keyword: BASIS
    atoms 1-2, 4-5, 10, 17-70 entry C          line   164 file /opt/software/pc2/EB-SW/software/PSI4/1.9-foss-2022a/share/psi4/basis/jun-cc-pvdz.gbs 
    atoms 3, 6                entry N          line   198 file /opt/software/pc2/EB-SW/software/PSI4/1.9-foss-2022a/share/psi4/basis/jun-cc-pvdz.gbs 
    atoms 7-9, 11-16, 71-88   entry H          line    36 file /opt/software/pc2/EB-SW/software/PSI4/1.9-foss-2022a/share/psi4/basis/jun-cc-pvdz.gbs 


  //>>>>>>>>>>>>>>>>>>>>>>>>>>>>>>>>>>>//
  //              Dimer HF             //
  //<<<<<<<<<<<<<<<<<<<<<<<<<<<<<<<<<<<//

   => Libint2 <=

    Primary   basis highest AM E, G, H:  5, 4, 3
    Auxiliary basis highest AM E, G, H:  6, 5, 4
    Onebody   basis highest AM E, G, H:  6, 5, 4
    Solid Harmonics ordering:            gaussian

*** tstart() called on n2cn1050
*** at Sat Feb  3 16:15:12 2024

   => Loading Basis Set <=

    Name: JUN-CC-PVDZ
    Role: ORBITAL
    Keyword: BASIS
    atoms 1-2, 4-5, 10, 17-70 entry C          line   164 file /opt/software/pc2/EB-SW/software/PSI4/1.9-foss-2022a/share/psi4/basis/jun-cc-pvdz.gbs 
    atoms 3, 6                entry N          line   198 file /opt/software/pc2/EB-SW/software/PSI4/1.9-foss-2022a/share/psi4/basis/jun-cc-pvdz.gbs 
    atoms 7-9, 11-16, 71-88   entry H          line    36 file /opt/software/pc2/EB-SW/software/PSI4/1.9-foss-2022a/share/psi4/basis/jun-cc-pvdz.gbs 


         ---------------------------------------------------------
                                   SCF
               by Justin Turney, Rob Parrish, Andy Simmonett
                          and Daniel G. A. Smith
                              RHF Reference
                       16 Threads,  30517 MiB Core
         ---------------------------------------------------------

  ==> Geometry <==

    Molecular point group: c1
    Full point group: C1

    Geometry (in Angstrom), charge = 1, multiplicity = 1:

       Center              X                  Y                   Z               Mass       
    ------------   -----------------  -----------------  -----------------  -----------------
         C            0.680066520158     1.235968212970    -4.532594585639    12.000000000000
         C           -0.680504479842     1.237996212970    -4.532210585639    12.000000000000
         N           -1.085635479842     1.238994212970    -3.213886585639    14.003074004430
         C            0.000107520158     1.242270212970    -2.432485585639    12.000000000000
         C           -2.477365479842     1.288400212970    -2.745907585639    12.000000000000
         N            1.085221520158     1.238994212970    -3.213886585639    14.003074004430
         H            1.385145520158     1.228140212970    -5.350033585639     1.007825032230
         H           -1.385302479842     1.237806212970    -5.349879585639     1.007825032230
         H           -0.000009479842     1.244017212970    -1.351396585639     1.007825032230
         C            2.478116520158     1.222102212970    -2.748788585639    12.000000000000
         H            2.490591520158     1.249447212970    -1.658535585639     1.007825032230
         H            2.967027520158     0.308656212970    -3.095964585639     1.007825032230
         H            3.001427520158     2.097585212970    -3.140260585639     1.007825032230
         H           -2.857359479842     2.310471212970    -2.825866585639     1.007825032230
         H           -3.082679479842     0.618316212970    -3.358971585639     1.007825032230
         H           -2.518128479842     0.961416212970    -1.705959585639     1.007825032230
         C            1.225311895423     0.526248873889     0.489472041644    12.000000000000
         C            1.225323856051    -0.888828309601     0.477141232074    12.000000000000
         C           -0.000006153932     1.233676499060     0.476607608553    12.000000000000
         C            2.456448753949     1.237038472148     0.492358899044    12.000000000000
         C            0.000010827279    -1.596265913665     0.486807165878    12.000000000000
         C           -1.225300948908     0.526255958954     0.491723561967    12.000000000000
         C            2.456437755320    -1.599612718911     0.474896075217    12.000000000000
         C           -0.000001332978     2.655511616251     0.474204058419    12.000000000000
         C            3.681826697470     0.528028540971     0.475244865015    12.000000000000
         C            2.455120048865     2.652934246459     0.475142308054    12.000000000000
         C            3.681821105219    -0.890623254459     0.491317349033    12.000000000000
         C           -1.225313598688    -0.888816930574     0.478213993501    12.000000000000
         C            1.226699581202     3.362180068964     0.491501380964    12.000000000000
         C            0.000004784858    -3.018071554266     0.491655333499    12.000000000000
         C           -2.456436032848     1.237027503255     0.491758957813    12.000000000000
         C            2.455123417779    -3.015519443619     0.491165440666    12.000000000000
         C           -1.226714364589     3.362179648720     0.491604714183    12.000000000000
         C            4.914517295202     1.245883457459     0.481725548045    12.000000000000
         C            3.693150191476     3.361505877515     0.481775347681    12.000000000000
         C           -2.456437600068    -1.599602695869     0.474871037093    12.000000000000
         C            1.226704841943    -3.724763656937     0.475531250214    12.000000000000
         C           -2.455125398508     2.652927247604     0.475148684401    12.000000000000
         C            4.914524380782    -1.608476324974     0.484698290779    12.000000000000
         C            1.221424613699     4.788844650230     0.484836725039    12.000000000000
         C            4.893008229321     2.643898584996     0.482942216403    12.000000000000
         C           -1.226697008489    -3.724760412107     0.475798454624    12.000000000000
         C           -3.681818976526     0.528035551702     0.475257545495    12.000000000000
         C            3.693147101150    -3.724090756421     0.484816181340    12.000000000000
         C           -1.221432251994     4.788838882833     0.485020220411    12.000000000000
         C            6.134770972926     0.499258532075     0.482495322594    12.000000000000
         C            3.656788880610     4.791663828537     0.482683985463    12.000000000000
         C           -2.455126907733    -3.015504508091     0.490921082868    12.000000000000
         C           -3.681819179061    -0.890615118499     0.491434970612    12.000000000000
         C            4.893012617914    -3.006489520662     0.483553368299    12.000000000000
         C           -0.000001073113     5.469157951002     0.483788911705    12.000000000000
         C            6.134775112332    -0.861844269105     0.483760643110    12.000000000000
         C            2.478131482856     5.472287336301     0.483972765113    12.000000000000
         C            1.221422404738    -5.151416469963     0.482037228016    12.000000000000
         C           -3.693162383965     3.361507539162     0.481940855140    12.000000000000
         C           -1.221428520945    -5.151407718626     0.481924466183    12.000000000000
         C           -4.914521807942     1.245886031965     0.481802493052    12.000000000000
         C            3.656787019679    -5.154244641269     0.484134485997    12.000000000000
         C           -2.478138530106     5.472285007498     0.484257290122    12.000000000000
         C           -3.693141738564    -3.724079634009     0.484700055184    12.000000000000
         C           -4.914512483053    -1.608470415058     0.484732987953    12.000000000000
         C           -0.000006008926    -5.831727702044     0.483393407583    12.000000000000
         C           -4.893020484101     2.643899183889     0.482932134543    12.000000000000
         C            2.478125993298    -5.834862958919     0.483043885205    12.000000000000
         C           -3.656798710258     4.791666767011     0.482860665838    12.000000000000
         C           -4.892999478856    -3.006481182090     0.483399332601    12.000000000000
         C           -2.478128498083    -5.834855585037     0.482768697558    12.000000000000
         C           -6.134770503331     0.499259351226     0.482469770892    12.000000000000
         C           -3.656788833189    -5.154233438001     0.483920198181    12.000000000000
         C           -6.134765042913    -0.861843330512     0.483740167315    12.000000000000
         H            5.835288495816     3.187986479924     0.487301542066     1.007825032230
         H            7.073859172747     1.046927833869     0.482956965988     1.007825032230
         H            4.600663264174     5.331091387423     0.483189186215     1.007825032230
         H            5.835283387305    -3.550595471759     0.479098900984     1.007825032230
         H           -0.000012151306     6.557241259106     0.479439666697     1.007825032230
         H            7.073861171831    -1.409516357774     0.483251905016     1.007825032230
         H            2.473313731799     6.559394876364     0.483506044183     1.007825032230
         H            4.600668491381    -5.693665544206     0.483724488829     1.007825032230
         H           -2.473318680537     6.559392304576     0.483807390808     1.007825032230
         H           -0.000010268228    -6.919817591482     0.487923092568     1.007825032230
         H           -5.835301914343     3.187981535266     0.487437564214     1.007825032230
         H            2.473307923831    -6.921974789459     0.483614215630     1.007825032230
         H           -4.600674841208     5.331088611573     0.483354514539     1.007825032230
         H           -5.835279506835    -3.550578378810     0.478819595103     1.007825032230
         H           -2.473300347440    -6.921968493170     0.483164899086     1.007825032230
         H           -7.073857766768     1.046931057810     0.482872974507     1.007825032230
         H           -4.600673786085    -5.693652084817     0.483552180806     1.007825032230
         H           -7.073856934409    -1.409510047007     0.483157048550     1.007825032230

  Running in c1 symmetry.

  Rotational constants: A =      0.00186  B =      0.00185  C =      0.00108 [cm^-1]
  Rotational constants: A =     55.70999  B =     55.49433  C =     32.28373 [MHz]
  Nuclear repulsion = 8376.134881511279673

  Charge       = 1
  Multiplicity = 1
  Electrons    = 394
  Nalpha       = 197
  Nbeta        = 197

  ==> Algorithm <==

  SCF Algorithm Type is DF.
  DIIS enabled.
  MOM disabled.
  Fractional occupation disabled.
  Guess Type is SAD.
  Energy threshold   = 1.00e-08
  Density threshold  = 1.00e-08
  Integral threshold = 1.00e-12

  ==> Primary Basis <==

  Basis Set: JUN-CC-PVDZ
    Blend: JUN-CC-PVDZ
    Number of shells: 569
    Number of basis functions: 1233
    Number of Cartesian functions: 1294
    Spherical Harmonics?: true
    Max angular momentum: 2

   => Loading Basis Set <=

    Name: (JUN-CC-PVDZ AUX)
    Role: JKFIT
    Keyword: DF_BASIS_SCF
    atoms 1-2, 4-5, 10, 17-70 entry C          line   146 file /opt/software/pc2/EB-SW/software/PSI4/1.9-foss-2022a/share/psi4/basis/jun-cc-pvdz-jkfit.gbs 
    atoms 3, 6                entry N          line   202 file /opt/software/pc2/EB-SW/software/PSI4/1.9-foss-2022a/share/psi4/basis/jun-cc-pvdz-jkfit.gbs 
    atoms 7-9, 11-16, 71-88   entry H          line    70 file /opt/software/pc2/EB-SW/software/PSI4/1.9-foss-2022a/share/psi4/basis/jun-cc-pvdz-jkfit.gbs 

  ==> Integral Setup <==

  ==> DiskDFJK: Density-Fitted J/K Matrices <==

    J tasked:                  Yes
    K tasked:                  Yes
    wK tasked:                  No
    OpenMP threads:             16
    Integrals threads:          16
    Memory [MiB]:            22888
    Algorithm:                Disk
    Integral Cache:           SAVE
    Schwarz Cutoff:          1E-12
    Fitting Condition:       1E-10

   => Auxiliary Basis Set <=

  Basis Set: (JUN-CC-PVDZ AUX)
    Blend: JUN-CC-PVDZ-JKFIT
    Number of shells: 1890
    Number of basis functions: 5440
    Number of Cartesian functions: 6226
    Spherical Harmonics?: true
    Max angular momentum: 3

  Minimum eigenvalue in the overlap matrix is 5.7184696373E-10.
  Reciprocal condition number of the overlap matrix is 2.2731082266E-11.
    Using canonical orthogonalization.
  Overall, 14 of 1233 possible MOs eliminated.


  ==> Pre-Iterations <==

  SCF Guess: Superposition of Atomic Densities via on-the-fly atomic UHF (no occupation information).

   -------------------------
    Irrep   Nso     Nmo    
   -------------------------
     A       1233    1219 
   -------------------------
    Total    1233    1219
   -------------------------

  ==> Iterations <==

                           Total Energy        Delta E     RMS |[F,P]|

   @DF-RHF iter SAD: -2366.23577903708019   -2.36624e+03   0.00000e+00 
   @DF-RHF iter   1: -2358.19278736942215    8.04299e+00   9.40012e-04 DIIS/ADIIS
   @DF-RHF iter   2: -2359.07999632077372   -8.87209e-01   3.14539e-04 DIIS/ADIIS
   @DF-RHF iter   3: -2359.16657728238124   -8.65810e-02   1.20312e-04 DIIS/ADIIS
   @DF-RHF iter   4: -2359.17967248357036   -1.30952e-02   4.63845e-05 DIIS
   @DF-RHF iter   5: -2359.18168067429087   -2.00819e-03   1.10820e-05 DIIS
   @DF-RHF iter   6: -2359.18187717396404   -1.96500e-04   5.89091e-06 DIIS
   @DF-RHF iter   7: -2359.18195748938342   -8.03154e-05   2.46782e-06 DIIS
   @DF-RHF iter   8: -2359.18198112300161   -2.36336e-05   1.19174e-06 DIIS
   @DF-RHF iter   9: -2359.18198700742778   -5.88443e-06   3.34866e-07 DIIS
   @DF-RHF iter  10: -2359.18198729469714   -2.87269e-07   1.52609e-07 DIIS
   @DF-RHF iter  11: -2359.18198733069767   -3.60005e-08   5.57970e-08 DIIS
   @DF-RHF iter  12: -2359.18198733758163   -6.88397e-09   2.35791e-08 DIIS
   @DF-RHF iter  13: -2359.18198733922873   -1.64709e-09   8.11715e-09 DIIS
  Energy and wave function converged.


  ==> Post-Iterations <==

    Orbital Energies [Eh]
    ---------------------

    Doubly Occupied:                                                      

       1A    -15.782821     2A    -15.782586     3A    -11.467043  
       4A    -11.415349     5A    -11.413791     6A    -11.398017  
       7A    -11.396871     8A    -11.354317     9A    -11.354017  
      10A    -11.352719    11A    -11.352064    12A    -11.351722  
      13A    -11.351692    14A    -11.349931    15A    -11.349793  
      16A    -11.349728    17A    -11.348755    18A    -11.348552  
      19A    -11.347335    20A    -11.347008    21A    -11.345107  
      22A    -11.344908    23A    -11.344471    24A    -11.344434  
      25A    -11.344348    26A    -11.344267    27A    -11.344101  
      28A    -11.344044    29A    -11.343481    30A    -11.343303  
      31A    -11.342113    32A    -11.342010    33A    -11.340805  
      34A    -11.339249    35A    -11.339206    36A    -11.338823  
      37A    -11.338777    38A    -11.337651    39A    -11.337489  
      40A    -11.337153    41A    -11.337058    42A    -11.337002  
      43A    -11.336726    44A    -11.336381    45A    -11.335261  
      46A    -11.335168    47A    -11.333858    48A    -11.333811  
      49A    -11.332420    50A    -11.332373    51A    -11.330965  
      52A    -11.330908    53A    -11.330890    54A    -11.330802  
      55A    -11.328993    56A    -11.328896    57A    -11.328652  
      58A    -11.325628    59A    -11.325585    60A    -11.324082  
      61A    -11.324045    62A     -1.527859    63A     -1.383636  
      64A     -1.336072    65A     -1.307222    66A     -1.305948  
      67A     -1.274075    68A     -1.273950    69A     -1.269309  
      70A     -1.239829    71A     -1.232940    72A     -1.222935  
      73A     -1.222537    74A     -1.195310    75A     -1.195250  
      76A     -1.190842    77A     -1.168344    78A     -1.167941  
      79A     -1.164692    80A     -1.147508    81A     -1.147480  
      82A     -1.139805    83A     -1.122367    84A     -1.111159  
      85A     -1.109434    86A     -1.109077    87A     -1.099296  
      88A     -1.093866    89A     -1.073431    90A     -1.071628  
      91A     -1.069064    92A     -1.044132    93A     -1.044045  
      94A     -0.979089    95A     -0.978801    96A     -0.975234  
      97A     -0.973955    98A     -0.972128    99A     -0.971614  
     100A     -0.965743   101A     -0.965442   102A     -0.950270  
     103A     -0.943966   104A     -0.917126   105A     -0.902441  
     106A     -0.901587   107A     -0.896689   108A     -0.895887  
     109A     -0.876027   110A     -0.875859   111A     -0.870143  
     112A     -0.832117   113A     -0.829819   114A     -0.818824  
     115A     -0.818538   116A     -0.813698   117A     -0.813338  
     118A     -0.801591   119A     -0.799930   120A     -0.781709  
     121A     -0.781128   122A     -0.776935   123A     -0.776886  
     124A     -0.773685   125A     -0.772719   126A     -0.743187  
     127A     -0.742558   128A     -0.738928   129A     -0.738168  
     130A     -0.737462   131A     -0.735951   132A     -0.731235  
     133A     -0.731112   134A     -0.721100   135A     -0.721084  
     136A     -0.713530   137A     -0.711241   138A     -0.711206  
     139A     -0.710193   140A     -0.692752   141A     -0.685516  
     142A     -0.683381   143A     -0.682094   144A     -0.681835  
     145A     -0.677724   146A     -0.675523   147A     -0.675468  
     148A     -0.672438   149A     -0.669710   150A     -0.664694  
     151A     -0.655843   152A     -0.652483   153A     -0.650143  
     154A     -0.650042   155A     -0.647418   156A     -0.647291  
     157A     -0.642754   158A     -0.635527   159A     -0.635415  
     160A     -0.620936   161A     -0.620146   162A     -0.619978  
     163A     -0.619235   164A     -0.612438   165A     -0.611345  
     166A     -0.604932   167A     -0.604726   168A     -0.581139  
     169A     -0.577453   170A     -0.574515   171A     -0.570363  
     172A     -0.568407   173A     -0.564404   174A     -0.563926  
     175A     -0.556488   176A     -0.554425   177A     -0.548364  
     178A     -0.536109   179A     -0.535720   180A     -0.520221  
     181A     -0.519845   182A     -0.491727   183A     -0.489597  
     184A     -0.489437   185A     -0.475737   186A     -0.455769  
     187A     -0.455737   188A     -0.432338   189A     -0.427200  
     190A     -0.426728   191A     -0.425895   192A     -0.392595  
     193A     -0.377170   194A     -0.370797   195A     -0.370158  
     196A     -0.308133   197A     -0.308089  

    Virtual:                                                              

     198A     -0.070360   199A     -0.069566   200A     -0.033861  
     201A     -0.027845   202A     -0.026671   203A     -0.021941  
     204A     -0.021852   205A     -0.016632   206A     -0.011208  
     207A     -0.010628   208A     -0.009082   209A     -0.007696  
     210A     -0.003661   211A     -0.000253   212A      0.000135  
     213A      0.000751   214A      0.001116   215A      0.002551  
     216A      0.004715   217A      0.007776   218A      0.009582  
     219A      0.010128   220A      0.013209   221A      0.014931  
     222A      0.016296   223A      0.016565   224A      0.020141  
     225A      0.022278   226A      0.026528   227A      0.032043  
     228A      0.032076   229A      0.034312   230A      0.034655  
     231A      0.034920   232A      0.037052   233A      0.040552  
     234A      0.041959   235A      0.042464   236A      0.045020  
     237A      0.047538   238A      0.048462   239A      0.049213  
     240A      0.052058   241A      0.053745   242A      0.058043  
     243A      0.060587   244A      0.064597   245A      0.065191  
     246A      0.067507   247A      0.069110   248A      0.072628  
     249A      0.074151   250A      0.074386   251A      0.075174  
     252A      0.077189   253A      0.082756   254A      0.084147  
     255A      0.084433   256A      0.088057   257A      0.088812  
     258A      0.090467   259A      0.094849   260A      0.097192  
     261A      0.097705   262A      0.100956   263A      0.102305  
     264A      0.103239   265A      0.104437   266A      0.106392  
     267A      0.107524   268A      0.108233   269A      0.111218  
     270A      0.112318   271A      0.114080   272A      0.114561  
     273A      0.117521   274A      0.117767   275A      0.119053  
     276A      0.123674   277A      0.123986   278A      0.124966  
     279A      0.129433   280A      0.136451   281A      0.137751  
     282A      0.138172   283A      0.140882   284A      0.141637  
     285A      0.142981   286A      0.146233   287A      0.147131  
     288A      0.147532   289A      0.147993   290A      0.149191  
     291A      0.149831   292A      0.150708   293A      0.151879  
     294A      0.152661   295A      0.154405   296A      0.154917  
     297A      0.157429   298A      0.159293   299A      0.160026  
     300A      0.160994   301A      0.161464   302A      0.163011  
     303A      0.167563   304A      0.167648   305A      0.167939  
     306A      0.169827   307A      0.171666   308A      0.172716  
     309A      0.175107   310A      0.180144   311A      0.180318  
     312A      0.182011   313A      0.184677   314A      0.185807  
     315A      0.186444   316A      0.187290   317A      0.187472  
     318A      0.189116   319A      0.189560   320A      0.190925  
     321A      0.192331   322A      0.193439   323A      0.194045  
     324A      0.196038   325A      0.196820   326A      0.202014  
     327A      0.202448   328A      0.203388   329A      0.204356  
     330A      0.204495   331A      0.205883   332A      0.210419  
     333A      0.210983   334A      0.213172   335A      0.215301  
     336A      0.218457   337A      0.220358   338A      0.223053  
     339A      0.225133   340A      0.227043   341A      0.231624  
     342A      0.231833   343A      0.233182   344A      0.235482  
     345A      0.236622   346A      0.237176   347A      0.238038  
     348A      0.238963   349A      0.240972   350A      0.242086  
     351A      0.242131   352A      0.242803   353A      0.244273  
     354A      0.244646   355A      0.244778   356A      0.246700  
     357A      0.248481   358A      0.249583   359A      0.250994  
     360A      0.251962   361A      0.253443   362A      0.255897  
     363A      0.257436   364A      0.258818   365A      0.259739  
     366A      0.262012   367A      0.263793   368A      0.264388  
     369A      0.265511   370A      0.266356   371A      0.267676  
     372A      0.269912   373A      0.272409   374A      0.274607  
     375A      0.278440   376A      0.280648   377A      0.281462  
     378A      0.281633   379A      0.282057   380A      0.285820  
     381A      0.286486   382A      0.288116   383A      0.289803  
     384A      0.291687   385A      0.292980   386A      0.293970  
     387A      0.295123   388A      0.296132   389A      0.299454  
     390A      0.301088   391A      0.301903   392A      0.302810  
     393A      0.305177   394A      0.306192   395A      0.307213  
     396A      0.308881   397A      0.310486   398A      0.311488  
     399A      0.314013   400A      0.315198   401A      0.316229  
     402A      0.317172   403A      0.319050   404A      0.320530  
     405A      0.320900   406A      0.322585   407A      0.323622  
     408A      0.323984   409A      0.326802   410A      0.327549  
     411A      0.329529   412A      0.331458   413A      0.332054  
     414A      0.334005   415A      0.334510   416A      0.335331  
     417A      0.336636   418A      0.337559   419A      0.338110  
     420A      0.339009   421A      0.340208   422A      0.341747  
     423A      0.343828   424A      0.345769   425A      0.347223  
     426A      0.349515   427A      0.350197   428A      0.350796  
     429A      0.351507   430A      0.356119   431A      0.356801  
     432A      0.359290   433A      0.361095   434A      0.364132  
     435A      0.365210   436A      0.366009   437A      0.366826  
     438A      0.368160   439A      0.368574   440A      0.372251  
     441A      0.374213   442A      0.375512   443A      0.376020  
     444A      0.377564   445A      0.379760   446A      0.383122  
     447A      0.384219   448A      0.385163   449A      0.386211  
     450A      0.387934   451A      0.390157   452A      0.391735  
     453A      0.395199   454A      0.398085   455A      0.398920  
     456A      0.400350   457A      0.402169   458A      0.402788  
     459A      0.404952   460A      0.408382   461A      0.409816  
     462A      0.411503   463A      0.414327   464A      0.414788  
     465A      0.417118   466A      0.419338   467A      0.419500  
     468A      0.420164   469A      0.421151   470A      0.423559  
     471A      0.427234   472A      0.429211   473A      0.431282  
     474A      0.434800   475A      0.436358   476A      0.441529  
     477A      0.443449   478A      0.443680   479A      0.444724  
     480A      0.449671   481A      0.450375   482A      0.454165  
     483A      0.455776   484A      0.457708   485A      0.459365  
     486A      0.461383   487A      0.464613   488A      0.468814  
     489A      0.470040   490A      0.470081   491A      0.471249  
     492A      0.472983   493A      0.474735   494A      0.475749  
     495A      0.478566   496A      0.480524   497A      0.481012  
     498A      0.483269   499A      0.484663   500A      0.485351  
     501A      0.490019   502A      0.496315   503A      0.501832  
     504A      0.504974   505A      0.507308   506A      0.510349  
     507A      0.515097   508A      0.517738   509A      0.518828  
     510A      0.523238   511A      0.526537   512A      0.526915  
     513A      0.529440   514A      0.538962   515A      0.543015  
     516A      0.545150   517A      0.547286   518A      0.550138  
     519A      0.554658   520A      0.557070   521A      0.562566  
     522A      0.569707   523A      0.572338   524A      0.580679  
     525A      0.581165   526A      0.583070   527A      0.589799  
     528A      0.592125   529A      0.593324   530A      0.596479  
     531A      0.597170   532A      0.608044   533A      0.634715  
     534A      0.635213   535A      0.657877   536A      0.661290  
     537A      0.663478   538A      0.663696   539A      0.664697  
     540A      0.665175   541A      0.676050   542A      0.676723  
     543A      0.687362   544A      0.690371   545A      0.709508  
     546A      0.715666   547A      0.717773   548A      0.721082  
     549A      0.730973   550A      0.732228   551A      0.733144  
     552A      0.744870   553A      0.745213   554A      0.747658  
     555A      0.750133   556A      0.751235   557A      0.753128  
     558A      0.756933   559A      0.764038   560A      0.770564  
     561A      0.771913   562A      0.772835   563A      0.780631  
     564A      0.783537   565A      0.783999   566A      0.785088  
     567A      0.789674   568A      0.792832   569A      0.796333  
     570A      0.797917   571A      0.799691   572A      0.799920  
     573A      0.804723   574A      0.807360   575A      0.807959  
     576A      0.811040   577A      0.812388   578A      0.815347  
     579A      0.817067   580A      0.819211   581A      0.821716  
     582A      0.822684   583A      0.823356   584A      0.828254  
     585A      0.831710   586A      0.834166   587A      0.837498  
     588A      0.838850   589A      0.839672   590A      0.840219  
     591A      0.842598   592A      0.844800   593A      0.847823  
     594A      0.849024   595A      0.851359   596A      0.851860  
     597A      0.854651   598A      0.857744   599A      0.860691  
     600A      0.864041   601A      0.865599   602A      0.868595  
     603A      0.871033   604A      0.873020   605A      0.873824  
     606A      0.877002   607A      0.878058   608A      0.879342  
     609A      0.883491   610A      0.884419   611A      0.886383  
     612A      0.892723   613A      0.894020   614A      0.894274  
     615A      0.895438   616A      0.896573   617A      0.899648  
     618A      0.901217   619A      0.902081   620A      0.905178  
     621A      0.908068   622A      0.908320   623A      0.912249  
     624A      0.916662   625A      0.917389   626A      0.921658  
     627A      0.922823   628A      0.929737   629A      0.930169  
     630A      0.931126   631A      0.934914   632A      0.935852  
     633A      0.938271   634A      0.940644   635A      0.943328  
     636A      0.946038   637A      0.946844   638A      0.950347  
     639A      0.953065   640A      0.955013   641A      0.956086  
     642A      0.958016   643A      0.958562   644A      0.963082  
     645A      0.964722   646A      0.965580   647A      0.966173  
     648A      0.967604   649A      0.968623   650A      0.971468  
     651A      0.972567   652A      0.974440   653A      0.976416  
     654A      0.978784   655A      0.980518   656A      0.981163  
     657A      0.982169   658A      0.985846   659A      0.990195  
     660A      0.993166   661A      0.996779   662A      0.997984  
     663A      1.002028   664A      1.002853   665A      1.003601  
     666A      1.004622   667A      1.006365   668A      1.008504  
     669A      1.010710   670A      1.013037   671A      1.015854  
     672A      1.017991   673A      1.019201   674A      1.021011  
     675A      1.022558   676A      1.027934   677A      1.028699  
     678A      1.030358   679A      1.032462   680A      1.033798  
     681A      1.035596   682A      1.037234   683A      1.037676  
     684A      1.041931   685A      1.047179   686A      1.050312  
     687A      1.053999   688A      1.054596   689A      1.056772  
     690A      1.058506   691A      1.059469   692A      1.066188  
     693A      1.070025   694A      1.073841   695A      1.075024  
     696A      1.077197   697A      1.080732   698A      1.083813  
     699A      1.085864   700A      1.087418   701A      1.089818  
     702A      1.091674   703A      1.095579   704A      1.098653  
     705A      1.102071   706A      1.111112   707A      1.113337  
     708A      1.118856   709A      1.121581   710A      1.122229  
     711A      1.126347   712A      1.128741   713A      1.131167  
     714A      1.136605   715A      1.139922   716A      1.141817  
     717A      1.142640   718A      1.145125   719A      1.146508  
     720A      1.149823   721A      1.154150   722A      1.155572  
     723A      1.164222   724A      1.164643   725A      1.166474  
     726A      1.170015   727A      1.171640   728A      1.175492  
     729A      1.178417   730A      1.181402   731A      1.183174  
     732A      1.184327   733A      1.190372   734A      1.191755  
     735A      1.194002   736A      1.196743   737A      1.199434  
     738A      1.200650   739A      1.206449   740A      1.207903  
     741A      1.210031   742A      1.214251   743A      1.216976  
     744A      1.220078   745A      1.224305   746A      1.226654  
     747A      1.229738   748A      1.233592   749A      1.235557  
     750A      1.239784   751A      1.243191   752A      1.245618  
     753A      1.245916   754A      1.247249   755A      1.247768  
     756A      1.252363   757A      1.252735   758A      1.257237  
     759A      1.260217   760A      1.263403   761A      1.264815  
     762A      1.267352   763A      1.269702   764A      1.270239  
     765A      1.275417   766A      1.277091   767A      1.281570  
     768A      1.285160   769A      1.287410   770A      1.289245  
     771A      1.293201   772A      1.296038   773A      1.302440  
     774A      1.310920   775A      1.313534   776A      1.316754  
     777A      1.323409   778A      1.327047   779A      1.329933  
     780A      1.333581   781A      1.339973   782A      1.341297  
     783A      1.342797   784A      1.343691   785A      1.348974  
     786A      1.351373   787A      1.353534   788A      1.356045  
     789A      1.360213   790A      1.362141   791A      1.364987  
     792A      1.368634   793A      1.369805   794A      1.371102  
     795A      1.371344   796A      1.377730   797A      1.378975  
     798A      1.381833   799A      1.384255   800A      1.391026  
     801A      1.394275   802A      1.406531   803A      1.413291  
     804A      1.415621   805A      1.434990   806A      1.438375  
     807A      1.439892   808A      1.442445   809A      1.448527  
     810A      1.459611   811A      1.463550   812A      1.483139  
     813A      1.492291   814A      1.499533   815A      1.505319  
     816A      1.507508   817A      1.514643   818A      1.522523  
     819A      1.526869   820A      1.530016   821A      1.535098  
     822A      1.540055   823A      1.541674   824A      1.545037  
     825A      1.547526   826A      1.549366   827A      1.552492  
     828A      1.555301   829A      1.557762   830A      1.558718  
     831A      1.561668   832A      1.563820   833A      1.564032  
     834A      1.572855   835A      1.574125   836A      1.575221  
     837A      1.582228   838A      1.585177   839A      1.588303  
     840A      1.590723   841A      1.594823   842A      1.595691  
     843A      1.598797   844A      1.603697   845A      1.604718  
     846A      1.608358   847A      1.612103   848A      1.614126  
     849A      1.615550   850A      1.616882   851A      1.618358  
     852A      1.619742   853A      1.628466   854A      1.632006  
     855A      1.633249   856A      1.638543   857A      1.650575  
     858A      1.654274   859A      1.655749   860A      1.664051  
     861A      1.667504   862A      1.673097   863A      1.679809  
     864A      1.681086   865A      1.683874   866A      1.691524  
     867A      1.694075   868A      1.695119   869A      1.706317  
     870A      1.711777   871A      1.713983   872A      1.717801  
     873A      1.726644   874A      1.734354   875A      1.737393  
     876A      1.740191   877A      1.741218   878A      1.743137  
     879A      1.745395   880A      1.750558   881A      1.751731  
     882A      1.760572   883A      1.764126   884A      1.769988  
     885A      1.772922   886A      1.775820   887A      1.778188  
     888A      1.784132   889A      1.784979   890A      1.786885  
     891A      1.787498   892A      1.793336   893A      1.795805  
     894A      1.797640   895A      1.805376   896A      1.809501  
     897A      1.816033   898A      1.817744   899A      1.821938  
     900A      1.825107   901A      1.827618   902A      1.828885  
     903A      1.829876   904A      1.831247   905A      1.833964  
     906A      1.835232   907A      1.837338   908A      1.839747  
     909A      1.841198   910A      1.846650   911A      1.849146  
     912A      1.852096   913A      1.858644   914A      1.861709  
     915A      1.862457   916A      1.865939   917A      1.867472  
     918A      1.868842   919A      1.869393   920A      1.871136  
     921A      1.874648   922A      1.875267   923A      1.876314  
     924A      1.876964   925A      1.886613   926A      1.888535  
     927A      1.892463   928A      1.904967   929A      1.908651  
     930A      1.912361   931A      1.914067   932A      1.917966  
     933A      1.921567   934A      1.925293   935A      1.927362  
     936A      1.930530   937A      1.933607   938A      1.935927  
     939A      1.936639   940A      1.941775   941A      1.945134  
     942A      1.947155   943A      1.949346   944A      1.952678  
     945A      1.955265   946A      1.958806   947A      1.961456  
     948A      1.962670   949A      1.965695   950A      1.968246  
     951A      1.971013   952A      1.975962   953A      1.977752  
     954A      1.980559   955A      1.983460   956A      1.985203  
     957A      1.986807   958A      1.992216   959A      1.994700  
     960A      1.997425   961A      1.998484   962A      2.000641  
     963A      2.001260   964A      2.005863   965A      2.011924  
     966A      2.014288   967A      2.017408   968A      2.019235  
     969A      2.020264   970A      2.021712   971A      2.024693  
     972A      2.025840   973A      2.027263   974A      2.029075  
     975A      2.030576   976A      2.036174   977A      2.037385  
     978A      2.038374   979A      2.038612   980A      2.040764  
     981A      2.045883   982A      2.046153   983A      2.047400  
     984A      2.049206   985A      2.053115   986A      2.054396  
     987A      2.055750   988A      2.057963   989A      2.059792  
     990A      2.063887   991A      2.064334   992A      2.066171  
     993A      2.067715   994A      2.071374   995A      2.078533  
     996A      2.080916   997A      2.082133   998A      2.086186  
     999A      2.088772  1000A      2.096128  1001A      2.097298  
    1002A      2.107095  1003A      2.109695  1004A      2.111246  
    1005A      2.113943  1006A      2.118176  1007A      2.119355  
    1008A      2.120903  1009A      2.128622  1010A      2.135667  
    1011A      2.137479  1012A      2.139012  1013A      2.145501  
    1014A      2.150996  1015A      2.152224  1016A      2.154385  
    1017A      2.156379  1018A      2.160725  1019A      2.164841  
    1020A      2.167831  1021A      2.169468  1022A      2.170460  
    1023A      2.172441  1024A      2.175327  1025A      2.176254  
    1026A      2.183557  1027A      2.189411  1028A      2.191633  
    1029A      2.194473  1030A      2.195018  1031A      2.195693  
    1032A      2.201173  1033A      2.205059  1034A      2.213110  
    1035A      2.221546  1036A      2.226220  1037A      2.227680  
    1038A      2.235242  1039A      2.237663  1040A      2.244008  
    1041A      2.248574  1042A      2.249164  1043A      2.255742  
    1044A      2.258275  1045A      2.267445  1046A      2.269886  
    1047A      2.271557  1048A      2.273106  1049A      2.277229  
    1050A      2.279120  1051A      2.289726  1052A      2.294120  
    1053A      2.300640  1054A      2.305761  1055A      2.321182  
    1056A      2.327948  1057A      2.334921  1058A      2.337938  
    1059A      2.341090  1060A      2.342755  1061A      2.344127  
    1062A      2.345383  1063A      2.355779  1064A      2.362552  
    1065A      2.370989  1066A      2.385627  1067A      2.394698  
    1068A      2.399230  1069A      2.405738  1070A      2.416496  
    1071A      2.417702  1072A      2.423369  1073A      2.425878  
    1074A      2.435112  1075A      2.447990  1076A      2.450634  
    1077A      2.458019  1078A      2.466116  1079A      2.467056  
    1080A      2.471810  1081A      2.475706  1082A      2.477195  
    1083A      2.478425  1084A      2.479303  1085A      2.482526  
    1086A      2.485654  1087A      2.491220  1088A      2.491331  
    1089A      2.500379  1090A      2.501060  1091A      2.510443  
    1092A      2.512657  1093A      2.517759  1094A      2.521636  
    1095A      2.525982  1096A      2.531521  1097A      2.545971  
    1098A      2.548314  1099A      2.550859  1100A      2.553939  
    1101A      2.556919  1102A      2.565431  1103A      2.566869  
    1104A      2.573972  1105A      2.577829  1106A      2.583919  
    1107A      2.587634  1108A      2.593501  1109A      2.608562  
    1110A      2.614184  1111A      2.614909  1112A      2.618125  
    1113A      2.628694  1114A      2.629518  1115A      2.632526  
    1116A      2.634079  1117A      2.635488  1118A      2.636370  
    1119A      2.646084  1120A      2.649602  1121A      2.656284  
    1122A      2.671867  1123A      2.676816  1124A      2.677399  
    1125A      2.693350  1126A      2.702005  1127A      2.712787  
    1128A      2.714235  1129A      2.717579  1130A      2.746241  
    1131A      2.747655  1132A      2.748544  1133A      2.762176  
    1134A      2.765576  1135A      2.769401  1136A      2.770310  
    1137A      2.775116  1138A      2.777019  1139A      2.785123  
    1140A      2.787608  1141A      2.793963  1142A      2.810105  
    1143A      2.816908  1144A      2.824826  1145A      2.831536  
    1146A      2.837797  1147A      2.842126  1148A      2.845278  
    1149A      2.855690  1150A      2.861136  1151A      2.863091  
    1152A      2.873912  1153A      2.884601  1154A      2.912983  
    1155A      2.918650  1156A      2.938043  1157A      2.954542  
    1158A      2.961346  1159A      2.966167  1160A      2.977714  
    1161A      2.979832  1162A      2.981835  1163A      2.996227  
    1164A      3.001832  1165A      3.023478  1166A      3.034202  
    1167A      3.046824  1168A      3.055361  1169A      3.057105  
    1170A      3.060255  1171A      3.067034  1172A      3.067990  
    1173A      3.069461  1174A      3.071907  1175A      3.072381  
    1176A      3.079775  1177A      3.086658  1178A      3.092190  
    1179A      3.096313  1180A      3.109325  1181A      3.114973  
    1182A      3.116323  1183A      3.130481  1184A      3.135644  
    1185A      3.165246  1186A      3.169851  1187A      3.173378  
    1188A      3.202474  1189A      3.209566  1190A      3.218058  
    1191A      3.253131  1192A      3.275460  1193A      3.341116  
    1194A      3.341548  1195A      3.414857  1196A      3.421262  
    1197A      3.442650  1198A      3.470375  1199A      3.539354  
    1200A      3.550397  1201A      3.564609  1202A      3.571190  
    1203A      3.584257  1204A      3.588816  1205A      3.603792  
    1206A      3.618269  1207A      3.646291  1208A      3.714457  
    1209A      3.780223  1210A      3.791148  1211A      3.791745  
    1212A      3.833940  1213A      3.835758  1214A      3.895182  
    1215A      3.918307  1216A      3.928070  1217A      4.078039  
    1218A      4.083073  1219A      4.154535  

    Final Occupation by Irrep:
              A 
    DOCC [   197 ]
    NA   [   197 ]
    NB   [   197 ]

  @DF-RHF Final Energy: -2359.18198733922873

   => Energetics <=

    Nuclear Repulsion Energy =           8376.1348815112796728
    One-Electron Energy =              -19850.7927395378283109
    Two-Electron Energy =                9115.4758706873199117
    Total Energy =                      -2359.1819873392287263

Computation Completed


Properties will be evaluated at   0.000000,   0.000000,   0.000000 [a0]

Properties computed using the SCF density matrix


 Multipole Moments:

 ------------------------------------------------------------------------------------
     Multipole            Electronic (a.u.)      Nuclear  (a.u.)        Total (a.u.)
 ------------------------------------------------------------------------------------

 L = 1.  Multiply by 2.5417464519 to convert [e a0] to [Debye]
 Dipole X            :          0.0002501            0.0006313            0.0008814
 Dipole Y            :         -6.2603479            7.4856329            1.2252851
 Dipole Z            :         14.0553083          -17.9213990           -3.8660907
 Magnitude           :                                                    4.0556111

 ------------------------------------------------------------------------------------

*** tstop() called on n2cn1050 at Sat Feb  3 16:41:50 2024
Module time:
	user time   =    5222.84 seconds =      87.05 minutes
	system time =     282.22 seconds =       4.70 minutes
	total time  =       1598 seconds =      26.63 minutes
Total time:
	user time   =    5222.84 seconds =      87.05 minutes
	system time =     282.22 seconds =       4.70 minutes
	total time  =       1598 seconds =      26.63 minutes

  //>>>>>>>>>>>>>>>>>>>>>>>>>>>>>>>>>>>//
  //            Monomer A HF           //
  //<<<<<<<<<<<<<<<<<<<<<<<<<<<<<<<<<<<//

   => Libint2 <=

    Primary   basis highest AM E, G, H:  5, 4, 3
    Auxiliary basis highest AM E, G, H:  6, 5, 4
    Onebody   basis highest AM E, G, H:  6, 5, 4
    Solid Harmonics ordering:            gaussian

*** tstart() called on n2cn1050
*** at Sat Feb  3 16:41:50 2024

   => Loading Basis Set <=

    Name: JUN-CC-PVDZ
    Role: ORBITAL
    Keyword: BASIS
    atoms 1-2, 4-5, 10, 17-70 entry C          line   164 file /opt/software/pc2/EB-SW/software/PSI4/1.9-foss-2022a/share/psi4/basis/jun-cc-pvdz.gbs 
    atoms 3, 6                entry N          line   198 file /opt/software/pc2/EB-SW/software/PSI4/1.9-foss-2022a/share/psi4/basis/jun-cc-pvdz.gbs 
    atoms 7-9, 11-16, 71-88   entry H          line    36 file /opt/software/pc2/EB-SW/software/PSI4/1.9-foss-2022a/share/psi4/basis/jun-cc-pvdz.gbs 


         ---------------------------------------------------------
                                   SCF
               by Justin Turney, Rob Parrish, Andy Simmonett
                          and Daniel G. A. Smith
                              RHF Reference
                       16 Threads,  30517 MiB Core
         ---------------------------------------------------------

  ==> Geometry <==

    Molecular point group: c1
    Full point group: C1

    Geometry (in Angstrom), charge = 1, multiplicity = 1:

       Center              X                  Y                   Z               Mass       
    ------------   -----------------  -----------------  -----------------  -----------------
         C            0.680066520158     1.235968212970    -4.532594585639    12.000000000000
         C           -0.680504479842     1.237996212970    -4.532210585639    12.000000000000
         N           -1.085635479842     1.238994212970    -3.213886585639    14.003074004430
         C            0.000107520158     1.242270212970    -2.432485585639    12.000000000000
         C           -2.477365479842     1.288400212970    -2.745907585639    12.000000000000
         N            1.085221520158     1.238994212970    -3.213886585639    14.003074004430
         H            1.385145520158     1.228140212970    -5.350033585639     1.007825032230
         H           -1.385302479842     1.237806212970    -5.349879585639     1.007825032230
         H           -0.000009479842     1.244017212970    -1.351396585639     1.007825032230
         C            2.478116520158     1.222102212970    -2.748788585639    12.000000000000
         H            2.490591520158     1.249447212970    -1.658535585639     1.007825032230
         H            2.967027520158     0.308656212970    -3.095964585639     1.007825032230
         H            3.001427520158     2.097585212970    -3.140260585639     1.007825032230
         H           -2.857359479842     2.310471212970    -2.825866585639     1.007825032230
         H           -3.082679479842     0.618316212970    -3.358971585639     1.007825032230
         H           -2.518128479842     0.961416212970    -1.705959585639     1.007825032230
      Gh(C)           1.225311895423     0.526248873889     0.489472041644    12.000000000000
      Gh(C)           1.225323856051    -0.888828309601     0.477141232074    12.000000000000
      Gh(C)          -0.000006153932     1.233676499060     0.476607608553    12.000000000000
      Gh(C)           2.456448753949     1.237038472148     0.492358899044    12.000000000000
      Gh(C)           0.000010827279    -1.596265913665     0.486807165878    12.000000000000
      Gh(C)          -1.225300948908     0.526255958954     0.491723561967    12.000000000000
      Gh(C)           2.456437755320    -1.599612718911     0.474896075217    12.000000000000
      Gh(C)          -0.000001332978     2.655511616251     0.474204058419    12.000000000000
      Gh(C)           3.681826697470     0.528028540971     0.475244865015    12.000000000000
      Gh(C)           2.455120048865     2.652934246459     0.475142308054    12.000000000000
      Gh(C)           3.681821105219    -0.890623254459     0.491317349033    12.000000000000
      Gh(C)          -1.225313598688    -0.888816930574     0.478213993501    12.000000000000
      Gh(C)           1.226699581202     3.362180068964     0.491501380964    12.000000000000
      Gh(C)           0.000004784858    -3.018071554266     0.491655333499    12.000000000000
      Gh(C)          -2.456436032848     1.237027503255     0.491758957813    12.000000000000
      Gh(C)           2.455123417779    -3.015519443619     0.491165440666    12.000000000000
      Gh(C)          -1.226714364589     3.362179648720     0.491604714183    12.000000000000
      Gh(C)           4.914517295202     1.245883457459     0.481725548045    12.000000000000
      Gh(C)           3.693150191476     3.361505877515     0.481775347681    12.000000000000
      Gh(C)          -2.456437600068    -1.599602695869     0.474871037093    12.000000000000
      Gh(C)           1.226704841943    -3.724763656937     0.475531250214    12.000000000000
      Gh(C)          -2.455125398508     2.652927247604     0.475148684401    12.000000000000
      Gh(C)           4.914524380782    -1.608476324974     0.484698290779    12.000000000000
      Gh(C)           1.221424613699     4.788844650230     0.484836725039    12.000000000000
      Gh(C)           4.893008229321     2.643898584996     0.482942216403    12.000000000000
      Gh(C)          -1.226697008489    -3.724760412107     0.475798454624    12.000000000000
      Gh(C)          -3.681818976526     0.528035551702     0.475257545495    12.000000000000
      Gh(C)           3.693147101150    -3.724090756421     0.484816181340    12.000000000000
      Gh(C)          -1.221432251994     4.788838882833     0.485020220411    12.000000000000
      Gh(C)           6.134770972926     0.499258532075     0.482495322594    12.000000000000
      Gh(C)           3.656788880610     4.791663828537     0.482683985463    12.000000000000
      Gh(C)          -2.455126907733    -3.015504508091     0.490921082868    12.000000000000
      Gh(C)          -3.681819179061    -0.890615118499     0.491434970612    12.000000000000
      Gh(C)           4.893012617914    -3.006489520662     0.483553368299    12.000000000000
      Gh(C)          -0.000001073113     5.469157951002     0.483788911705    12.000000000000
      Gh(C)           6.134775112332    -0.861844269105     0.483760643110    12.000000000000
      Gh(C)           2.478131482856     5.472287336301     0.483972765113    12.000000000000
      Gh(C)           1.221422404738    -5.151416469963     0.482037228016    12.000000000000
      Gh(C)          -3.693162383965     3.361507539162     0.481940855140    12.000000000000
      Gh(C)          -1.221428520945    -5.151407718626     0.481924466183    12.000000000000
      Gh(C)          -4.914521807942     1.245886031965     0.481802493052    12.000000000000
      Gh(C)           3.656787019679    -5.154244641269     0.484134485997    12.000000000000
      Gh(C)          -2.478138530106     5.472285007498     0.484257290122    12.000000000000
      Gh(C)          -3.693141738564    -3.724079634009     0.484700055184    12.000000000000
      Gh(C)          -4.914512483053    -1.608470415058     0.484732987953    12.000000000000
      Gh(C)          -0.000006008926    -5.831727702044     0.483393407583    12.000000000000
      Gh(C)          -4.893020484101     2.643899183889     0.482932134543    12.000000000000
      Gh(C)           2.478125993298    -5.834862958919     0.483043885205    12.000000000000
      Gh(C)          -3.656798710258     4.791666767011     0.482860665838    12.000000000000
      Gh(C)          -4.892999478856    -3.006481182090     0.483399332601    12.000000000000
      Gh(C)          -2.478128498083    -5.834855585037     0.482768697558    12.000000000000
      Gh(C)          -6.134770503331     0.499259351226     0.482469770892    12.000000000000
      Gh(C)          -3.656788833189    -5.154233438001     0.483920198181    12.000000000000
      Gh(C)          -6.134765042913    -0.861843330512     0.483740167315    12.000000000000
      Gh(H)           5.835288495816     3.187986479924     0.487301542066     1.007825032230
      Gh(H)           7.073859172747     1.046927833869     0.482956965988     1.007825032230
      Gh(H)           4.600663264174     5.331091387423     0.483189186215     1.007825032230
      Gh(H)           5.835283387305    -3.550595471759     0.479098900984     1.007825032230
      Gh(H)          -0.000012151306     6.557241259106     0.479439666697     1.007825032230
      Gh(H)           7.073861171831    -1.409516357774     0.483251905016     1.007825032230
      Gh(H)           2.473313731799     6.559394876364     0.483506044183     1.007825032230
      Gh(H)           4.600668491381    -5.693665544206     0.483724488829     1.007825032230
      Gh(H)          -2.473318680537     6.559392304576     0.483807390808     1.007825032230
      Gh(H)          -0.000010268228    -6.919817591482     0.487923092568     1.007825032230
      Gh(H)          -5.835301914343     3.187981535266     0.487437564214     1.007825032230
      Gh(H)           2.473307923831    -6.921974789459     0.483614215630     1.007825032230
      Gh(H)          -4.600674841208     5.331088611573     0.483354514539     1.007825032230
      Gh(H)          -5.835279506835    -3.550578378810     0.478819595103     1.007825032230
      Gh(H)          -2.473300347440    -6.921968493170     0.483164899086     1.007825032230
      Gh(H)          -7.073857766768     1.046931057810     0.482872974507     1.007825032230
      Gh(H)          -4.600673786085    -5.693652084817     0.483552180806     1.007825032230
      Gh(H)          -7.073856934409    -1.409510047007     0.483157048550     1.007825032230

  Running in c1 symmetry.

  Rotational constants: A =      0.00186  B =      0.00185  C =      0.00108 [cm^-1]
  Rotational constants: A =     55.70999  B =     55.49433  C =     32.28373 [MHz]
  Nuclear repulsion =  306.774908447733026

  Charge       = 1
  Multiplicity = 1
  Electrons    = 52
  Nalpha       = 26
  Nbeta        = 26

  ==> Algorithm <==

  SCF Algorithm Type is DF.
  DIIS enabled.
  MOM disabled.
  Fractional occupation disabled.
  Guess Type is SAD.
  Energy threshold   = 1.00e-08
  Density threshold  = 1.00e-08
  Integral threshold = 1.00e-12

  ==> Primary Basis <==

  Basis Set: JUN-CC-PVDZ
    Blend: JUN-CC-PVDZ
    Number of shells: 569
    Number of basis functions: 1233
    Number of Cartesian functions: 1294
    Spherical Harmonics?: true
    Max angular momentum: 2

   => Loading Basis Set <=

    Name: (JUN-CC-PVDZ AUX)
    Role: JKFIT
    Keyword: DF_BASIS_SCF
    atoms 1-2, 4-5, 10, 17-70 entry C          line   146 file /opt/software/pc2/EB-SW/software/PSI4/1.9-foss-2022a/share/psi4/basis/jun-cc-pvdz-jkfit.gbs 
    atoms 3, 6                entry N          line   202 file /opt/software/pc2/EB-SW/software/PSI4/1.9-foss-2022a/share/psi4/basis/jun-cc-pvdz-jkfit.gbs 
    atoms 7-9, 11-16, 71-88   entry H          line    70 file /opt/software/pc2/EB-SW/software/PSI4/1.9-foss-2022a/share/psi4/basis/jun-cc-pvdz-jkfit.gbs 

  ==> Integral Setup <==

  ==> DiskDFJK: Density-Fitted J/K Matrices <==

    J tasked:                  Yes
    K tasked:                  Yes
    wK tasked:                  No
    OpenMP threads:             16
    Integrals threads:          16
    Memory [MiB]:            22888
    Algorithm:                Disk
    Integral Cache:           LOAD
    Schwarz Cutoff:          1E-12
    Fitting Condition:       1E-10

   => Auxiliary Basis Set <=

  Basis Set: (JUN-CC-PVDZ AUX)
    Blend: JUN-CC-PVDZ-JKFIT
    Number of shells: 1890
    Number of basis functions: 5440
    Number of Cartesian functions: 6226
    Spherical Harmonics?: true
    Max angular momentum: 3

  Minimum eigenvalue in the overlap matrix is 5.7184696373E-10.
  Reciprocal condition number of the overlap matrix is 2.2731082266E-11.
    Using canonical orthogonalization.
  Overall, 14 of 1233 possible MOs eliminated.


  ==> Pre-Iterations <==

  SCF Guess: Superposition of Atomic Densities via on-the-fly atomic UHF (no occupation information).

   -------------------------
    Irrep   Nso     Nmo    
   -------------------------
     A       1233    1219 
   -------------------------
    Total    1233    1219
   -------------------------

  ==> Iterations <==

                           Total Energy        Delta E     RMS |[F,P]|

   @DF-RHF iter SAD:  -303.36537325878180   -3.03365e+02   0.00000e+00 
   @DF-RHF iter   1:  -303.17061043173555    1.94763e-01   3.45003e-04 DIIS/ADIIS
   @DF-RHF iter   2:  -303.28509048436933   -1.14480e-01   1.16148e-04 DIIS/ADIIS
   @DF-RHF iter   3:  -303.29662126319909   -1.15308e-02   4.55295e-05 DIIS
   @DF-RHF iter   4:  -303.29854956891057   -1.92831e-03   1.00078e-05 DIIS
   @DF-RHF iter   5:  -303.29865842323881   -1.08854e-04   2.44719e-06 DIIS
   @DF-RHF iter   6:  -303.29866801135358   -9.58811e-06   6.58988e-07 DIIS
   @DF-RHF iter   7:  -303.29866910975181   -1.09840e-06   3.36682e-07 DIIS
   @DF-RHF iter   8:  -303.29866937174086   -2.61989e-07   1.35785e-07 DIIS
   @DF-RHF iter   9:  -303.29866942234480   -5.06039e-08   3.37246e-08 DIIS
   @DF-RHF iter  10:  -303.29866942517430   -2.82949e-09   1.24212e-08 DIIS
   @DF-RHF iter  11:  -303.29866942541418   -2.39879e-10   2.84594e-09 DIIS
  Energy and wave function converged.


  ==> Post-Iterations <==

    Orbital Energies [Eh]
    ---------------------

    Doubly Occupied:                                                      

       1A    -15.834513     2A    -15.833991     3A    -11.529105  
       4A    -11.459643     5A    -11.458090     6A    -11.449489  
       7A    -11.449393     8A     -1.577704     9A     -1.433341  
      10A     -1.238215    11A     -1.188965    12A     -1.118599  
      13A     -1.022083    14A     -0.996564    15A     -0.916686  
      16A     -0.850170    17A     -0.815886    18A     -0.812776  
      19A     -0.789740    20A     -0.785977    21A     -0.781394  
      22A     -0.729476    23A     -0.725572    24A     -0.716975  
      25A     -0.595900    26A     -0.523527  

    Virtual:                                                              

      27A     -0.080458    28A     -0.073711    29A     -0.062971  
      30A     -0.055705    31A     -0.043941    32A     -0.040557  
      33A     -0.040311    34A     -0.039134    35A     -0.037911  
      36A     -0.026880    37A     -0.026626    38A     -0.021704  
      39A     -0.021296    40A     -0.016063    41A     -0.014428  
      42A     -0.013635    43A     -0.009393    44A     -0.007103  
      45A     -0.000831    46A      0.003454    47A      0.005089  
      48A      0.005626    49A      0.005727    50A      0.006181  
      51A      0.012300    52A      0.013192    53A      0.014592  
      54A      0.018163    55A      0.022250    56A      0.023765  
      57A      0.024195    58A      0.028383    59A      0.028973  
      60A      0.030625    61A      0.036881    62A      0.037098  
      63A      0.039802    64A      0.040526    65A      0.043558  
      66A      0.046571    67A      0.049759    68A      0.051487  
      69A      0.052652    70A      0.053830    71A      0.054433  
      72A      0.056143    73A      0.058305    74A      0.060066  
      75A      0.064732    76A      0.066126    77A      0.067067  
      78A      0.068244    79A      0.068796    80A      0.071344  
      81A      0.071919    82A      0.072275    83A      0.073623  
      84A      0.075344    85A      0.079886    86A      0.080180  
      87A      0.081328    88A      0.082465    89A      0.084212  
      90A      0.085531    91A      0.086173    92A      0.089948  
      93A      0.091677    94A      0.092542    95A      0.096106  
      96A      0.100235    97A      0.100506    98A      0.102682  
      99A      0.104959   100A      0.106417   101A      0.107937  
     102A      0.109271   103A      0.111027   104A      0.111542  
     105A      0.112740   106A      0.113222   107A      0.114064  
     108A      0.114685   109A      0.115125   110A      0.116106  
     111A      0.116458   112A      0.121324   113A      0.122062  
     114A      0.124210   115A      0.124630   116A      0.125008  
     117A      0.126921   118A      0.131999   119A      0.133832  
     120A      0.134344   121A      0.135566   122A      0.137307  
     123A      0.140310   124A      0.141060   125A      0.142945  
     126A      0.145938   127A      0.147781   128A      0.150113  
     129A      0.150443   130A      0.151011   131A      0.151258  
     132A      0.152232   133A      0.153030   134A      0.155657  
     135A      0.157799   136A      0.158548   137A      0.159724  
     138A      0.160823   139A      0.161921   140A      0.166449  
     141A      0.167447   142A      0.168462   143A      0.169832  
     144A      0.172194   145A      0.173520   146A      0.174370  
     147A      0.175075   148A      0.176994   149A      0.178462  
     150A      0.178560   151A      0.180632   152A      0.181638  
     153A      0.185312   154A      0.186228   155A      0.187772  
     156A      0.193621   157A      0.194443   158A      0.199652  
     159A      0.200165   160A      0.201094   161A      0.201901  
     162A      0.203386   163A      0.204883   164A      0.205838  
     165A      0.207481   166A      0.209664   167A      0.210954  
     168A      0.212376   169A      0.212739   170A      0.213533  
     171A      0.214571   172A      0.219808   173A      0.220761  
     174A      0.220918   175A      0.222856   176A      0.223194  
     177A      0.224521   178A      0.226100   179A      0.227007  
     180A      0.229610   181A      0.230098   182A      0.231905  
     183A      0.235378   184A      0.236590   185A      0.238484  
     186A      0.239849   187A      0.240776   188A      0.243771  
     189A      0.244896   190A      0.248744   191A      0.251359  
     192A      0.253442   193A      0.256787   194A      0.257777  
     195A      0.260133   196A      0.261717   197A      0.263406  
     198A      0.264508   199A      0.267844   200A      0.268354  
     201A      0.271044   202A      0.273091   203A      0.274656  
     204A      0.276437   205A      0.276954   206A      0.277788  
     207A      0.281270   208A      0.282352   209A      0.283966  
     210A      0.286623   211A      0.287430   212A      0.287831  
     213A      0.290223   214A      0.291597   215A      0.293907  
     216A      0.296296   217A      0.298401   218A      0.300735  
     219A      0.303388   220A      0.306089   221A      0.307083  
     222A      0.309481   223A      0.310518   224A      0.312189  
     225A      0.313387   226A      0.314302   227A      0.315579  
     228A      0.317055   229A      0.320590   230A      0.324253  
     231A      0.324351   232A      0.326339   233A      0.331621  
     234A      0.334830   235A      0.339045   236A      0.339457  
     237A      0.342681   238A      0.345385   239A      0.346193  
     240A      0.350468   241A      0.352245   242A      0.354101  
     243A      0.354532   244A      0.355470   245A      0.356487  
     246A      0.359967   247A      0.362017   248A      0.364649  
     249A      0.366555   250A      0.369552   251A      0.371406  
     252A      0.372458   253A      0.373547   254A      0.375471  
     255A      0.378050   256A      0.379137   257A      0.381319  
     258A      0.382095   259A      0.383561   260A      0.385761  
     261A      0.386699   262A      0.390388   263A      0.391181  
     264A      0.392938   265A      0.395036   266A      0.395079  
     267A      0.399249   268A      0.400342   269A      0.402382  
     270A      0.404560   271A      0.408090   272A      0.409839  
     273A      0.411112   274A      0.411433   275A      0.413140  
     276A      0.415482   277A      0.418076   278A      0.419383  
     279A      0.420933   280A      0.422815   281A      0.425808  
     282A      0.428290   283A      0.428483   284A      0.434351  
     285A      0.435935   286A      0.438127   287A      0.440205  
     288A      0.441750   289A      0.443173   290A      0.445943  
     291A      0.449161   292A      0.449398   293A      0.452353  
     294A      0.453039   295A      0.454268   296A      0.456924  
     297A      0.457551   298A      0.462174   299A      0.462969  
     300A      0.464712   301A      0.467520   302A      0.469722  
     303A      0.470783   304A      0.471679   305A      0.476735  
     306A      0.478260   307A      0.481503   308A      0.485439  
     309A      0.487188   310A      0.489263   311A      0.489836  
     312A      0.492321   313A      0.494991   314A      0.495950  
     315A      0.498796   316A      0.502684   317A      0.503283  
     318A      0.504737   319A      0.508347   320A      0.509158  
     321A      0.510088   322A      0.511492   323A      0.513015  
     324A      0.518663   325A      0.520452   326A      0.524583  
     327A      0.525471   328A      0.528887   329A      0.532600  
     330A      0.534993   331A      0.537230   332A      0.540691  
     333A      0.541624   334A      0.543200   335A      0.545947  
     336A      0.549439   337A      0.551130   338A      0.554145  
     339A      0.555390   340A      0.556404   341A      0.557135  
     342A      0.559372   343A      0.563771   344A      0.564290  
     345A      0.568420   346A      0.569738   347A      0.571026  
     348A      0.572938   349A      0.576303   350A      0.582962  
     351A      0.586101   352A      0.587867   353A      0.590276  
     354A      0.590585   355A      0.594598   356A      0.595370  
     357A      0.599502   358A      0.600624   359A      0.602702  
     360A      0.603390   361A      0.605889   362A      0.606394  
     363A      0.608951   364A      0.612441   365A      0.613584  
     366A      0.615202   367A      0.617371   368A      0.620055  
     369A      0.622045   370A      0.629593   371A      0.632623  
     372A      0.634821   373A      0.637000   374A      0.640383  
     375A      0.642426   376A      0.646745   377A      0.649714  
     378A      0.658428   379A      0.660784   380A      0.663886  
     381A      0.665414   382A      0.668708   383A      0.671405  
     384A      0.673516   385A      0.675158   386A      0.675758  
     387A      0.680156   388A      0.681961   389A      0.682917  
     390A      0.684626   391A      0.685110   392A      0.686098  
     393A      0.691070   394A      0.693024   395A      0.694682  
     396A      0.699487   397A      0.702707   398A      0.705414  
     399A      0.708796   400A      0.710073   401A      0.711138  
     402A      0.713838   403A      0.717416   404A      0.718139  
     405A      0.724498   406A      0.725154   407A      0.728449  
     408A      0.743722   409A      0.746229   410A      0.754584  
     411A      0.763862   412A      0.765455   413A      0.769587  
     414A      0.771338   415A      0.771857   416A      0.773634  
     417A      0.777148   418A      0.779930   419A      0.783345  
     420A      0.787383   421A      0.794515   422A      0.795568  
     423A      0.800416   424A      0.801831   425A      0.803194  
     426A      0.807855   427A      0.808652   428A      0.814587  
     429A      0.815954   430A      0.816535   431A      0.821489  
     432A      0.823806   433A      0.831141   434A      0.837716  
     435A      0.847794   436A      0.851593   437A      0.856832  
     438A      0.865283   439A      0.866965   440A      0.873488  
     441A      0.874524   442A      0.881275   443A      0.883641  
     444A      0.884997   445A      0.891919   446A      0.901203  
     447A      0.906434   448A      0.909092   449A      0.916421  
     450A      0.921516   451A      0.922748   452A      0.923236  
     453A      0.924892   454A      0.932980   455A      0.936147  
     456A      0.940710   457A      0.949952   458A      0.962278  
     459A      0.969382   460A      0.973688   461A      0.975348  
     462A      0.978658   463A      0.981865   464A      0.985424  
     465A      0.988432   466A      0.998035   467A      1.004905  
     468A      1.010507   469A      1.016176   470A      1.021232  
     471A      1.022011   472A      1.023536   473A      1.027973  
     474A      1.059406   475A      1.062715   476A      1.069336  
     477A      1.071371   478A      1.072590   479A      1.075917  
     480A      1.079347   481A      1.087973   482A      1.089793  
     483A      1.098346   484A      1.099343   485A      1.101422  
     486A      1.108086   487A      1.111114   488A      1.112372  
     489A      1.125742   490A      1.131209   491A      1.135053  
     492A      1.138447   493A      1.144308   494A      1.151790  
     495A      1.165808   496A      1.172226   497A      1.182631  
     498A      1.189621   499A      1.191586   500A      1.204589  
     501A      1.207090   502A      1.212012   503A      1.214045  
     504A      1.220455   505A      1.220811   506A      1.225740  
     507A      1.238337   508A      1.239171   509A      1.240571  
     510A      1.242768   511A      1.281011   512A      1.281278  
     513A      1.290047   514A      1.319602   515A      1.347514  
     516A      1.348188   517A      1.355955   518A      1.362102  
     519A      1.369970   520A      1.373278   521A      1.376340  
     522A      1.376954   523A      1.388461   524A      1.407204  
     525A      1.409343   526A      1.424553   527A      1.433108  
     528A      1.444633   529A      1.461463   530A      1.463931  
     531A      1.468230   532A      1.472002   533A      1.479215  
     534A      1.483707   535A      1.499290   536A      1.501126  
     537A      1.525314   538A      1.527417   539A      1.540062  
     540A      1.543133   541A      1.547479   542A      1.561803  
     543A      1.564562   544A      1.574801   545A      1.579083  
     546A      1.582325   547A      1.588094   548A      1.594204  
     549A      1.599969   550A      1.601416   551A      1.606798  
     552A      1.621871   553A      1.627837   554A      1.632139  
     555A      1.639196   556A      1.653894   557A      1.657983  
     558A      1.667178   559A      1.669638   560A      1.673685  
     561A      1.675437   562A      1.683735   563A      1.685480  
     564A      1.687626   565A      1.690153   566A      1.691952  
     567A      1.695610   568A      1.699422   569A      1.701861  
     570A      1.704593   571A      1.710891   572A      1.713177  
     573A      1.714425   574A      1.719768   575A      1.723128  
     576A      1.727571   577A      1.731873   578A      1.734664  
     579A      1.738149   580A      1.738405   581A      1.745088  
     582A      1.746374   583A      1.751481   584A      1.754237  
     585A      1.756002   586A      1.757242   587A      1.761283  
     588A      1.766422   589A      1.768440   590A      1.768774  
     591A      1.773431   592A      1.774706   593A      1.776401  
     594A      1.781421   595A      1.786342   596A      1.789251  
     597A      1.791632   598A      1.797891   599A      1.800806  
     600A      1.802887   601A      1.805021   602A      1.806799  
     603A      1.811320   604A      1.815065   605A      1.817107  
     606A      1.818095   607A      1.819900   608A      1.821777  
     609A      1.824006   610A      1.826539   611A      1.833264  
[...]
     817A      1.762512   818A      1.763747   819A      1.774878  
     820A      1.776222   821A      1.779929   822A      1.790938  
     823A      1.792873   824A      1.804793   825A      1.813535  
     826A      1.818537   827A      1.821266   828A      1.821474  
     829A      1.822875   830A      1.824396   831A      1.827001  
     832A      1.831514   833A      1.835700   834A      1.839158  
     835A      1.842829   836A      1.845228   837A      1.847687  
     838A      1.854227   839A      1.859486   840A      1.864412  
     841A      1.865301   842A      1.866191   843A      1.867175  
     844A      1.870202   845A      1.874122   846A      1.878328  
     847A      1.879987   848A      1.889472   849A      1.893116  
     850A      1.895502   851A      1.902574   852A      1.903045  
     853A      1.906531   854A      1.908558   855A      1.914200  
     856A      1.916880   857A      1.919175   858A      1.919815  
     859A      1.920669   860A      1.921907   861A      1.923627  
     862A      1.924585   863A      1.935005   864A      1.943672  
     865A      1.944235   866A      1.945151   867A      1.946193  
     868A      1.949368   869A      1.949700   870A      1.951734  
     871A      1.953644   872A      1.958197   873A      1.959322  
     874A      1.964190   875A      1.968319   876A      1.974836  
     877A      1.976150   878A      1.983022   879A      1.989667  
     880A      1.992016   881A      1.994123   882A      1.995517  
     883A      1.999865   884A      2.001470   885A      2.005281  
     886A      2.007616   887A      2.009598   888A      2.016237  
     889A      2.019275   890A      2.020884   891A      2.030674  
     892A      2.032347   893A      2.033500   894A      2.034039  
     895A      2.034818   896A      2.041900   897A      2.044831  
     898A      2.047739   899A      2.049975   900A      2.053435  
     901A      2.055047   902A      2.059913   903A      2.061536  
     904A      2.064567   905A      2.066379   906A      2.070790  
     907A      2.073552   908A      2.075684   909A      2.080244  
     910A      2.082257   911A      2.083805   912A      2.087801  
     913A      2.089803   914A      2.090475   915A      2.095078  
     916A      2.095953   917A      2.096337   918A      2.099232  
     919A      2.100571   920A      2.101840   921A      2.103849  
     922A      2.106182   923A      2.107915   924A      2.111513  
     925A      2.112596   926A      2.113551   927A      2.116351  
     928A      2.117661   929A      2.118541   930A      2.121304  
     931A      2.122608   932A      2.124199   933A      2.126230  
     934A      2.126592   935A      2.129458   936A      2.131132  
     937A      2.135185   938A      2.136993   939A      2.138649  
     940A      2.139349   941A      2.141143   942A      2.143569  
     943A      2.144504   944A      2.149587   945A      2.156987  
     946A      2.157227   947A      2.163070   948A      2.164303  
     949A      2.165555   950A      2.174850   951A      2.176918  
     952A      2.179003   953A      2.182487   954A      2.186984  
     955A      2.189935   956A      2.191486   957A      2.193284  
     958A      2.194077   959A      2.197109   960A      2.204965  
     961A      2.211640   962A      2.213370   963A      2.218903  
     964A      2.219635   965A      2.227847   966A      2.235544  
     967A      2.236563   968A      2.240550   969A      2.241450  
     970A      2.245119   971A      2.246667   972A      2.248343  
     973A      2.249636   974A      2.253048   975A      2.256648  
     976A      2.261396   977A      2.264736   978A      2.266685  
     979A      2.269841   980A      2.270877   981A      2.274007  
     982A      2.274796   983A      2.278095   984A      2.281275  
     985A      2.283580   986A      2.299039   987A      2.300857  
     988A      2.307521   989A      2.310367   990A      2.313665  
     991A      2.318514   992A      2.321340   993A      2.324751  
     994A      2.328563   995A      2.333597   996A      2.336999  
     997A      2.342228   998A      2.345132   999A      2.346240  
    1000A      2.353211  1001A      2.355433  1002A      2.355778  
    1003A      2.363093  1004A      2.371825  1005A      2.373234  
    1006A      2.378631  1007A      2.383535  1008A      2.386151  
    1009A      2.387101  1010A      2.416048  1011A      2.419349  
    1012A      2.424480  1013A      2.424859  1014A      2.425551  
    1015A      2.430039  1016A      2.436757  1017A      2.444130  
    1018A      2.449427  1019A      2.458067  1020A      2.464311  
    1021A      2.468141  1022A      2.479190  1023A      2.482747  
    1024A      2.483383  1025A      2.489164  1026A      2.499493  
    1027A      2.500914  1028A      2.507835  1029A      2.516135  
    1030A      2.522935  1031A      2.530043  1032A      2.534522  
    1033A      2.535778  1034A      2.545697  1035A      2.549631  
    1036A      2.551788  1037A      2.553841  1038A      2.555353  
    1039A      2.560164  1040A      2.560900  1041A      2.564076  
    1042A      2.566910  1043A      2.572285  1044A      2.573650  
    1045A      2.575293  1046A      2.576296  1047A      2.579867  
    1048A      2.580205  1049A      2.584645  1050A      2.592849  
    1051A      2.593844  1052A      2.603375  1053A      2.610231  
    1054A      2.615166  1055A      2.619831  1056A      2.623989  
    1057A      2.629088  1058A      2.635193  1059A      2.642844  
    1060A      2.644084  1061A      2.645605  1062A      2.650739  
    1063A      2.651684  1064A      2.655347  1065A      2.662549  
    1066A      2.663305  1067A      2.684379  1068A      2.686792  
    1069A      2.688523  1070A      2.693496  1071A      2.696796  
    1072A      2.699261  1073A      2.711841  1074A      2.713468  
    1075A      2.717243  1076A      2.717561  1077A      2.719970  
    1078A      2.722263  1079A      2.727397  1080A      2.739752  
    1081A      2.743314  1082A      2.750171  1083A      2.758175  
    1084A      2.759024  1085A      2.765509  1086A      2.775838  
    1087A      2.785975  1088A      2.789807  1089A      2.797897  
    1090A      2.802109  1091A      2.803564  1092A      2.814901  
    1093A      2.829274  1094A      2.833147  1095A      2.834855  
    1096A      2.840388  1097A      2.851598  1098A      2.857812  
    1099A      2.859190  1100A      2.860905  1101A      2.872160  
    1102A      2.880515  1103A      2.883769  1104A      2.895848  
    1105A      2.922062  1106A      2.922277  1107A      2.933179  
    1108A      2.939953  1109A      2.942225  1110A      2.948510  
    1111A      2.962654  1112A      2.964307  1113A      2.970909  
    1114A      2.984497  1115A      2.985905  1116A      3.006383  
    1117A      3.016812  1118A      3.017346  1119A      3.033469  
    1120A      3.038300  1121A      3.053241  1122A      3.059491  
    1123A      3.066407  1124A      3.067390  1125A      3.075243  
    1126A      3.083223  1127A      3.094856  1128A      3.104171  
    1129A      3.113929  1130A      3.124835  1131A      3.134695  
    1132A      3.137309  1133A      3.142021  1134A      3.143955  
    1135A      3.146052  1136A      3.148465  1137A      3.149718  
    1138A      3.151039  1139A      3.154190  1140A      3.160932  
    1141A      3.166214  1142A      3.172949  1143A      3.181497  
    1144A      3.184495  1145A      3.193298  1146A      3.194918  
    1147A      3.214512  1148A      3.226772  1149A      3.241848  
    1150A      3.253466  1151A      3.262180  1152A      3.288440  
    1153A      3.290058  1154A      3.314057  1155A      3.317076  
    1156A      3.356823  1157A      3.374004  1158A      3.386789  
    1159A      3.427215  1160A      3.428247  1161A      3.431589  
    1162A      3.498500  1163A      3.500974  1164A      3.515380  
    1165A      3.549482  1166A      3.560762  1167A      3.584179  
    1168A      3.614311  1169A      3.628748  1170A      3.650205  
    1171A      3.656305  1172A      3.666747  1173A      3.671078  
    1174A      3.679444  1175A      3.713381  1176A      3.736720  
    1177A      3.767718  1178A      3.797472  1179A      3.827787  
    1180A      3.871856  1181A      3.872449  1182A      3.884551  
    1183A      3.897568  1184A      3.918298  1185A      3.918384  
    1186A      3.981450  1187A      4.007955  1188A      4.015834  
    1189A      4.054615  1190A      4.160576  1191A      4.179121  
    1192A      4.249772  1193A      4.264011  1194A      4.318371  
    1195A      4.438290  1196A      4.462690  1197A      4.535996  
    1198A      4.830525  1199A      4.866369  1200A      4.943948  
    1201A      4.985700  1202A      4.999803  1203A      5.092135  
    1204A      5.104280  1205A      5.135001  1206A      5.189302  
    1207A      5.255819  1208A      5.447674  1209A      5.455210  
    1210A      5.785425  1211A      5.820928  1212A      6.088820  
    1213A     18.209044  1214A     18.499321  1215A     18.527336  
    1216A     18.613661  1217A     18.865591  1218A     25.362244  
    1219A     25.398259  

    Final Occupation by Irrep:
              A 
    DOCC [   171 ]
    NA   [   171 ]
    NB   [   171 ]

  @DF-RHF Final Energy: -2055.89592429856702

   => Energetics <=

    Nuclear Repulsion Energy =           6452.5568002797781446
    One-Electron Energy =              -15636.5389810488431976
    Two-Electron Energy =                7128.0862564704975739
    Total Energy =                      -2055.8959242985665696

Computation Completed


Properties will be evaluated at   0.000000,   0.000000,   0.000000 [a0]

Properties computed using the SCF density matrix


 Multipole Moments:

 ------------------------------------------------------------------------------------
     Multipole            Electronic (a.u.)      Nuclear  (a.u.)        Total (a.u.)
 ------------------------------------------------------------------------------------

 L = 1.  Multiply by 2.5417464519 to convert [e a0] to [Debye]
 Dipole X            :          0.0011909           -0.0000085            0.0011824
 Dipole Y            :        117.1720126         -117.1648546            0.0071580
 Dipole Z            :       -312.3719661          312.3709842           -0.0009819
 Magnitude           :                                                    0.0073211

 ------------------------------------------------------------------------------------

*** tstop() called on n2cn1050 at Sat Feb  3 16:50:48 2024
Module time:
	user time   =    3482.19 seconds =      58.04 minutes
	system time =     182.23 seconds =       3.04 minutes
	total time  =        320 seconds =       5.33 minutes
Total time:
	user time   =   10566.78 seconds =     176.11 minutes
	system time =     564.79 seconds =       9.41 minutes
	total time  =       2136 seconds =      35.60 minutes
  Constructing Basis Sets for SAPT...

   => Loading Basis Set <=

    Name: (JUN-CC-PVDZ AUX)
    Role: RIFIT
    Keyword: DF_BASIS_SAPT
    atoms 1-2, 4-5, 10, 17-70 entry C          line   100 file /opt/software/pc2/EB-SW/software/PSI4/1.9-foss-2022a/share/psi4/basis/jun-cc-pvdz-ri.gbs 
    atoms 3, 6                entry N          line   144 file /opt/software/pc2/EB-SW/software/PSI4/1.9-foss-2022a/share/psi4/basis/jun-cc-pvdz-ri.gbs 
    atoms 7-9, 11-16, 71-88   entry H          line    30 file /opt/software/pc2/EB-SW/software/PSI4/1.9-foss-2022a/share/psi4/basis/jun-cc-pvdz-ri.gbs 

   => Loading Basis Set <=

    Name: (JUN-CC-PVDZ AUX)
    Role: JKFIT
    Keyword: DF_BASIS_ELST
    atoms 1-2, 4-5, 10, 17-70 entry C          line   146 file /opt/software/pc2/EB-SW/software/PSI4/1.9-foss-2022a/share/psi4/basis/jun-cc-pvdz-jkfit.gbs 
    atoms 3, 6                entry N          line   202 file /opt/software/pc2/EB-SW/software/PSI4/1.9-foss-2022a/share/psi4/basis/jun-cc-pvdz-jkfit.gbs 
    atoms 7-9, 11-16, 71-88   entry H          line    70 file /opt/software/pc2/EB-SW/software/PSI4/1.9-foss-2022a/share/psi4/basis/jun-cc-pvdz-jkfit.gbs 


  //>>>>>>>>>>>>>>>>>>>>>>>>>>>>>>>>>>>//
  //               SSAPT0              //
  //<<<<<<<<<<<<<<<<<<<<<<<<<<<<<<<<<<<//


*** tstart() called on n2cn1050
*** at Sat Feb  3 16:50:49 2024

        SAPT0  
    Ed Hohenstein
     6 June 2009

      Orbital Information
  --------------------------
    NSO        =      1233
    NMO        =      1219
    NRI        =      4343
    NRI (Elst) =      5440
    NOCC A     =        26
    NOCC B     =       171
    FOCC A     =         7
    FOCC B     =        54
    NVIR A     =      1193
    NVIR B     =      1048

    Elst10,r            =    -0.034578992971 [Eh]
    Exch10              =     0.081040829918 [Eh]
    Exch10 (S^2)        =     0.079311011785 [Eh]

    Iter     Energy [mEh]          dE [mEh]         Residual      Time [s]
       1      -8.22007338       8.220073379      14.903074650            33
       2     -10.11802141       1.897948035       4.713602577            49
       3     -10.32745604       0.209434626       0.846883347            62
       4     -10.31249739      -0.014958646       0.277361585            75
       5     -10.30599266      -0.006504729       0.061563215            88
       6     -10.30761236       0.001619698       0.026688346           101
       7     -10.30756237      -0.000049992       0.013719683           114
       8     -10.30736878      -0.000193591       0.003597349           127
       9     -10.30736588      -0.000002898       0.001124736           140
      10     -10.30737765       0.000011770       0.000282416           153
      11     -10.30737743      -0.000000224       0.000062520           175
      12     -10.30737689      -0.000000533       0.000014117           199
      13     -10.30737695       0.000000061       0.000004542           216
      14     -10.30737698       0.000000026       0.000001552           230
      15     -10.30737697      -0.000000007       0.000000618           243

    CHF Iterations converged


    Iter     Energy [mEh]          dE [mEh]         Residual      Time [s]
       1     -40.43305303      40.433053028      89.405765751            31
       2     -32.81311451      -7.619938520      16.520622040            51
       3     -34.75653370       1.943419195       8.345433074            71
       4     -36.00060584       1.244072134       1.921796682            94
       5     -35.98026191      -0.020343932       1.267846550           116
       6     -35.88513413      -0.095127776       0.710086197           136
       7     -35.89771053       0.012576400       0.514789166           157
       8     -35.92691825       0.029207723       0.248894134           178
       9     -35.92747581       0.000557558       0.147621691           198
      10     -35.92115290      -0.006322913       0.067130083           218
      11     -35.92078600      -0.000366894       0.029821931           239
      12     -35.92178943       0.001003423       0.011376155           259
      13     -35.92190828       0.000118855       0.005179543           279
      14     -35.92181730      -0.000090982       0.002547225           301
      15     -35.92176279      -0.000054509       0.001222942           320
      16     -35.92177875       0.000015961       0.000598957           340
      17     -35.92179217       0.000013422       0.000305131           361
      18     -35.92179010      -0.000002070       0.000164659           389
      19     -35.92178675      -0.000003350       0.000073566           420
      20     -35.92178646      -0.000000297       0.000030632           443
      21     -35.92178722       0.000000764       0.000017389           465
      22     -35.92178730       0.000000079       0.000009666           487
      23     -35.92178708      -0.000000223       0.000004579           508
      24     -35.92178706      -0.000000017       0.000001861           528
      25     -35.92178710       0.000000034       0.000000716           549

    CHF Iterations converged

    Ind20,r (A<-B)      =    -0.010307376974 [Eh]
    Ind20,r (B<-A)      =    -0.035921787095 [Eh]
    Ind20,r             =    -0.046229164069 [Eh]
    Exch-Ind20,r (A<-B) =     0.009480914774 [Eh]
    Exch-Ind20,r (B<-A) =     0.014815519610 [Eh]
    Exch-Ind20,r        =     0.024296434384 [Eh]
    Disp20              =    -0.046783274089 [Eh]
    Disp20 (SS)         =    -0.023391637044 [Eh]
    Disp20 (OS)         =    -0.023391637044 [Eh]
    Exch-Disp20         =     0.005019367561 [Eh]
    Exch-Disp20 (SS)    =     0.003081049116 [Eh]
    Exch-Disp20 (OS)    =     0.001938318445 [Eh]

    SAPT Results 
  --------------------------------------------------------------------------------------------------------
    Electrostatics                -34.57899297 [mEh]     -21.69864568 [kcal/mol]     -90.78713354 [kJ/mol]
      Elst10,r                    -34.57899297 [mEh]     -21.69864568 [kcal/mol]     -90.78713354 [kJ/mol]

    Exchange                       81.04082992 [mEh]      50.85388854 [kcal/mol]     212.77266964 [kJ/mol]
      Exch10                       81.04082992 [mEh]      50.85388854 [kcal/mol]     212.77266964 [kJ/mol]
      Exch10(S^2)                  79.31101178 [mEh]      49.76841127 [kcal/mol]     208.23103275 [kJ/mol]

    Induction                     -33.85545219 [mEh]     -21.24461699 [kcal/mol]     -88.88747749 [kJ/mol]
      Ind20,r                     -46.22916407 [mEh]     -29.00923842 [kcal/mol]    -121.37465354 [kJ/mol]
      Exch-Ind20,r                 24.29643438 [mEh]      15.24624275 [kcal/mol]      63.79027969 [kJ/mol]
      delta HF,r (2)              -11.92272251 [mEh]      -7.48162133 [kcal/mol]     -31.30310364 [kJ/mol]

    Dispersion                    -41.76390653 [mEh]     -26.20724701 [kcal/mol]    -109.65112148 [kJ/mol]
      Disp20                      -46.78327409 [mEh]     -29.35694770 [kcal/mol]    -122.82946920 [kJ/mol]
      Exch-Disp20                   5.01936756 [mEh]       3.14970070 [kcal/mol]      13.17834772 [kJ/mol]
      Disp20 (SS)                 -23.39163704 [mEh]     -14.67847385 [kcal/mol]     -61.41473460 [kJ/mol]
      Disp20 (OS)                 -23.39163704 [mEh]     -14.67847385 [kcal/mol]     -61.41473460 [kJ/mol]
      Exch-Disp20 (SS)              3.08104912 [mEh]       1.93338751 [kcal/mol]       8.08929334 [kJ/mol]
      Exch-Disp20 (OS)              1.93831845 [mEh]       1.21631319 [kcal/mol]       5.08905438 [kJ/mol]

  Total HF                         12.60638475 [mEh]       7.91062586 [kcal/mol]      33.09805861 [kJ/mol]
  Total SAPT0                     -29.15752178 [mEh]     -18.29662115 [kcal/mol]     -76.55306287 [kJ/mol]

  Special recipe for scaled SAPT0 (see Manual):
    Electrostatics sSAPT0         -34.57899297 [mEh]     -21.69864568 [kcal/mol]     -90.78713354 [kJ/mol]
    Exchange sSAPT0                81.04082992 [mEh]      50.85388854 [kcal/mol]     212.77266964 [kJ/mol]
    Induction sSAPT0              -32.23076958 [mEh]     -20.22511326 [kcal/mol]     -84.62187388 [kJ/mol]
    Dispersion sSAPT0             -41.42826554 [mEh]     -25.99662911 [kcal/mol]    -108.76989619 [kJ/mol]
  Total sSAPT0                    -27.19719818 [mEh]     -17.06649952 [kcal/mol]     -71.40623398 [kJ/mol]
  --------------------------------------------------------------------------------------------------------

*** tstop() called on n2cn1050 at Sat Feb  3 17:25:23 2024
Module time:
	user time   =   12816.15 seconds =     213.60 minutes
	system time =     741.35 seconds =      12.36 minutes
	total time  =       2074 seconds =      34.57 minutes
Total time:
	user time   =   23383.75 seconds =     389.73 minutes
	system time =    1306.15 seconds =      21.77 minutes
	total time  =       4211 seconds =      70.18 minutes

    Psi4 stopped on: Saturday, 03 February 2024 05:25PM
    Psi4 wall time for execution: 1:10:11.79

*** Psi4 exiting successfully. Buy a developer a beer!
