
    -----------------------------------------------------------------------
          Psi4: An Open-Source Ab Initio Electronic Structure Package
                               Psi4 1.9 release

                         Git: Rev {} zzzzzzz 


    D. G. A. Smith, L. A. Burns, A. C. Simmonett, R. M. Parrish,
    M. C. Schieber, R. Galvelis, P. Kraus, H. Kruse, R. Di Remigio,
    A. Alenaizan, A. M. James, S. Lehtola, J. P. Misiewicz, M. Scheurer,
    R. A. Shaw, J. B. Schriber, Y. Xie, Z. L. Glick, D. A. Sirianni,
    J. S. O'Brien, J. M. Waldrop, A. Kumar, E. G. Hohenstein,
    B. P. Pritchard, B. R. Brooks, H. F. Schaefer III, A. Yu. Sokolov,
    K. Patkowski, A. E. DePrince III, U. Bozkaya, R. A. King,
    F. A. Evangelista, J. M. Turney, T. D. Crawford, C. D. Sherrill,
    J. Chem. Phys. 152(18) 184108 (2020). https://doi.org/10.1063/5.0006002

                            Additional Code Authors
    E. T. Seidl, C. L. Janssen, E. F. Valeev, M. L. Leininger,
    J. F. Gonthier, R. M. Richard, H. R. McAlexander, M. Saitow, X. Wang,
    P. Verma, M. H. Lechner, A. Jiang, S. Behnle, A. G. Heide,
    M. F. Herbst, and D. L. Poole

             Previous Authors, Complete List of Code Contributors,
                       and Citations for Specific Modules
    https://github.com/psi4/psi4/blob/master/codemeta.json
    https://github.com/psi4/psi4/graphs/contributors
    http://psicode.org/psi4manual/master/introduction.html#citing-psifour

    -----------------------------------------------------------------------


    Psi4 started on: Saturday, 27 January 2024 10:41AM

    Process ID: 1477605
    Host:       n2cn1041.ab2021.local
    PSIDATADIR: /opt/software/pc2/EB-SW/software/PSI4/1.9-foss-2022a/share/psi4
    Memory:     500.0 MiB
    Threads:    16
    
  ==> Input File <==

--------------------------------------------------------------------------
memory 64 GB # how much memory is available ! Depends on the nodes/cores !

molecule dimer {
# monomer A
-1 1    # Charge and multiplicity
B -1.977592e-04  2.742729e-04 -6.399966
F  1.123153e-16  1.430594e-17 -4.987181
F  1.147860e+00  6.757812e-01 -6.871107
F  1.191806e-02 -1.332011e+00 -6.870905
F -1.159666e+00  6.560735e-01 -6.870826
--
# monomer B
0 1     # Charge and multiplicity
C   -3.66844126402057      7.80375217008252      0.00190004133558
C   -4.84759871934653      7.13124183134024     -0.00046653359696
C   -4.89495929917518      5.69633040353158     -0.00103944469517
C   -3.65374067877320      4.98073034095895      0.00662099703436
C   -2.40942512149445      7.11398103667468      0.00209438359570
C   -2.42547734410473      5.68112195090346     -0.00491050527438
C   -1.19474401643570      7.78614419430947      0.00356656413763
C   0.03795902893699      7.09942164575698      0.00139585983271
C   0.03033258741920      5.66948955970466     -0.00408752508301
C   -1.20098450790502      4.96927034791531      0.00488220885047
C   1.27795782581485      7.77285944319479      0.00277170839332
C   2.48535808472416      7.08769688523756      0.00049722048857
C   2.48612868491717      5.65477081024076     -0.00644052849921
C   1.25408291964399      4.95607811366431      0.00518741308898
C   3.75171459140595      7.76391215098033      0.00062407186893
C   4.92356605618520      7.07878077698995     -0.00143240883900
C   4.95560727132542      5.64344746336949     -0.00159282164606
C   3.70680153420475      4.94121020833308      0.00349873852374
H   -3.65852113775815      8.89082741913536      0.00358502958574
H   -1.18921332975660      8.87412108735996      0.00753844057883
H   1.28429423888630      8.86083343548850      0.00693053253426
H   3.75354208679975      8.85103527897216      0.00214659618464
H   5.86995870320703      7.61379483465560     -0.00235777588134
H   -5.78823170750226      7.67630221293400     -0.00202638095293
C   -6.09197395869619      4.99326001364347     -0.00291168518608
C   -6.12866148031747      3.58258016879823     -0.00171050815740
C   -3.66457974004527      3.56418217974434     -0.00463560277484
C   -4.89429820469869      2.86108077590057      0.00453338221034
C   -2.43733499489796      2.84761165708481      0.00719617576166
C   -1.20922785759670      3.54788693497833     -0.00648285103018
C   1.24714157216223      3.53468075142962     -0.00729145743546
C   0.01517603956900      2.83311183930540      0.00439272578912
C   2.46764517244071      2.82128997725533      0.00449278391269
C   3.70254947457969      3.52466015442405     -0.00899517692985
C   6.14498038638375      4.92757236613191     -0.00282626685777
C   6.16658835886151      3.51658447594213     -0.00065971342101
C   4.92460995845939      2.80840792535402      0.00587903281610
H   7.08990550964105      5.46688776622306     -0.00658814770723
H   -7.03104175110130      5.54268795285765     -0.00714490013730
C   -7.33969804112295      2.85841153457957     -0.00333767559888
C   -7.36488195805880      1.47032337158330     -0.00157213747140
C   -4.90350460894690      1.44442681216000     -0.00628840166334
C   -6.13225715261081      0.73993935705394      0.00600164231964
C   -3.67687480051673      0.72669714267312      0.00433931473643
C   -2.44565658606518      1.42964113326212     -0.00597039546461
C   -1.22360068130162      0.71532450163492      0.00545886906656
C   0.00763786931376      1.41738314923765      0.00392452278437
C   1.23121980774686      0.70211669058719     -0.01490206287210
C   2.46082110053113      1.40329203612573      0.00460244601878
C   3.68443025419614      0.68719842821222      0.00377365974158
C   4.91870890153864      1.39173456118907     -0.00862816189375
C   7.36980207796101      2.77948220318441     -0.00242013321349
C   7.38016266612146      1.39121750785509     -0.00087345036788
C   6.13979953912259      0.67411862320065      0.00545489144369
H   -8.27919079934664      3.40711804112415     -0.00763522772059
H   8.31511347147953      3.31811809662368     -0.00663070901292
C   -8.59175593758115      0.72483255304480     -0.00123170985383
C   -8.59902460370342     -0.63263980622873      0.00089141472904
C   -6.13981313911873     -0.67413663715361     -0.00609792660607
C   -7.38018411213749     -1.39126618958160      0.00131813493501
C   -4.91868448025621     -1.39175501803000      0.00624257154343
C   -3.68443829568458     -0.68723731573599     -0.00478966852105
C   -2.46081704024768     -1.40334517882457      0.00575341766833
C   -1.23116201232071     -0.70217386488055     -0.00636696112346
C   -0.00756962538737     -1.41741884941102      0.00108956317991
C   1.22364771588843     -0.71527537726392      0.01109518512883
C   2.44567064933149     -1.42964328900682     -0.00065482763106
C   3.67686670284649     -0.72670743155550     -0.00479541202602
C   6.13224884641929     -0.73997883984993     -0.00632338623858
C   4.90351914550401     -1.44445752054090      0.00751768830159
C   8.59901484869081      0.63260386666793     -0.00101133422380
C   8.59174548810050     -0.72485086719319      0.00072504603735
C   7.36486276438985     -1.47033266560598      0.00049486934466
H   -9.52830597181814      1.27684744919284     -0.00270163681798
H   9.54141097460619      1.17457248844457     -0.00206336648518
C   -7.36983790976868     -2.77954514593389      0.00312634335708
C   -4.92459910905015     -2.80843725734101     -0.00460528907921
C   -6.16662249566744     -3.51665219282533      0.00169655107992
C   -3.70251035970491     -3.52468154912026      0.00571878010666
C   -2.46764698511392     -2.82132596280400     -0.00632585824990
C   -0.01513347410770     -2.83314164539971     -0.00604426974092
C   -1.24712184122656     -3.53473217556300      0.00551968366725
C   1.20924506964357     -3.54791467864352      0.00805871345849
C   2.43733602215464     -2.84764173817541     -0.00608104485234
C   4.89430234377080     -2.86112296828604     -0.00526030478103
C   3.66461525504104     -3.56421984553201      0.00761911515957
C   6.12863901474565     -3.58258405771778      0.00096495711699
C   7.33967266469532     -2.85841330737039      0.00248018319869
H   -9.54144911125902     -1.17456346666430      0.00226083090216
H   9.52826186807155     -1.27691907390448      0.00197485379837
H   -8.31516504384864     -3.31814985321231      0.00729857188773
H   8.27915514249207     -3.40714078989363      0.00681973918158
C   -6.14499418870218     -4.92764727278338      0.00302254913999
C   -3.70678334799751     -4.94126171411716     -0.00679841894792
C   -4.95559005800169     -5.64349397349412      0.00116871569699
C   -2.48612132622665     -5.65478557440947      0.00614125209662
C   -1.25405833548005     -4.95612205000132     -0.00503435388927
C   1.20101257386816     -4.96928038819302     -0.00385322963129
C   -0.03033667441341     -5.66952030313900      0.00398997003238
C   3.65375010132847     -4.98074377541453     -0.00309522988330
C   2.42549269587528     -5.68117463552727      0.00628170066869
C   6.09196561781097     -4.99325796338655      0.00325918379042
C   4.89497644461045     -5.69634842095790      0.00202298796027
H   -7.08989238804069     -5.46699984223871      0.00742531082125
H   7.03105520920009     -5.54265853633254      0.00683896355417
C   -4.92354532219813     -7.07882109967734      0.00061394679214
C   -2.48534208823777     -7.08772807792913     -0.00189594564379
C   -3.75168589177895     -7.76394715763627     -0.00170126671874
C   -0.03794895698805     -7.09946487446944     -0.00168022049625
C   -1.27795610040136     -7.77290438466689     -0.00366491325785
C   2.40944432072629     -7.11402201200282     -0.00081701968533
C   1.19474993715296     -7.78618536556242     -0.00296931056689
C   4.84762105249800     -7.13126211057943      0.00168979497423
C   3.66847160587561     -7.80378799294376     -0.00065863938960
H   -5.86994035041618     -7.61383059804164      0.00215798365757
H   5.78824962538815     -7.67633218931421      0.00281691445618
H   -3.75352693944918     -8.85107156923607     -0.00353718114765
H   -1.28430440589466     -8.86087539249706     -0.00809229711623
H   1.18922157469537     -8.87416062058945     -0.00706194725726
H   3.65854661482387     -8.89086063405326     -0.00231318081200

    units angstrom      # Angstroms are the default
    no_reorient         # Geometry fixed, default
    symmetry c1         # C1 symmetry, default
}

set {
    scf_type DF         # Density fitting, faster than exact integrals
    freeze_core True    # Freeze core electrons
    basis jun-cc-pVDZ   # Jun-cc-pVDZ basis set, recommended for sSAPT0 in https://doi.org/10.1063/1.4867135
}

energy('ssapt0')        # Compute sSAPT0 energy, includes also SAPT0
--------------------------------------------------------------------------

  Memory set to  59.605 GiB by Python driver.

Scratch directory: /tmp/
   => Loading Basis Set <=

    Name: JUN-CC-PVDZ
    Role: ORBITAL
    Keyword: BASIS
    atoms 1                                                   entry B          line   130 file /opt/software/pc2/EB-SW/software/PSI4/1.9-foss-2022a/share/psi4/basis/jun-cc-pvdz.gbs 
    atoms 2-5                                                 entry F          line   266 file /opt/software/pc2/EB-SW/software/PSI4/1.9-foss-2022a/share/psi4/basis/jun-cc-pvdz.gbs 
    atoms 6-23, 30-42, 45-59, 62-78, 81-93, 98-108, 111-119   entry C          line   164 file /opt/software/pc2/EB-SW/software/PSI4/1.9-foss-2022a/share/psi4/basis/jun-cc-pvdz.gbs 
    atoms 24-29, 43-44, 60-61, 79-80, 94-97, 109-110, 120-125 entry H          line    36 file /opt/software/pc2/EB-SW/software/PSI4/1.9-foss-2022a/share/psi4/basis/jun-cc-pvdz.gbs 

   => Loading Basis Set <=

    Name: JUN-CC-PVDZ
    Role: ORBITAL
    Keyword: BASIS
    atoms 1                                                   entry B          line   130 file /opt/software/pc2/EB-SW/software/PSI4/1.9-foss-2022a/share/psi4/basis/jun-cc-pvdz.gbs 
    atoms 2-5                                                 entry F          line   266 file /opt/software/pc2/EB-SW/software/PSI4/1.9-foss-2022a/share/psi4/basis/jun-cc-pvdz.gbs 
    atoms 6-23, 30-42, 45-59, 62-78, 81-93, 98-108, 111-119   entry C          line   164 file /opt/software/pc2/EB-SW/software/PSI4/1.9-foss-2022a/share/psi4/basis/jun-cc-pvdz.gbs 
    atoms 24-29, 43-44, 60-61, 79-80, 94-97, 109-110, 120-125 entry H          line    36 file /opt/software/pc2/EB-SW/software/PSI4/1.9-foss-2022a/share/psi4/basis/jun-cc-pvdz.gbs 


  //>>>>>>>>>>>>>>>>>>>>>>>>>>>>>>>>>>>//
  //              Dimer HF             //
  //<<<<<<<<<<<<<<<<<<<<<<<<<<<<<<<<<<<//

   => Libint2 <=

    Primary   basis highest AM E, G, H:  5, 4, 3
    Auxiliary basis highest AM E, G, H:  6, 5, 4
    Onebody   basis highest AM E, G, H:  6, 5, 4
    Solid Harmonics ordering:            gaussian

*** tstart() called on n2cn1041.ab2021.local
*** at Sat Jan 27 10:41:45 2024

   => Loading Basis Set <=

    Name: JUN-CC-PVDZ
    Role: ORBITAL
    Keyword: BASIS
    atoms 1                                                   entry B          line   130 file /opt/software/pc2/EB-SW/software/PSI4/1.9-foss-2022a/share/psi4/basis/jun-cc-pvdz.gbs 
    atoms 2-5                                                 entry F          line   266 file /opt/software/pc2/EB-SW/software/PSI4/1.9-foss-2022a/share/psi4/basis/jun-cc-pvdz.gbs 
    atoms 6-23, 30-42, 45-59, 62-78, 81-93, 98-108, 111-119   entry C          line   164 file /opt/software/pc2/EB-SW/software/PSI4/1.9-foss-2022a/share/psi4/basis/jun-cc-pvdz.gbs 
    atoms 24-29, 43-44, 60-61, 79-80, 94-97, 109-110, 120-125 entry H          line    36 file /opt/software/pc2/EB-SW/software/PSI4/1.9-foss-2022a/share/psi4/basis/jun-cc-pvdz.gbs 


         ---------------------------------------------------------
                                   SCF
               by Justin Turney, Rob Parrish, Andy Simmonett
                          and Daniel G. A. Smith
                              RHF Reference
                       16 Threads,  61035 MiB Core
         ---------------------------------------------------------

  ==> Geometry <==

    Molecular point group: c1
    Full point group: C1

    Geometry (in Angstrom), charge = -1, multiplicity = 1:

       Center              X                  Y                   Z               Mass       
    ------------   -----------------  -----------------  -----------------  -----------------
         B           -0.000201921932     0.000288800891    -5.959165804409    11.009305360000
         F           -0.000004162732     0.000014527991    -4.546380804409    18.998403162730
         F            1.147855837268     0.675795727991    -6.430306804409    18.998403162730
         F            0.011913897268    -1.331996472009    -6.430104804409    18.998403162730
         F           -1.159670162732     0.656088027991    -6.430025804409    18.998403162730
         C           -3.668445426752     7.803766698073     0.442700236927    12.000000000000
         C           -4.847602882078     7.131256359331     0.440333661994    12.000000000000
         C           -4.894963461907     5.696344931522     0.439760750896    12.000000000000
         C           -3.653744841505     4.980744868950     0.447421192626    12.000000000000
         C           -2.409429284226     7.113995564665     0.442894579187    12.000000000000
         C           -2.425481506836     5.681136478894     0.435889690317    12.000000000000
         C           -1.194748179167     7.786158722300     0.444366759729    12.000000000000
         C            0.037954866205     7.099436173748     0.442196055424    12.000000000000
         C            0.030328424687     5.669504087695     0.436712670508    12.000000000000
         C           -1.200988670637     4.969284875906     0.445682404442    12.000000000000
         C            1.277953663083     7.772873971185     0.443571903985    12.000000000000
         C            2.485353921992     7.087711413228     0.441297416080    12.000000000000
         C            2.486124522185     5.654785338231     0.434359667092    12.000000000000
         C            1.254078756912     4.956092641655     0.445987608680    12.000000000000
         C            3.751710428674     7.763926678971     0.441424267460    12.000000000000
         C            4.923561893453     7.078795304981     0.439367786752    12.000000000000
         C            4.955603108594     5.643461991360     0.439207373945    12.000000000000
         C            3.706797371473     4.941224736324     0.444298934115    12.000000000000
         H           -3.658525300490     8.890841947126     0.444385225177     1.007825032230
         H           -1.189217492488     8.874135615351     0.448338636170     1.007825032230
         H            1.284290076155     8.860847963479     0.447730728126     1.007825032230
         H            3.753537924068     8.851049806963     0.442946791776     1.007825032230
         H            5.869954540475     7.613809362646     0.438442419710     1.007825032230
         H           -5.788235870234     7.676316740925     0.438773814638     1.007825032230
         C           -6.091978121428     4.993274541634     0.437888510405    12.000000000000
         C           -6.128665643049     3.582594696789     0.439089687434    12.000000000000
         C           -3.664583902777     3.564196707735     0.436164592816    12.000000000000
         C           -4.894302367430     2.861095303891     0.445333577802    12.000000000000
         C           -2.437339157630     2.847626185075     0.447996371353    12.000000000000
         C           -1.209232020328     3.547901462969     0.434317344561    12.000000000000
         C            1.247137409430     3.534695279420     0.433508738156    12.000000000000
         C            0.015171876837     2.833126367296     0.445192921380    12.000000000000
         C            2.467641009709     2.821304505246     0.445292979504    12.000000000000
         C            3.702545311848     3.524674682415     0.431805018661    12.000000000000
         C            6.144976223652     4.927586894122     0.437973928734    12.000000000000
         C            6.166584196130     3.516599003933     0.440140482170    12.000000000000
         C            4.924605795728     2.808422453345     0.446679228407    12.000000000000
         H            7.089901346909     5.466902294214     0.434212047884     1.007825032230
         H           -7.031045913833     5.542702480848     0.433655295454     1.007825032230
         C           -7.339702203855     2.858426062570     0.437462519992    12.000000000000
         C           -7.364886120791     1.470337899574     0.439228058120    12.000000000000
         C           -4.903508771679     1.444441340151     0.434511793928    12.000000000000
         C           -6.132261315343     0.739953885044     0.446801837911    12.000000000000
         C           -3.676878963248     0.726711670664     0.445139510328    12.000000000000
         C           -2.445660748797     1.429655661253     0.434829800127    12.000000000000
         C           -1.223604844033     0.715339029625     0.446259064658    12.000000000000
         C            0.007633706582     1.417397677228     0.444724718376    12.000000000000
         C            1.231215645015     0.702131218578     0.425898132719    12.000000000000
         C            2.460816937799     1.403306564116     0.445402641610    12.000000000000
         C            3.684426091464     0.687212956203     0.444573855333    12.000000000000
         C            4.918704738807     1.391749089180     0.432172033698    12.000000000000
         C            7.369797915229     2.779496731175     0.438380062378    12.000000000000
         C            7.380158503390     1.391232035846     0.439926745223    12.000000000000
         C            6.139795376391     0.674133151191     0.446255087035    12.000000000000
         H           -8.279194962078     3.407132569115     0.433164967871     1.007825032230
         H            8.315109308748     3.318132624614     0.434169486578     1.007825032230
         C           -8.591760100313     0.724847081035     0.439568485737    12.000000000000
         C           -8.599028766435    -0.632625278238     0.441691610320    12.000000000000
         C           -6.139817301850    -0.674122109163     0.434702268985    12.000000000000
         C           -7.380188274869    -1.391251661591     0.442118330526    12.000000000000
         C           -4.918688642988    -1.391740490039     0.447042767135    12.000000000000
         C           -3.684442458416    -0.687222787745     0.436010527070    12.000000000000
         C           -2.460821202979    -1.403330650834     0.446553613260    12.000000000000
         C           -1.231166175052    -0.702159336890     0.434433234468    12.000000000000
         C           -0.007573788119    -1.417404321420     0.441889758771    12.000000000000
         C            1.223643553157    -0.715260849273     0.451895380720    12.000000000000
         C            2.445666486600    -1.429628761016     0.440145367960    12.000000000000
         C            3.676862540115    -0.726692903565     0.436004783565    12.000000000000
         C            6.132244683688    -0.739964311859     0.434476809353    12.000000000000
         C            4.903514982772    -1.444442992550     0.448317883893    12.000000000000
         C            8.599010685959     0.632618394658     0.439788861367    12.000000000000
         C            8.591741325369    -0.724836339203     0.441525241629    12.000000000000
         C            7.364858601658    -1.470318137615     0.441295064936    12.000000000000
         H           -9.528310134550     1.276861977183     0.438098558773     1.007825032230
         H            9.541406811874     1.174587016435     0.438736829106     1.007825032230
         C           -7.369842072500    -2.779530617943     0.443926538948    12.000000000000
         C           -4.924603271782    -2.808422729350     0.436194906512    12.000000000000
         C           -6.166626658399    -3.516637664835     0.442496746671    12.000000000000
         C           -3.702514522437    -3.524667021130     0.446518975698    12.000000000000
         C           -2.467651147846    -2.821311434813     0.434474337341    12.000000000000
         C           -0.015137636839    -2.833127117409     0.434755925850    12.000000000000
         C           -1.247126003958    -3.534717647572     0.446319879259    12.000000000000
         C            1.209240906912    -3.547900150653     0.448858909050    12.000000000000
         C            2.437331859423    -2.847627210185     0.434719150739    12.000000000000
         C            4.894298181039    -2.861108440295     0.435539890810    12.000000000000
         C            3.664611092309    -3.564205317541     0.448419310751    12.000000000000
         C            6.128634852014    -3.582569529727     0.441765152708    12.000000000000
         C            7.339668501964    -2.858398779380     0.443280378790    12.000000000000
         H           -9.541453273991    -1.174548938674     0.443061026493     1.007825032230
         H            9.528257705340    -1.276904545914     0.442775049390     1.007825032230
         H           -8.315169206580    -3.318135325222     0.448098767479     1.007825032230
         H            8.279150979760    -3.407126261903     0.447619934773     1.007825032230
         C           -6.144998351434    -4.927632744793     0.443822744731    12.000000000000
         C           -3.706787510729    -4.941247186127     0.434001776643    12.000000000000
         C           -4.955594220733    -5.643479445504     0.441968911288    12.000000000000
         C           -2.486125488958    -5.654771046419     0.446941447688    12.000000000000
         C           -1.254062498212    -4.956107522011     0.435765841702    12.000000000000
         C            1.201008411136    -4.969265860202     0.436946965960    12.000000000000
         C           -0.030340837145    -5.669505775148     0.444790165624    12.000000000000
         C            3.653745938597    -4.980729247424     0.437704965708    12.000000000000
         C            2.425488533144    -5.681160107537     0.447081896260    12.000000000000
         C            6.091961455079    -4.993243435396     0.444059379382    12.000000000000
         C            4.894972281879    -5.696333892967     0.442823183552    12.000000000000
         H           -7.089896550772    -5.466985314248     0.448225506413     1.007825032230
         H            7.031051046468    -5.542644008342     0.447639159145     1.007825032230
         C           -4.923549484930    -7.078806571687     0.441414142383    12.000000000000
         C           -2.485346250970    -7.087713549939     0.438904249947    12.000000000000
         C           -3.751690054511    -7.763932629646     0.439098928873    12.000000000000
         C           -0.037953119720    -7.099450346479     0.439119975095    12.000000000000
         C           -1.277960263133    -7.772889856676     0.437135282333    12.000000000000
         C            2.409440157995    -7.114007484012     0.439983175906    12.000000000000
         C            1.194745774421    -7.786170837572     0.437830885024    12.000000000000
         C            4.847616889766    -7.131247582589     0.442489990566    12.000000000000
         C            3.668467443144    -7.803773464953     0.440141556202    12.000000000000
         H           -5.869944513148    -7.613816070051     0.442958179249     1.007825032230
         H            5.788245462656    -7.676317661324     0.443617110047     1.007825032230
         H           -3.753531102181    -8.851057041246     0.437263014444     1.007825032230
         H           -1.284308568626    -8.860860864507     0.432707898475     1.007825032230
         H            1.189217411964    -8.874146092599     0.433738248334     1.007825032230
         H            3.658542452092    -8.890846106063     0.438487014779     1.007825032230

  Running in c1 symmetry.

  Rotational constants: A =      0.00062  B =      0.00062  C =      0.00035 [cm^-1]
  Rotational constants: A =     18.50148  B =     18.49858  C =     10.55117 [MHz]
  Nuclear repulsion = 17275.661350705006043

  Charge       = -1
  Multiplicity = 1
  Electrons    = 642
  Nalpha       = 321
  Nbeta        = 321

  ==> Algorithm <==

  SCF Algorithm Type is DF.
  DIIS enabled.
  MOM disabled.
  Fractional occupation disabled.
  Guess Type is SAD.
  Energy threshold   = 1.00e-08
  Density threshold  = 1.00e-08
  Integral threshold = 1.00e-12

  ==> Primary Basis <==

  Basis Set: JUN-CC-PVDZ
    Blend: JUN-CC-PVDZ
    Number of shells: 880
    Number of basis functions: 1938
    Number of Cartesian functions: 2039
    Spherical Harmonics?: true
    Max angular momentum: 2

   => Loading Basis Set <=

    Name: (JUN-CC-PVDZ AUX)
    Role: JKFIT
    Keyword: DF_BASIS_SCF
    atoms 1                                                   entry B          line    90 file /opt/software/pc2/EB-SW/software/PSI4/1.9-foss-2022a/share/psi4/basis/jun-cc-pvdz-jkfit.gbs 
    atoms 2-5                                                 entry F          line   314 file /opt/software/pc2/EB-SW/software/PSI4/1.9-foss-2022a/share/psi4/basis/jun-cc-pvdz-jkfit.gbs 
    atoms 6-23, 30-42, 45-59, 62-78, 81-93, 98-108, 111-119   entry C          line   146 file /opt/software/pc2/EB-SW/software/PSI4/1.9-foss-2022a/share/psi4/basis/jun-cc-pvdz-jkfit.gbs 
    atoms 24-29, 43-44, 60-61, 79-80, 94-97, 109-110, 120-125 entry H          line    70 file /opt/software/pc2/EB-SW/software/PSI4/1.9-foss-2022a/share/psi4/basis/jun-cc-pvdz-jkfit.gbs 

  ==> Integral Setup <==

  ==> DiskDFJK: Density-Fitted J/K Matrices <==

    J tasked:                  Yes
    K tasked:                  Yes
    wK tasked:                  No
    OpenMP threads:             16
    Integrals threads:          16
    Memory [MiB]:            45776
    Algorithm:                Disk
    Integral Cache:           SAVE
    Schwarz Cutoff:          1E-12
    Fitting Condition:       1E-10

   => Auxiliary Basis Set <=

  Basis Set: (JUN-CC-PVDZ AUX)
    Blend: JUN-CC-PVDZ-JKFIT
    Number of shells: 2943
    Number of basis functions: 8531
    Number of Cartesian functions: 9791
    Spherical Harmonics?: true
    Max angular momentum: 3

  Minimum eigenvalue in the overlap matrix is 9.0377742885E-11.
  Reciprocal condition number of the overlap matrix is 3.9560499243E-12.
    Using canonical orthogonalization.
  Overall, 38 of 1938 possible MOs eliminated.


  ==> Pre-Iterations <==

  SCF Guess: Superposition of Atomic Densities via on-the-fly atomic UHF (no occupation information).

   -------------------------
    Irrep   Nso     Nmo    
   -------------------------
     A       1938    1900 
   -------------------------
    Total    1938    1900
   -------------------------

  ==> Iterations <==

                           Total Energy        Delta E     RMS |[F,P]|

   @DF-RHF iter SAD: -4085.00025298153241   -4.08500e+03   0.00000e+00 
   @DF-RHF iter   1: -4071.52171655227721    1.34785e+01   7.88876e-04 ADIIS/DIIS
   @DF-RHF iter   2: -4072.91646383386433   -1.39475e+00   3.07940e-04 ADIIS/DIIS
   @DF-RHF iter   3: -4073.07926304775037   -1.62799e-01   1.01738e-04 ADIIS/DIIS
   @DF-RHF iter   4: -4073.10089846649271   -2.16354e-02   3.66971e-05 DIIS
   @DF-RHF iter   5: -4073.10409015967116   -3.19169e-03   1.05555e-05 DIIS
   @DF-RHF iter   6: -4073.10450838822999   -4.18229e-04   4.15334e-06 DIIS
   @DF-RHF iter   7: -4073.10468478571192   -1.76397e-04   2.05930e-06 DIIS
   @DF-RHF iter   8: -4073.10473646012906   -5.16744e-05   1.11441e-06 DIIS
   @DF-RHF iter   9: -4073.10475062042860   -1.41603e-05   3.09445e-07 DIIS
   @DF-RHF iter  10: -4073.10475146481394   -8.44385e-07   1.52939e-07 DIIS
   @DF-RHF iter  11: -4073.10475159386988   -1.29056e-07   5.98937e-08 DIIS
   @DF-RHF iter  12: -4073.10475162506054   -3.11907e-08   3.08922e-08 DIIS
   @DF-RHF iter  13: -4073.10475163124647   -6.18593e-09   1.05987e-08 DIIS
   @DF-RHF iter  14: -4073.10475163194997   -7.03494e-10   4.49617e-09 DIIS
  Energy and wave function converged.


  ==> Post-Iterations <==

    Orbital Energies [Eh]
    ---------------------

    Doubly Occupied:                                                      

       1A    -26.067427     2A    -26.066276     3A    -26.066182  
       4A    -26.066097     5A    -11.208306     6A    -11.208301  
       7A    -11.208298     8A    -11.208294     9A    -11.208291  
      10A    -11.208289    11A    -11.208284    12A    -11.208281  
      13A    -11.208277    14A    -11.208275    15A    -11.208273  
      16A    -11.208265    17A    -11.208008    18A    -11.207997  
      19A    -11.207990    20A    -11.207986    21A    -11.207982  
      22A    -11.207973    23A    -11.206450    24A    -11.206434  
      25A    -11.206429    26A    -11.206379    27A    -11.206377  
      28A    -11.206325    29A    -11.206252    30A    -11.206189  
      31A    -11.206188    32A    -11.206114    33A    -11.206110  
      34A    -11.206080    35A    -11.205260    36A    -11.205230  
      37A    -11.205220    38A    -11.205161    39A    -11.205153  
      40A    -11.205122    41A    -11.204983    42A    -11.204931  
      43A    -11.204924    44A    -11.204775    45A    -11.204769  
      46A    -11.204581    47A    -11.204485    48A    -11.204285  
      49A    -11.204267    50A    -11.204256    51A    -11.204233  
      52A    -11.204231    53A    -11.204166    54A    -11.204164  
      55A    -11.204124    56A    -11.204080    57A    -11.204023  
      58A    -11.204022    59A    -11.203974    60A    -11.203902  
      61A    -11.203899    62A    -11.203869    63A    -11.203863  
      64A    -11.203851    65A    -11.203684    66A    -11.203681  
      67A    -11.203675    68A    -11.203674    69A    -11.203673  
      70A    -11.203671    71A    -11.203669    72A    -11.203548  
      73A    -11.203526    74A    -11.203096    75A    -11.203092  
      76A    -11.202983    77A    -11.202894    78A    -11.202710  
      79A    -11.202707    80A    -11.202225    81A    -11.202222  
      82A    -11.202216    83A    -11.202214    84A    -11.202212  
      85A    -11.202211    86A    -11.202045    87A    -11.202014  
      88A    -11.201572    89A    -11.200590    90A    -11.200589  
      91A    -11.200582    92A    -11.200522    93A    -11.200517  
      94A    -11.200517    95A    -11.200498    96A    -11.200497  
      97A    -11.200491    98A    -11.200430    99A    -11.200426  
     100A    -11.200426   101A     -7.538765   102A     -1.410425  
     103A     -1.351294   104A     -1.350404   105A     -1.350240  
     106A     -1.196250   107A     -1.182879   108A     -1.182876  
     109A     -1.165286   110A     -1.165280   111A     -1.158812  
     112A     -1.146697   113A     -1.140792   114A     -1.131966  
     115A     -1.131962   116A     -1.119640   117A     -1.119637  
     118A     -1.099859   119A     -1.099858   120A     -1.096740  
     121A     -1.090850   122A     -1.090847   123A     -1.073625  
     124A     -1.059329   125A     -1.059075   126A     -1.057984  
     127A     -1.056753   128A     -1.056738   129A     -1.033639  
     130A     -1.033625   131A     -1.023264   132A     -1.023262  
     133A     -1.012341   134A     -1.012311   135A     -1.009276  
     136A     -0.992326   137A     -0.992318   138A     -0.985980  
     139A     -0.985031   140A     -0.985031   141A     -0.969622  
     142A     -0.964766   143A     -0.964716   144A     -0.953113  
     145A     -0.951699   146A     -0.949192   147A     -0.945322  
     148A     -0.945275   149A     -0.937725   150A     -0.916028  
     151A     -0.915982   152A     -0.901832   153A     -0.901777  
     154A     -0.852382   155A     -0.852341   156A     -0.849603  
     157A     -0.849560   158A     -0.847813   159A     -0.836201  
     160A     -0.836141   161A     -0.834652   162A     -0.834594  
     163A     -0.834279   164A     -0.818548   165A     -0.816565  
     166A     -0.797768   167A     -0.792580   168A     -0.792559  
     169A     -0.789963   170A     -0.788004   171A     -0.780285  
     172A     -0.780273   173A     -0.774873   174A     -0.774870  
     175A     -0.731336   176A     -0.731321   177A     -0.728113  
     178A     -0.728092   179A     -0.727730   180A     -0.727710  
     181A     -0.726747   182A     -0.712520   183A     -0.705125  
     184A     -0.695499   185A     -0.680221   186A     -0.672663  
     187A     -0.672649   188A     -0.670541   189A     -0.670104  
     190A     -0.670084   191A     -0.662954   192A     -0.658675  
     193A     -0.658671   194A     -0.645795   195A     -0.645783  
     196A     -0.632218   197A     -0.632215   198A     -0.630910  
     199A     -0.628044   200A     -0.628034   201A     -0.624522  
     202A     -0.601731   203A     -0.600013   204A     -0.596959  
     205A     -0.596929   206A     -0.595914   207A     -0.594736  
     208A     -0.594721   209A     -0.586158   210A     -0.586106  
     211A     -0.586078   212A     -0.585391   213A     -0.581447  
     214A     -0.581419   215A     -0.574846   216A     -0.561894  
     217A     -0.561867   218A     -0.559103   219A     -0.554967  
     220A     -0.554961   221A     -0.544549   222A     -0.543714  
     223A     -0.543703   224A     -0.543469   225A     -0.542579  
     226A     -0.542558   227A     -0.541473   228A     -0.541461  
     229A     -0.540868   230A     -0.538110   231A     -0.537370  
     232A     -0.537367   233A     -0.531790   234A     -0.528156  
     235A     -0.527787   236A     -0.527703   237A     -0.525134  
     238A     -0.525123   239A     -0.520373   240A     -0.520370  
     241A     -0.519574   242A     -0.513754   243A     -0.513742  
     244A     -0.512292   245A     -0.512086   246A     -0.512002  
     247A     -0.508245   248A     -0.505402   249A     -0.504065  
     250A     -0.504046   251A     -0.499836   252A     -0.496290  
     253A     -0.495214   254A     -0.489455   255A     -0.479788  
     256A     -0.479780   257A     -0.478248   258A     -0.478223  
     259A     -0.474277   260A     -0.474259   261A     -0.472399  
     262A     -0.462798   263A     -0.462766   264A     -0.461385  
     265A     -0.461379   266A     -0.456220   267A     -0.456202  
     268A     -0.446766   269A     -0.446725   270A     -0.443753  
     271A     -0.441927   272A     -0.441900   273A     -0.437709  
     274A     -0.437700   275A     -0.432859   276A     -0.428023  
     277A     -0.423787   278A     -0.423784   279A     -0.420071  
     280A     -0.414190   281A     -0.411928   282A     -0.411922  
     283A     -0.408093   284A     -0.407869   285A     -0.407784  
     286A     -0.403770   287A     -0.390581   288A     -0.390519  
     289A     -0.385143   290A     -0.384632   291A     -0.384584  
     292A     -0.384501   293A     -0.384473   294A     -0.384088  
     295A     -0.381400   296A     -0.380352   297A     -0.352436  
     298A     -0.352410   299A     -0.332441   300A     -0.332438  
     301A     -0.330626   302A     -0.330578   303A     -0.327535  
     304A     -0.299671   305A     -0.299655   306A     -0.295887  
     307A     -0.280616   308A     -0.279434   309A     -0.279429  
     310A     -0.277507   311A     -0.277419   312A     -0.251102  
     313A     -0.246555   314A     -0.245899   315A     -0.245833  
     316A     -0.231837   317A     -0.203976   318A     -0.197590  
     319A     -0.197529   320A     -0.149726   321A     -0.149636  

    Virtual:                                                              

     322A      0.042856   323A      0.042936   324A      0.088564  
     325A      0.088805   326A      0.088809   327A      0.090822  
     328A      0.090884   329A      0.091271   330A      0.091292  
     331A      0.091728   332A      0.096650   333A      0.099233  
     334A      0.104694   335A      0.104704   336A      0.115988  
     337A      0.115992   338A      0.120234   339A      0.121307  
     340A      0.125097   341A      0.125645   342A      0.125715  
     343A      0.128152   344A      0.128505   345A      0.129243  
     346A      0.130314   347A      0.130770   348A      0.130860  
     349A      0.131456   350A      0.135894   351A      0.135917  
     352A      0.137338   353A      0.141101   354A      0.141115  
     355A      0.141690   356A      0.143470   357A      0.143528  
     358A      0.148742   359A      0.152772   360A      0.152804  
     361A      0.153821   362A      0.156316   363A      0.156998  
     364A      0.157832   365A      0.157904   366A      0.159379  
     367A      0.159472   368A      0.162259   369A      0.163674  
     370A      0.164643   371A      0.164689   372A      0.165110  
     373A      0.165290   374A      0.170921   375A      0.171892  
     376A      0.171941   377A      0.174152   378A      0.174334  
     379A      0.175373   380A      0.178896   381A      0.178928  
     382A      0.183709   383A      0.186345   384A      0.186495  
     385A      0.190918   386A      0.191388   387A      0.191458  
     388A      0.191977   389A      0.192078   390A      0.193756  
     391A      0.197321   392A      0.197380   393A      0.202016  
     394A      0.206003   395A      0.206108   396A      0.206999  
     397A      0.207932   398A      0.208038   399A      0.208494  
     400A      0.208579   401A      0.209904   402A      0.210316  
     403A      0.213434   404A      0.213596   405A      0.215827  
     406A      0.215967   407A      0.216799   408A      0.217006  
     409A      0.217439   410A      0.219234   411A      0.219396  
     412A      0.219828   413A      0.225276   414A      0.226314  
     415A      0.228896   416A      0.228907   417A      0.234250  
     418A      0.234306   419A      0.236528   420A      0.236636  
     421A      0.236690   422A      0.238946   423A      0.242487  
     424A      0.243110   425A      0.244842   426A      0.244917  
     427A      0.245599   428A      0.246173   429A      0.250061  
     430A      0.250459   431A      0.250799   432A      0.251278  
     433A      0.251591   434A      0.251780   435A      0.252510  
     436A      0.252757   437A      0.255621   438A      0.261225  
     439A      0.261304   440A      0.261334   441A      0.262120  
     442A      0.262217   443A      0.263768   444A      0.263959  
     445A      0.265459   446A      0.265931   447A      0.265976  
     448A      0.266195   449A      0.267188   450A      0.267327  
     451A      0.268863   452A      0.268902   453A      0.270143  
     454A      0.270174   455A      0.274775   456A      0.274918  
     457A      0.276264   458A      0.276890   459A      0.277752  
     460A      0.281440   461A      0.283497   462A      0.284248  
     463A      0.284308   464A      0.285186   465A      0.285442  
     466A      0.287254   467A      0.287346   468A      0.287391  
     469A      0.289849   470A      0.289944   471A      0.294637  
     472A      0.295451   473A      0.297798   474A      0.301208  
     475A      0.303984   476A      0.304123   477A      0.304958  
     478A      0.306552   479A      0.307927   480A      0.308204  
     481A      0.308515   482A      0.308752   483A      0.309737  
     484A      0.310002   485A      0.311287   486A      0.311638  
     487A      0.312330   488A      0.312347   489A      0.316700  
     490A      0.316776   491A      0.318338   492A      0.318690  
     493A      0.318777   494A      0.321801   495A      0.321852  
     496A      0.328801   497A      0.329198   498A      0.329247  
     499A      0.331217   500A      0.331336   501A      0.333537  
     502A      0.335039   503A      0.335178   504A      0.336240  
     505A      0.336742   506A      0.338421   507A      0.338503  
     508A      0.340123   509A      0.340372   510A      0.345067  
     511A      0.345809   512A      0.347111   513A      0.349125  
     514A      0.350133   515A      0.350192   516A      0.353602  
     517A      0.353985   518A      0.354630   519A      0.355831  
     520A      0.355883   521A      0.356862   522A      0.356926  
     523A      0.358847   524A      0.358989   525A      0.359490  
     526A      0.360865   527A      0.362224   528A      0.362278  
     529A      0.364751   530A      0.364817   531A      0.366218  
     532A      0.366303   533A      0.366619   534A      0.368382  
     535A      0.371318   536A      0.371336   537A      0.371615  
     538A      0.375521   539A      0.375785   540A      0.377654  
     541A      0.377774   542A      0.379575   543A      0.379812  
     544A      0.379890   545A      0.379932   546A      0.380528  
     547A      0.381344   548A      0.381778   549A      0.382912  
     550A      0.382998   551A      0.387602   552A      0.389255  
     553A      0.389631   554A      0.389748   555A      0.391191  
     556A      0.392820   557A      0.392839   558A      0.394636  
     559A      0.396201   560A      0.396279   561A      0.397736  
     562A      0.398886   563A      0.404429   564A      0.404677  
     565A      0.405051   566A      0.405240   567A      0.406363  
     568A      0.406964   569A      0.408144   570A      0.410306  
     571A      0.411176   572A      0.411780   573A      0.412655  
     574A      0.412940   575A      0.413395   576A      0.414476  
     577A      0.414637   578A      0.415348   579A      0.417468  
     580A      0.419064   581A      0.419088   582A      0.422285  
     583A      0.423717   584A      0.423778   585A      0.429080  
     586A      0.429123   587A      0.430806   588A      0.432357  
     589A      0.432579   590A      0.433628   591A      0.433637  
     592A      0.438734   593A      0.439231   594A      0.439308  
     595A      0.439632   596A      0.439692   597A      0.444063  
     598A      0.444206   599A      0.444374   600A      0.446187  
     601A      0.446271   602A      0.447330   603A      0.448277  
     604A      0.448311   605A      0.449792   606A      0.451134  
     607A      0.451189   608A      0.451482   609A      0.452031  
     610A      0.452123   611A      0.453799   612A      0.454423  
     613A      0.455316   614A      0.455479   615A      0.455598  
     616A      0.459119   617A      0.459477   618A      0.459502  
     619A      0.459887   620A      0.459971   621A      0.460935  
     622A      0.463330   623A      0.463357   624A      0.463388  
     625A      0.464499   626A      0.464599   627A      0.466626  
     628A      0.467085   629A      0.467204   630A      0.468911  
     631A      0.469025   632A      0.471022   633A      0.471600  
     634A      0.472262   635A      0.472379   636A      0.473766  
     637A      0.474046   638A      0.474123   639A      0.477771  
     640A      0.478386   641A      0.478621   642A      0.478720  
     643A      0.478784   644A      0.480754   645A      0.482230  
     646A      0.482354   647A      0.483929   648A      0.486316  
     649A      0.486953   650A      0.487046   651A      0.488187  
     652A      0.488201   653A      0.489202   654A      0.490106  
     655A      0.490351   656A      0.491510   657A      0.493248  
     658A      0.493577   659A      0.494623   660A      0.494802  
     661A      0.497881   662A      0.498493   663A      0.499079  
     664A      0.500939   665A      0.500952   666A      0.502423  
     667A      0.503001   668A      0.504856   669A      0.506249  
     670A      0.506509   671A      0.507362   672A      0.508453  
     673A      0.508625   674A      0.508820   675A      0.511929  
     676A      0.515185   677A      0.515681   678A      0.515746  
     679A      0.515933   680A      0.517905   681A      0.518821  
     682A      0.520084   683A      0.520306   684A      0.521004  
     685A      0.521167   686A      0.526900   687A      0.527183  
     688A      0.528121   689A      0.528243   690A      0.529653  
     691A      0.529767   692A      0.530721   693A      0.530835  
     694A      0.534732   695A      0.535334   696A      0.535771  
     697A      0.536716   698A      0.536752   699A      0.537048  
     700A      0.538490   701A      0.538748   702A      0.539903  
     703A      0.542164   704A      0.542522   705A      0.543647  
     706A      0.544051   707A      0.544438   708A      0.545216  
     709A      0.547303   710A      0.547570   711A      0.548450  
     712A      0.550230   713A      0.550321   714A      0.551035  
     715A      0.551495   716A      0.553889   717A      0.555759  
     718A      0.555865   719A      0.556811   720A      0.558906  
     721A      0.560882   722A      0.562686   723A      0.562962  
     724A      0.563721   725A      0.564092   726A      0.566526  
     727A      0.567957   728A      0.570353   729A      0.570443  
     730A      0.571708   731A      0.571801   732A      0.572825  
     733A      0.572958   734A      0.574841   735A      0.576737  
     736A      0.578313   737A      0.579569   738A      0.579722  
     739A      0.580832   740A      0.586615   741A      0.587654  
     742A      0.587779   743A      0.588573   744A      0.589489  
     745A      0.591367   746A      0.591470   747A      0.592170  
     748A      0.592375   749A      0.603057   750A      0.603642  
     751A      0.604867   752A      0.605229   753A      0.613324  
     754A      0.613413   755A      0.617447   756A      0.618521  
     757A      0.618711   758A      0.619821   759A      0.620360  
     760A      0.621095   761A      0.621598   762A      0.622221  
     763A      0.627883   764A      0.628153   765A      0.629050  
     766A      0.634275   767A      0.634778   768A      0.635865  
     769A      0.638019   770A      0.640280   771A      0.640659  
     772A      0.641396   773A      0.642015   774A      0.642713  
     775A      0.643098   776A      0.643245   777A      0.643732  
     778A      0.649019   779A      0.649267   780A      0.651169  
     781A      0.654189   782A      0.655823   783A      0.659656  
     784A      0.660107   785A      0.660529   786A      0.662035  
     787A      0.662505   788A      0.663447   789A      0.664502  
     790A      0.672489   791A      0.673909   792A      0.675384  
     793A      0.675645   794A      0.675715   795A      0.677090  
     796A      0.681927   797A      0.683028   798A      0.686899  
     799A      0.687800   800A      0.690653   801A      0.692193  
     802A      0.693552   803A      0.698564   804A      0.699723  
     805A      0.701332   806A      0.705278   807A      0.708398  
     808A      0.708606   809A      0.713324   810A      0.713733  
     811A      0.715486   812A      0.715907   813A      0.715941  
     814A      0.721254   815A      0.721558   816A      0.723073  
     817A      0.728109   818A      0.728463   819A      0.732334  
     820A      0.733718   821A      0.740987   822A      0.742049  
     823A      0.744314   824A      0.744753   825A      0.744855  
     826A      0.745329   827A      0.747217   828A      0.748836  
     829A      0.749124   830A      0.750913   831A      0.751059  
     832A      0.759872   833A      0.760556   834A      0.760692  
     835A      0.767128   836A      0.767492   837A      0.769083  
     838A      0.769426   839A      0.777608   840A      0.778147  
     841A      0.783981   842A      0.784784   843A      0.787734  
     844A      0.789017   845A      0.793913   846A      0.796560  
     847A      0.796967   848A      0.800226   849A      0.803707  
     850A      0.804002   851A      0.807284   852A      0.807382  
     853A      0.809498   854A      0.827146   855A      0.829733  
     856A      0.838067   857A      0.839508   858A      0.842908  
     859A      0.843023   860A      0.846900   861A      0.848525  
     862A      0.850703   863A      0.854217   864A      0.855327  
     865A      0.856742   866A      0.858979   867A      0.860107  
     868A      0.862004   869A      0.863288   870A      0.867769  
     871A      0.868356   872A      0.869270   873A      0.869900  
     874A      0.871252   875A      0.871704   876A      0.880366  
     877A      0.881659   878A      0.882089   879A      0.888731  
     880A      0.889519   881A      0.890500   882A      0.890950  
     883A      0.892371   884A      0.893013   885A      0.893598  
     886A      0.898218   887A      0.898787   888A      0.899221  
     889A      0.902772   890A      0.906312   891A      0.909307  
     892A      0.911015   893A      0.911264   894A      0.913640  
     895A      0.914176   896A      0.914648   897A      0.916090  
     898A      0.917406   899A      0.920451   900A      0.921088  
     901A      0.924045   902A      0.925275   903A      0.926119  
     904A      0.926496   905A      0.928594   906A      0.928824  
     907A      0.929239   908A      0.931121   909A      0.931558  
     910A      0.935818   911A      0.936608   912A      0.938425  
     913A      0.941306   914A      0.944192   915A      0.946840  
     916A      0.947167   917A      0.948435   918A      0.950017  
     919A      0.950676   920A      0.951413   921A      0.952095  
     922A      0.954627   923A      0.958291   924A      0.959123  
     925A      0.960625   926A      0.962670   927A      0.963288  
     928A      0.964897   929A      0.967122   930A      0.972747  
     931A      0.974231   932A      0.974337   933A      0.974554  
     934A      0.974933   935A      0.975246   936A      0.979668  
     937A      0.980070   938A      0.984967   939A      0.985778  
     940A      0.986333   941A      0.986758   942A      0.987234  
     943A      0.988133   944A      0.988693   945A      0.991797  
     946A      0.998129   947A      0.998836   948A      1.002114  
     949A      1.002922   950A      1.003374   951A      1.004059  
     952A      1.004732   953A      1.004926   954A      1.005710  
     955A      1.007222   956A      1.007512   957A      1.009370  
     958A      1.009804   959A      1.009994   960A      1.010164  
     961A      1.012509   962A      1.018037   963A      1.018300  
     964A      1.021341   965A      1.021847   966A      1.026006  
     967A      1.029283   968A      1.035896   969A      1.037148  
     970A      1.037436   971A      1.038451   972A      1.046421  
     973A      1.047098   974A      1.047735   975A      1.048011  
     976A      1.053027   977A      1.056889   978A      1.057014  
     979A      1.058657   980A      1.059084   981A      1.059491  
     982A      1.059707   983A      1.060169   984A      1.067557  
     985A      1.067975   986A      1.070354   987A      1.072367  
     988A      1.072482   989A      1.074589   990A      1.074871  
     991A      1.076468   992A      1.083018   993A      1.084618  
     994A      1.085158   995A      1.085612   996A      1.090074  
     997A      1.090378   998A      1.090848   999A      1.098840  
    1000A      1.099251  1001A      1.099412  1002A      1.100793  
    1003A      1.101481  1004A      1.102112  1005A      1.103061  
    1006A      1.104179  1007A      1.104352  1008A      1.104892  
    1009A      1.107460  1010A      1.107835  1011A      1.112026  
    1012A      1.112093  1013A      1.115014  1014A      1.115460  
    1015A      1.115756  1016A      1.117668  1017A      1.119286  
    1018A      1.123173  1019A      1.123415  1020A      1.123587  
    1021A      1.124131  1022A      1.125110  1023A      1.125534  
    1024A      1.126063  1025A      1.127930  1026A      1.128232  
    1027A      1.128373  1028A      1.129129  1029A      1.129408  
    1030A      1.129657  1031A      1.130112  1032A      1.130676  
    1033A      1.132132  1034A      1.132479  1035A      1.133410  
    1036A      1.135162  1037A      1.135566  1038A      1.136101  
    1039A      1.136412  1040A      1.136875  1041A      1.137812  
    1042A      1.138425  1043A      1.138763  1044A      1.139244  
    1045A      1.139755  1046A      1.139791  1047A      1.141357  
    1048A      1.141463  1049A      1.143044  1050A      1.143204  
    1051A      1.144499  1052A      1.151275  1053A      1.151865  
    1054A      1.153386  1055A      1.154215  1056A      1.155025  
    1057A      1.155229  1058A      1.156982  1059A      1.157226  
    1060A      1.158862  1061A      1.163667  1062A      1.165389  
    1063A      1.165971  1064A      1.166853  1065A      1.169726  
    1066A      1.170784  1067A      1.177940  1068A      1.178902  
    1069A      1.179369  1070A      1.182784  1071A      1.185618  
    1072A      1.186523  1073A      1.186741  1074A      1.187796  
    1075A      1.188739  1076A      1.191360  1077A      1.192342  
    1078A      1.193944  1079A      1.194005  1080A      1.197040  
    1081A      1.198249  1082A      1.201354  1083A      1.203858  
    1084A      1.205090  1085A      1.206281  1086A      1.206523  
    1087A      1.207207  1088A      1.208315  1089A      1.210332  
    1090A      1.212060  1091A      1.212171  1092A      1.217575  
    1093A      1.221405  1094A      1.222329  1095A      1.224316  
    1096A      1.226174  1097A      1.226927  1098A      1.232912  
    1099A      1.233240  1100A      1.237663  1101A      1.240044  
    1102A      1.242273  1103A      1.242887  1104A      1.244237  
    1105A      1.245109  1106A      1.248862  1107A      1.249653  
    1108A      1.257986  1109A      1.258167  1110A      1.258985  
    1111A      1.259315  1112A      1.260350  1113A      1.265461  
    1114A      1.266431  1115A      1.267465  1116A      1.268489  
    1117A      1.268796  1118A      1.272258  1119A      1.272687  
    1120A      1.273576  1121A      1.273775  1122A      1.277264  
    1123A      1.280092  1124A      1.288375  1125A      1.289290  
    1126A      1.300702  1127A      1.305691  1128A      1.305878  
    1129A      1.306192  1130A      1.306976  1131A      1.307063  
    1132A      1.313277  1133A      1.315792  1134A      1.316016  
    1135A      1.319245  1136A      1.321643  1137A      1.322194  
    1138A      1.323988  1139A      1.324067  1140A      1.333876  
    1141A      1.336205  1142A      1.336286  1143A      1.342016  
    1144A      1.344886  1145A      1.345394  1146A      1.347410  
    1147A      1.347537  1148A      1.348060  1149A      1.348365  
    1150A      1.351441  1151A      1.351811  1152A      1.355338  
    1153A      1.357408  1154A      1.357979  1155A      1.358262  
    1156A      1.365916  1157A      1.366331  1158A      1.367939  
    1159A      1.368302  1160A      1.371334  1161A      1.371608  
    1162A      1.373209  1163A      1.374707  1164A      1.375536  
    1165A      1.376292  1166A      1.380140  1167A      1.380237  
    1168A      1.383506  1169A      1.383522  1170A      1.387637  
    1171A      1.388490  1172A      1.388705  1173A      1.391882  
    1174A      1.395209  1175A      1.395412  1176A      1.402703  
    1177A      1.404179  1178A      1.404918  1179A      1.411002  
    1180A      1.411197  1181A      1.413533  1182A      1.413737  
    1183A      1.415027  1184A      1.417106  1185A      1.417275  
    1186A      1.422053  1187A      1.425998  1188A      1.427009  
    1189A      1.429417  1190A      1.429522  1191A      1.430824  
    1192A      1.442116  1193A      1.442267  1194A      1.442749  
    1195A      1.446480  1196A      1.446720  1197A      1.449332  
    1198A      1.449709  1199A      1.451372  1200A      1.459561  
    1201A      1.460943  1202A      1.462060  1203A      1.462139  
    1204A      1.463301  1205A      1.463419  1206A      1.464609  
    1207A      1.465212  1208A      1.469840  1209A      1.470650  
    1210A      1.475494  1211A      1.475703  1212A      1.477737  
    1213A      1.478079  1214A      1.482286  1215A      1.482498  
    1216A      1.483279  1217A      1.483531  1218A      1.487666  
    1219A      1.488221  1220A      1.489826  1221A      1.491035  
    1222A      1.491240  1223A      1.495749  1224A      1.495845  
    1225A      1.498278  1226A      1.505945  1227A      1.506182  
    1228A      1.506760  1229A      1.507347  1230A      1.507859  
    1231A      1.508104  1232A      1.508368  1233A      1.521790  
    1234A      1.523278  1235A      1.524834  1236A      1.525405  
    1237A      1.525793  1238A      1.527211  1239A      1.527916  
    1240A      1.535130  1241A      1.538420  1242A      1.538787  
    1243A      1.539448  1244A      1.547023  1245A      1.553260  
    1246A      1.553453  1247A      1.557327  1248A      1.558870  
    1249A      1.560998  1250A      1.561772  1251A      1.572317  
    1252A      1.573090  1253A      1.592585  1254A      1.592796  
    1255A      1.594725  1256A      1.599426  1257A      1.609440  
    1258A      1.609505  1259A      1.640337  1260A      1.641104  
    1261A      1.641247  1262A      1.643883  1263A      1.650963  
    1264A      1.655900  1265A      1.657763  1266A      1.661064  
    1267A      1.662662  1268A      1.662994  1269A      1.663565  
    1270A      1.664928  1271A      1.665725  1272A      1.666321  
    1273A      1.667134  1274A      1.670381  1275A      1.671553  
    1276A      1.672288  1277A      1.672430  1278A      1.675090  
    1279A      1.675675  1280A      1.675949  1281A      1.677842  
    1282A      1.679087  1283A      1.679786  1284A      1.682143  
    1285A      1.682289  1286A      1.684097  1287A      1.687251  
    1288A      1.688548  1289A      1.690746  1290A      1.691608  
    1291A      1.691983  1292A      1.692432  1293A      1.693654  
    1294A      1.694410  1295A      1.694986  1296A      1.696273  
    1297A      1.696593  1298A      1.696750  1299A      1.698790  
    1300A      1.702045  1301A      1.705622  1302A      1.705910  
    1303A      1.710228  1304A      1.710350  1305A      1.710613  
    1306A      1.710967  1307A      1.720309  1308A      1.720796  
    1309A      1.724469  1310A      1.724549  1311A      1.724830  
    1312A      1.725181  1313A      1.725467  1314A      1.728127  
    1315A      1.730136  1316A      1.731206  1317A      1.733900  
    1318A      1.734441  1319A      1.741988  1320A      1.743742  
    1321A      1.748210  1322A      1.749257  1323A      1.751818  
    1324A      1.751969  1325A      1.752747  1326A      1.754606  
    1327A      1.762714  1328A      1.762803  1329A      1.765216  
    1330A      1.769527  1331A      1.769586  1332A      1.770102  
    1333A      1.773327  1334A      1.775203  1335A      1.778388  
    1336A      1.778966  1337A      1.779786  1338A      1.779809  
    1339A      1.786061  1340A      1.792022  1341A      1.801869  
    1342A      1.802496  1343A      1.803116  1344A      1.803338  
    1345A      1.804258  1346A      1.818889  1347A      1.820599  
    1348A      1.822039  1349A      1.834709  1350A      1.837093  
    1351A      1.839013  1352A      1.839700  1353A      1.859874  
    1354A      1.860071  1355A      1.864063  1356A      1.872097  
    1357A      1.877462  1358A      1.879496  1359A      1.880607  
    1360A      1.880710  1361A      1.881170  1362A      1.882353  
    1363A      1.886629  1364A      1.886985  1365A      1.887473  
    1366A      1.892267  1367A      1.892768  1368A      1.892869  
    1369A      1.894051  1370A      1.901608  1371A      1.902736  
    1372A      1.908399  1373A      1.908484  1374A      1.914614  
    1375A      1.915027  1376A      1.918621  1377A      1.918779  
    1378A      1.920252  1379A      1.920557  1380A      1.924198  
    1381A      1.924640  1382A      1.925077  1383A      1.925336  
    1384A      1.927464  1385A      1.933710  1386A      1.934158  
    1387A      1.935053  1388A      1.937174  1389A      1.938327  
    1390A      1.938878  1391A      1.939941  1392A      1.941508  
    1393A      1.944801  1394A      1.946752  1395A      1.956463  
    1396A      1.956642  1397A      1.957865  1398A      1.958382  
    1399A      1.959447  1400A      1.961010  1401A      1.965112  
    1402A      1.965593  1403A      1.971377  1404A      1.972366  
    1405A      1.977087  1406A      1.978435  1407A      1.978780  
    1408A      1.980795  1409A      1.981587  1410A      1.981772  
    1411A      1.989334  1412A      1.989500  1413A      1.989641  
    1414A      1.991290  1415A      1.992633  1416A      1.993853  
    1417A      1.996215  1418A      1.998083  1419A      1.998344  
    1420A      1.999621  1421A      1.999759  1422A      2.005492  
    1423A      2.007934  1424A      2.009418  1425A      2.009837  
    1426A      2.010653  1427A      2.013778  1428A      2.014305  
    1429A      2.014849  1430A      2.015535  1431A      2.016381  
    1432A      2.020687  1433A      2.024093  1434A      2.024348  
    1435A      2.024876  1436A      2.026324  1437A      2.026905  
    1438A      2.028478  1439A      2.030205  1440A      2.037983  
    1441A      2.038581  1442A      2.041778  1443A      2.043299  
    1444A      2.043891  1445A      2.044177  1446A      2.048812  
    1447A      2.050084  1448A      2.050351  1449A      2.056676  
    1450A      2.058370  1451A      2.059215  1452A      2.064416  
    1453A      2.065936  1454A      2.067625  1455A      2.068105  
    1456A      2.070542  1457A      2.070779  1458A      2.074262  
    1459A      2.075310  1460A      2.075745  1461A      2.076467  
    1462A      2.077057  1463A      2.078726  1464A      2.080155  
    1465A      2.083963  1466A      2.085637  1467A      2.087551  
    1468A      2.088599  1469A      2.090266  1470A      2.091507  
    1471A      2.093008  1472A      2.094399  1473A      2.102668  
    1474A      2.104249  1475A      2.106970  1476A      2.108944  
    1477A      2.111030  1478A      2.111695  1479A      2.114630  
    1480A      2.115414  1481A      2.116475  1482A      2.116891  
    1483A      2.122192  1484A      2.122530  1485A      2.124465  
    1486A      2.124776  1487A      2.129678  1488A      2.132171  
    1489A      2.133324  1490A      2.133928  1491A      2.135413  
    1492A      2.135918  1493A      2.136671  1494A      2.137070  
    1495A      2.137902  1496A      2.138401  1497A      2.141578  
    1498A      2.142307  1499A      2.142853  1500A      2.142967  
    1501A      2.143249  1502A      2.143763  1503A      2.144445  
    1504A      2.145395  1505A      2.147725  1506A      2.148095  
    1507A      2.148852  1508A      2.152841  1509A      2.153173  
    1510A      2.154969  1511A      2.155369  1512A      2.156057  
    1513A      2.158950  1514A      2.160253  1515A      2.161953  
    1516A      2.165208  1517A      2.166670  1518A      2.167578  
    1519A      2.168620  1520A      2.169117  1521A      2.170041  
    1522A      2.171004  1523A      2.172030  1524A      2.172727  
    1525A      2.174803  1526A      2.180409  1527A      2.180796  
    1528A      2.181295  1529A      2.183302  1530A      2.183510  
    1531A      2.184041  1532A      2.187366  1533A      2.189804  
    1534A      2.191163  1535A      2.191402  1536A      2.194474  
    1537A      2.197085  1538A      2.197256  1539A      2.198211  
    1540A      2.198892  1541A      2.199146  1542A      2.209258  
    1543A      2.210335  1544A      2.213076  1545A      2.213402  
    1546A      2.214377  1547A      2.214603  1548A      2.215001  
    1549A      2.215264  1550A      2.215740  1551A      2.216693  
    1552A      2.225625  1553A      2.226333  1554A      2.231282  
    1555A      2.234409  1556A      2.235009  1557A      2.235935  
    1558A      2.236609  1559A      2.243608  1560A      2.244627  
    1561A      2.246467  1562A      2.248206  1563A      2.249036  
    1564A      2.251215  1565A      2.253626  1566A      2.254157  
    1567A      2.254931  1568A      2.256782  1569A      2.257325  
    1570A      2.258180  1571A      2.258621  1572A      2.258943  
    1573A      2.260321  1574A      2.265789  1575A      2.268317  
    1576A      2.268788  1577A      2.275094  1578A      2.275569  
    1579A      2.276084  1580A      2.277245  1581A      2.280587  
    1582A      2.280834  1583A      2.283242  1584A      2.283808  
    1585A      2.286002  1586A      2.286385  1587A      2.294796  
    1588A      2.295101  1589A      2.295788  1590A      2.297821  
    1591A      2.300419  1592A      2.300909  1593A      2.306073  
    1594A      2.307058  1595A      2.312460  1596A      2.313764  
    1597A      2.316985  1598A      2.317959  1599A      2.320203  
    1600A      2.321496  1601A      2.331028  1602A      2.336897  
    1603A      2.338518  1604A      2.343905  1605A      2.344212  
    1606A      2.349508  1607A      2.352496  1608A      2.357523  
    1609A      2.357901  1610A      2.363258  1611A      2.374538  
    1612A      2.379127  1613A      2.379499  1614A      2.380170  
    1615A      2.381905  1616A      2.383822  1617A      2.384355  
    1618A      2.386347  1619A      2.388734  1620A      2.389768  
    1621A      2.390436  1622A      2.394701  1623A      2.396498  
    1624A      2.396927  1625A      2.397334  1626A      2.399660  
    1627A      2.400217  1628A      2.400461  1629A      2.406093  
    1630A      2.406320  1631A      2.425575  1632A      2.429765  
    1633A      2.430286  1634A      2.437453  1635A      2.442427  
    1636A      2.446663  1637A      2.447350  1638A      2.449072  
    1639A      2.452854  1640A      2.472594  1641A      2.473985  
    1642A      2.478718  1643A      2.481816  1644A      2.488163  
    1645A      2.496216  1646A      2.498285  1647A      2.507673  
    1648A      2.508354  1649A      2.518405  1650A      2.518615  
    1651A      2.521881  1652A      2.522249  1653A      2.525798  
    1654A      2.526081  1655A      2.544223  1656A      2.544600  
    1657A      2.550339  1658A      2.555232  1659A      2.559427  
    1660A      2.560139  1661A      2.564343  1662A      2.569969  
    1663A      2.593884  1664A      2.594081  1665A      2.594254  
    1666A      2.596024  1667A      2.596764  1668A      2.600177  
    1669A      2.600573  1670A      2.602045  1671A      2.603865  
    1672A      2.605247  1673A      2.612749  1674A      2.612940  
    1675A      2.618865  1676A      2.624086  1677A      2.625308  
    1678A      2.632372  1679A      2.635696  1680A      2.636159  
    1681A      2.639045  1682A      2.640057  1683A      2.640560  
    1684A      2.640923  1685A      2.645152  1686A      2.647311  
    1687A      2.655052  1688A      2.655235  1689A      2.666721  
    1690A      2.666896  1691A      2.667224  1692A      2.667741  
    1693A      2.670804  1694A      2.671569  1695A      2.687164  
    1696A      2.695011  1697A      2.695770  1698A      2.698021  
    1699A      2.700096  1700A      2.701070  1701A      2.703456  
    1702A      2.704412  1703A      2.705558  1704A      2.709020  
    1705A      2.709412  1706A      2.720402  1707A      2.721258  
    1708A      2.722402  1709A      2.723189  1710A      2.723383  
    1711A      2.729593  1712A      2.730274  1713A      2.730370  
    1714A      2.738723  1715A      2.740580  1716A      2.741937  
    1717A      2.745407  1718A      2.745928  1719A      2.746330  
    1720A      2.746898  1721A      2.750734  1722A      2.751872  
    1723A      2.759328  1724A      2.774103  1725A      2.783771  
    1726A      2.784209  1727A      2.784797  1728A      2.785317  
    1729A      2.785401  1730A      2.807027  1731A      2.816961  
    1732A      2.817471  1733A      2.830099  1734A      2.832550  
    1735A      2.835547  1736A      2.835924  1737A      2.855176  
    1738A      2.855625  1739A      2.857816  1740A      2.857840  
    1741A      2.858339  1742A      2.865378  1743A      2.868163  
    1744A      2.870342  1745A      2.870834  1746A      2.871217  
    1747A      2.873423  1748A      2.884537  1749A      2.884757  
    1750A      2.895252  1751A      2.896142  1752A      2.896655  
    1753A      2.896953  1754A      2.900753  1755A      2.918631  
    1756A      2.920458  1757A      2.920887  1758A      2.924400  
    1759A      2.925404  1760A      2.929074  1761A      2.953315  
    1762A      2.954165  1763A      2.959505  1764A      2.960662  
    1765A      2.970001  1766A      2.970489  1767A      2.970601  
    1768A      2.980024  1769A      2.982494  1770A      2.986047  
    1771A      2.988527  1772A      2.988548  1773A      3.016999  
    1774A      3.018065  1775A      3.018539  1776A      3.029615  
    1777A      3.045667  1778A      3.046399  1779A      3.083728  
    1780A      3.084582  1781A      3.088485  1782A      3.091735  
    1783A      3.100851  1784A      3.101843  1785A      3.102439  
    1786A      3.112611  1787A      3.112689  1788A      3.114609  
    1789A      3.127356  1790A      3.161088  1791A      3.165858  
    1792A      3.166150  1793A      3.176698  1794A      3.181948  
    1795A      3.182452  1796A      3.186885  1797A      3.188551  
    1798A      3.195191  1799A      3.196068  1800A      3.202527  
    1801A      3.202753  1802A      3.203604  1803A      3.203981  
    1804A      3.206331  1805A      3.214593  1806A      3.224027  
    1807A      3.225908  1808A      3.227938  1809A      3.228185  
    1810A      3.246047  1811A      3.246731  1812A      3.272549  
    1813A      3.282101  1814A      3.306818  1815A      3.311932  
    1816A      3.315613  1817A      3.316457  1818A      3.316804  
    1819A      3.318678  1820A      3.322160  1821A      3.325307  
    1822A      3.328735  1823A      3.329344  1824A      3.347634  
    1825A      3.349661  1826A      3.351187  1827A      3.357324  
    1828A      3.417051  1829A      3.417877  1830A      3.425703  
    1831A      3.471812  1832A      3.485454  1833A      3.488854  
    1834A      3.496866  1835A      3.503713  1836A      3.507179  
    1837A      3.518404  1838A      3.520379  1839A      3.522479  
    1840A      3.527087  1841A      3.530127  1842A      3.537954  
    1843A      3.541966  1844A      3.550412  1845A      3.565163  
    1846A      3.596815  1847A      3.630027  1848A      3.631798  
    1849A      3.638560  1850A      3.644609  1851A      3.692698  
    1852A      3.695772  1853A      3.719832  1854A      3.721835  
    1855A      3.760686  1856A      3.803348  1857A      3.804193  
    1858A      3.805957  1859A      3.820050  1860A      3.832608  
    1861A      3.836879  1862A      3.896033  1863A      3.897990  
    1864A      3.925970  1865A      3.929194  1866A      3.959647  
    1867A      3.968246  1868A      3.995175  1869A      3.998202  
    1870A      4.003082  1871A      4.004024  1872A      4.014445  
    1873A      4.022493  1874A      4.027775  1875A      4.081082  
    1876A      4.084096  1877A      4.128334  1878A      4.173333  
    1879A      4.173561  1880A      4.173622  1881A      4.201108  
    1882A      4.201149  1883A      4.201723  1884A      4.202506  
    1885A      4.202619  1886A      4.234484  1887A      4.234551  
    1888A      4.244562  1889A      4.288520  1890A      4.361399  
    1891A      4.448336  1892A      4.448658  1893A      4.449207  
    1894A      4.452983  1895A      4.649463  1896A      4.651851  
    1897A      4.651961  1898A      4.750545  1899A      4.786058  
    1900A      4.786487  

    Final Occupation by Irrep:
              A 
    DOCC [   321 ]
    NA   [   321 ]
    NB   [   321 ]

  @DF-RHF Final Energy: -4073.10475163194997

   => Energetics <=

    Nuclear Repulsion Energy =          17275.6613507050060434
    One-Electron Energy =              -40033.5894535914267180
    Two-Electron Energy =               18684.8233512544720725
    Total Energy =                      -4073.1047516319486022

Computation Completed


Properties will be evaluated at   0.000000,   0.000000,   0.000000 [a0]

Properties computed using the SCF density matrix


 Multipole Moments:

 ------------------------------------------------------------------------------------
     Multipole            Electronic (a.u.)      Nuclear  (a.u.)        Total (a.u.)
 ------------------------------------------------------------------------------------

 L = 1.  Multiply by 2.5417464519 to convert [e a0] to [Debye]
 Dipole X            :         -0.0005590           -0.0000548           -0.0006138
 Dipole Y            :          0.0009300           -0.0002464            0.0006837
 Dipole Z            :        -27.8713930           38.0868996           10.2155066
 Magnitude           :                                                   10.2155066

 ------------------------------------------------------------------------------------

*** tstop() called on n2cn1041.ab2021.local at Sat Jan 27 14:11:13 2024
Module time:
	user time   =   22635.51 seconds =     377.26 minutes
	system time =    1220.28 seconds =      20.34 minutes
	total time  =      12568 seconds =     209.47 minutes
Total time:
	user time   =   22635.51 seconds =     377.26 minutes
	system time =    1220.28 seconds =      20.34 minutes
	total time  =      12568 seconds =     209.47 minutes

  //>>>>>>>>>>>>>>>>>>>>>>>>>>>>>>>>>>>//
  //            Monomer A HF           //
  //<<<<<<<<<<<<<<<<<<<<<<<<<<<<<<<<<<<//

   => Libint2 <=

    Primary   basis highest AM E, G, H:  5, 4, 3
    Auxiliary basis highest AM E, G, H:  6, 5, 4
    Onebody   basis highest AM E, G, H:  6, 5, 4
    Solid Harmonics ordering:            gaussian

*** tstart() called on n2cn1041.ab2021.local
*** at Sat Jan 27 14:11:14 2024

   => Loading Basis Set <=

    Name: JUN-CC-PVDZ
    Role: ORBITAL
    Keyword: BASIS
    atoms 1                                                   entry B          line   130 file /opt/software/pc2/EB-SW/software/PSI4/1.9-foss-2022a/share/psi4/basis/jun-cc-pvdz.gbs 
    atoms 2-5                                                 entry F          line   266 file /opt/software/pc2/EB-SW/software/PSI4/1.9-foss-2022a/share/psi4/basis/jun-cc-pvdz.gbs 
    atoms 6-23, 30-42, 45-59, 62-78, 81-93, 98-108, 111-119   entry C          line   164 file /opt/software/pc2/EB-SW/software/PSI4/1.9-foss-2022a/share/psi4/basis/jun-cc-pvdz.gbs 
    atoms 24-29, 43-44, 60-61, 79-80, 94-97, 109-110, 120-125 entry H          line    36 file /opt/software/pc2/EB-SW/software/PSI4/1.9-foss-2022a/share/psi4/basis/jun-cc-pvdz.gbs 


         ---------------------------------------------------------
                                   SCF
               by Justin Turney, Rob Parrish, Andy Simmonett
                          and Daniel G. A. Smith
                              RHF Reference
                       16 Threads,  61035 MiB Core
         ---------------------------------------------------------

  ==> Geometry <==

    Molecular point group: c1
    Full point group: C1

    Geometry (in Angstrom), charge = -1, multiplicity = 1:

       Center              X                  Y                   Z               Mass       
    ------------   -----------------  -----------------  -----------------  -----------------
         B           -0.000201921932     0.000288800891    -5.959165804409    11.009305360000
         F           -0.000004162732     0.000014527991    -4.546380804409    18.998403162730
         F            1.147855837268     0.675795727991    -6.430306804409    18.998403162730
         F            0.011913897268    -1.331996472009    -6.430104804409    18.998403162730
         F           -1.159670162732     0.656088027991    -6.430025804409    18.998403162730
      Gh(C)          -3.668445426752     7.803766698073     0.442700236927    12.000000000000
      Gh(C)          -4.847602882078     7.131256359331     0.440333661994    12.000000000000
      Gh(C)          -4.894963461907     5.696344931522     0.439760750896    12.000000000000
      Gh(C)          -3.653744841505     4.980744868950     0.447421192626    12.000000000000
      Gh(C)          -2.409429284226     7.113995564665     0.442894579187    12.000000000000
      Gh(C)          -2.425481506836     5.681136478894     0.435889690317    12.000000000000
      Gh(C)          -1.194748179167     7.786158722300     0.444366759729    12.000000000000
      Gh(C)           0.037954866205     7.099436173748     0.442196055424    12.000000000000
      Gh(C)           0.030328424687     5.669504087695     0.436712670508    12.000000000000
      Gh(C)          -1.200988670637     4.969284875906     0.445682404442    12.000000000000
      Gh(C)           1.277953663083     7.772873971185     0.443571903985    12.000000000000
      Gh(C)           2.485353921992     7.087711413228     0.441297416080    12.000000000000
      Gh(C)           2.486124522185     5.654785338231     0.434359667092    12.000000000000
      Gh(C)           1.254078756912     4.956092641655     0.445987608680    12.000000000000
      Gh(C)           3.751710428674     7.763926678971     0.441424267460    12.000000000000
      Gh(C)           4.923561893453     7.078795304981     0.439367786752    12.000000000000
      Gh(C)           4.955603108594     5.643461991360     0.439207373945    12.000000000000
      Gh(C)           3.706797371473     4.941224736324     0.444298934115    12.000000000000
      Gh(H)          -3.658525300490     8.890841947126     0.444385225177     1.007825032230
      Gh(H)          -1.189217492488     8.874135615351     0.448338636170     1.007825032230
      Gh(H)           1.284290076155     8.860847963479     0.447730728126     1.007825032230
      Gh(H)           3.753537924068     8.851049806963     0.442946791776     1.007825032230
      Gh(H)           5.869954540475     7.613809362646     0.438442419710     1.007825032230
      Gh(H)          -5.788235870234     7.676316740925     0.438773814638     1.007825032230
[...]
    1501A      2.113056  1502A      2.115033  1503A      2.117051  
    1504A      2.117864  1505A      2.119746  1506A      2.126472  
    1507A      2.126783  1508A      2.126870  1509A      2.127439  
    1510A      2.127802  1511A      2.128022  1512A      2.130019  
    1513A      2.131231  1514A      2.135034  1515A      2.135480  
    1516A      2.138244  1517A      2.139062  1518A      2.142971  
    1519A      2.143229  1520A      2.143285  1521A      2.143901  
    1522A      2.144457  1523A      2.154481  1524A      2.154973  
    1525A      2.157294  1526A      2.157893  1527A      2.158969  
    1528A      2.159575  1529A      2.159909  1530A      2.160099  
    1531A      2.162584  1532A      2.163082  1533A      2.171282  
    1534A      2.171616  1535A      2.179896  1536A      2.181037  
    1537A      2.181146  1538A      2.182373  1539A      2.188669  
    1540A      2.189354  1541A      2.190903  1542A      2.191573  
    1543A      2.192615  1544A      2.194993  1545A      2.197472  
    1546A      2.198103  1547A      2.200422  1548A      2.200668  
    1549A      2.200962  1550A      2.201602  1551A      2.203110  
    1552A      2.204178  1553A      2.205593  1554A      2.209640  
    1555A      2.213653  1556A      2.213969  1557A      2.220151  
    1558A      2.222229  1559A      2.222712  1560A      2.224274  
    1561A      2.224771  1562A      2.224818  1563A      2.228790  
    1564A      2.232000  1565A      2.232314  1566A      2.233288  
    1567A      2.238726  1568A      2.238864  1569A      2.239458  
    1570A      2.241506  1571A      2.247540  1572A      2.248145  
    1573A      2.249201  1574A      2.250115  1575A      2.260374  
    1576A      2.261527  1577A      2.263682  1578A      2.264964  
    1579A      2.266675  1580A      2.269532  1581A      2.275270  
    1582A      2.282825  1583A      2.284261  1584A      2.290597  
    1585A      2.291044  1586A      2.296332  1587A      2.296762  
    1588A      2.303751  1589A      2.304139  1590A      2.309110  
    1591A      2.316782  1592A      2.324474  1593A      2.324898  
    1594A      2.325184  1595A      2.327182  1596A      2.329417  
    1597A      2.330553  1598A      2.331149  1599A      2.333017  
    1600A      2.334385  1601A      2.335054  1602A      2.339688  
    1603A      2.341378  1604A      2.342143  1605A      2.342314  
    1606A      2.344793  1607A      2.345809  1608A      2.346300  
    1609A      2.349074  1610A      2.349417  1611A      2.368029  
    1612A      2.372273  1613A      2.372937  1614A      2.383597  
    1615A      2.387952  1616A      2.390699  1617A      2.391654  
    1618A      2.393047  1619A      2.396961  1620A      2.418313  
    1621A      2.419491  1622A      2.423698  1623A      2.427563  
    1624A      2.432153  1625A      2.441729  1626A      2.443805  
    1627A      2.452224  1628A      2.453086  1629A      2.464309  
    1630A      2.464427  1631A      2.467764  1632A      2.468054  
    1633A      2.471909  1634A      2.472166  1635A      2.490976  
    1636A      2.491368  1637A      2.494757  1638A      2.501771  
    1639A      2.506158  1640A      2.507069  1641A      2.511443  
    1642A      2.516162  1643A      2.539201  1644A      2.539329  
    1645A      2.539989  1646A      2.541948  1647A      2.542706  
    1648A      2.544842  1649A      2.547578  1650A      2.548502  
    1651A      2.549166  1652A      2.551128  1653A      2.556536  
    1654A      2.556692  1655A      2.564194  1656A      2.571186  
    1657A      2.571467  1658A      2.579998  1659A      2.583674  
    1660A      2.584156  1661A      2.585096  1662A      2.586244  
    1663A      2.588481  1664A      2.588810  1665A      2.593199  
    1666A      2.593488  1667A      2.601316  1668A      2.601443  
    1669A      2.612715  1670A      2.613010  1671A      2.613350  
    1672A      2.613708  1673A      2.616722  1674A      2.617486  
    1675A      2.632525  1676A      2.640564  1677A      2.641512  
    1678A      2.643712  1679A      2.645390  1680A      2.647329  
    1681A      2.648638  1682A      2.649254  1683A      2.652739  
    1684A      2.655694  1685A      2.656056  1686A      2.666000  
    1687A      2.666082  1688A      2.667552  1689A      2.670344  
    1690A      2.670553  1691A      2.673580  1692A      2.677214  
    1693A      2.677601  1694A      2.684292  1695A      2.685602  
    1696A      2.687108  1697A      2.691107  1698A      2.691237  
    1699A      2.691556  1700A      2.692425  1701A      2.696054  
    1702A      2.697277  1703A      2.703976  1704A      2.720649  
    1705A      2.730685  1706A      2.730878  1707A      2.730998  
    1708A      2.731295  1709A      2.731927  1710A      2.752734  
    1711A      2.760223  1712A      2.760717  1713A      2.772759  
    1714A      2.775896  1715A      2.780021  1716A      2.780629  
    1717A      2.799085  1718A      2.799873  1719A      2.801489  
    1720A      2.802169  1721A      2.802224  1722A      2.807628  
    1723A      2.809818  1724A      2.814046  1725A      2.814731  
    1726A      2.815414  1727A      2.815705  1728A      2.816190  
    1729A      2.816462  1730A      2.821600  1731A      2.828096  
    1732A      2.828266  1733A      2.840122  1734A      2.841630  
    1735A      2.841688  1736A      2.843108  1737A      2.845995  
    1738A      2.864982  1739A      2.865391  1740A      2.866682  
    1741A      2.870211  1742A      2.871181  1743A      2.874144  
    1744A      2.895920  1745A      2.896805  1746A      2.912575  
    1747A      2.917687  1748A      2.917788  1749A      2.927406  
    1750A      2.929730  1751A      2.934844  1752A      2.934877  
    1753A      2.963008  1754A      2.964884  1755A      2.965369  
    1756A      2.976088  1757A      2.991788  1758A      2.992524  
    1759A      3.029240  1760A      3.029969  1761A      3.035312  
    1762A      3.038513  1763A      3.046803  1764A      3.047471  
    1765A      3.047970  1766A      3.057502  1767A      3.057551  
    1768A      3.063259  1769A      3.072829  1770A      3.108362  
    1771A      3.112800  1772A      3.113106  1773A      3.122519  
    1774A      3.127100  1775A      3.127794  1776A      3.132451  
    1777A      3.134051  1778A      3.141885  1779A      3.142934  
    1780A      3.148186  1781A      3.148715  1782A      3.149505  
    1783A      3.150070  1784A      3.153551  1785A      3.162072  
    1786A      3.167802  1787A      3.173122  1788A      3.175002  
    1789A      3.175247  1790A      3.193033  1791A      3.193771  
    1792A      3.220042  1793A      3.252898  1794A      3.259422  
    1795A      3.261131  1796A      3.261513  1797A      3.262157  
    1798A      3.264343  1799A      3.268208  1800A      3.271346  
    1801A      3.274760  1802A      3.275380  1803A      3.293178  
    1804A      3.294642  1805A      3.296141  1806A      3.302901  
    1807A      3.361245  1808A      3.362119  1809A      3.369582  
    1810A      3.415750  1811A      3.429695  1812A      3.432077  
    1813A      3.436886  1814A      3.446163  1815A      3.449551  
    1816A      3.461103  1817A      3.464492  1818A      3.465501  
    1819A      3.470967  1820A      3.473936  1821A      3.481612  
    1822A      3.484737  1823A      3.493657  1824A      3.509119  
    1825A      3.539815  1826A      3.574259  1827A      3.575953  
    1828A      3.582624  1829A      3.590081  1830A      3.636423  
    1831A      3.639457  1832A      3.664574  1833A      3.666701  
    1834A      3.704949  1835A      3.747384  1836A      3.749333  
    1837A      3.750592  1838A      3.763061  1839A      3.778571  
    1840A      3.779368  1841A      3.841833  1842A      3.843195  
    1843A      3.871436  1844A      3.874585  1845A      3.904720  
    1846A      3.912962  1847A      3.938014  1848A      3.940494  
    1849A      3.948278  1850A      3.949212  1851A      3.958542  
    1852A      3.964918  1853A      3.970812  1854A      4.024640  
    1855A      4.027441  1856A      4.070704  1857A      4.193555  
    1858A      4.194674  1859A      4.217496  1860A      4.229877  
    1861A      4.301701  1862A      4.339862  1863A      4.393265  
    1864A      5.748515  1865A      5.749805  1866A      5.749841  
    1867A      5.753726  1868A      5.753741  1869A      5.758471  
    1870A      5.760961  1871A      5.760998  1872A      5.780154  
    1873A      5.780206  1874A      5.790459  1875A      6.019812  
    1876A      6.020686  1877A      6.021032  1878A      6.193910  
    1879A      6.327021  1880A      6.327340  1881A      6.375491  
    1882A      6.375847  1883A      6.376092  1884A      7.165147  
    1885A      7.167392  1886A      7.232846  1887A      7.233125  
    1888A      7.234752  1889A      7.241070  1890A      7.276740  
    1891A      7.277291  1892A      7.459153  1893A      7.459453  
    1894A      7.505843  1895A      7.609936  1896A     12.604232  
    1897A     42.909606  1898A     42.909775  1899A     42.915832  
    1900A     42.940517  

    Final Occupation by Irrep:
              A 
    DOCC [   300 ]
    NA   [   300 ]
    NB   [   300 ]

  @DF-RHF Final Energy: -3650.33790454733389

   => Energetics <=

    Nuclear Repulsion Energy =          15611.4211649754324753
    One-Electron Energy =              -36072.0859167318703840
    Two-Electron Energy =               16810.3268472091040167
    Total Energy =                      -3650.3379045473338920

Computation Completed


Properties will be evaluated at   0.000000,   0.000000,   0.000000 [a0]

Properties computed using the SCF density matrix


 Multipole Moments:

 ------------------------------------------------------------------------------------
     Multipole            Electronic (a.u.)      Nuclear  (a.u.)        Total (a.u.)
 ------------------------------------------------------------------------------------

 L = 1.  Multiply by 2.5417464519 to convert [e a0] to [Debye]
 Dipole X            :         -0.0008656            0.0002304           -0.0006352
 Dipole Y            :          0.0010991           -0.0013052           -0.0002061
 Dipole Z            :       -499.7949974          499.7983793            0.0033819
 Magnitude           :                                                    0.0034472

 ------------------------------------------------------------------------------------

*** tstop() called on n2cn1041.ab2021.local at Sat Jan 27 16:51:22 2024
Module time:
	user time   =   15647.65 seconds =     260.79 minutes
	system time =     858.13 seconds =      14.30 minutes
	total time  =       6120 seconds =     102.00 minutes
Total time:
	user time   =   42525.16 seconds =     708.75 minutes
	system time =    2318.36 seconds =      38.64 minutes
	total time  =      22177 seconds =     369.62 minutes
  Constructing Basis Sets for SAPT...

   => Loading Basis Set <=

    Name: (JUN-CC-PVDZ AUX)
    Role: RIFIT
    Keyword: DF_BASIS_SAPT
    atoms 1                                                   entry B          line    56 file /opt/software/pc2/EB-SW/software/PSI4/1.9-foss-2022a/share/psi4/basis/jun-cc-pvdz-ri.gbs 
    atoms 2-5                                                 entry F          line   232 file /opt/software/pc2/EB-SW/software/PSI4/1.9-foss-2022a/share/psi4/basis/jun-cc-pvdz-ri.gbs 
    atoms 6-23, 30-42, 45-59, 62-78, 81-93, 98-108, 111-119   entry C          line   100 file /opt/software/pc2/EB-SW/software/PSI4/1.9-foss-2022a/share/psi4/basis/jun-cc-pvdz-ri.gbs 
    atoms 24-29, 43-44, 60-61, 79-80, 94-97, 109-110, 120-125 entry H          line    30 file /opt/software/pc2/EB-SW/software/PSI4/1.9-foss-2022a/share/psi4/basis/jun-cc-pvdz-ri.gbs 

   => Loading Basis Set <=

    Name: (JUN-CC-PVDZ AUX)
    Role: JKFIT
    Keyword: DF_BASIS_ELST
    atoms 1                                                   entry B          line    90 file /opt/software/pc2/EB-SW/software/PSI4/1.9-foss-2022a/share/psi4/basis/jun-cc-pvdz-jkfit.gbs 
    atoms 2-5                                                 entry F          line   314 file /opt/software/pc2/EB-SW/software/PSI4/1.9-foss-2022a/share/psi4/basis/jun-cc-pvdz-jkfit.gbs 
    atoms 6-23, 30-42, 45-59, 62-78, 81-93, 98-108, 111-119   entry C          line   146 file /opt/software/pc2/EB-SW/software/PSI4/1.9-foss-2022a/share/psi4/basis/jun-cc-pvdz-jkfit.gbs 
    atoms 24-29, 43-44, 60-61, 79-80, 94-97, 109-110, 120-125 entry H          line    70 file /opt/software/pc2/EB-SW/software/PSI4/1.9-foss-2022a/share/psi4/basis/jun-cc-pvdz-jkfit.gbs 


  //>>>>>>>>>>>>>>>>>>>>>>>>>>>>>>>>>>>//
  //               SSAPT0              //
  //<<<<<<<<<<<<<<<<<<<<<<<<<<<<<<<<<<<//


*** tstart() called on n2cn1041.ab2021.local
*** at Sat Jan 27 16:51:25 2024

        SAPT0  
    Ed Hohenstein
     6 June 2009

      Orbital Information
  --------------------------
    NSO        =      1938
    NMO        =      1900
    NRI        =      6901
    NRI (Elst) =      8531
    NOCC A     =        21
    NOCC B     =       300
    FOCC A     =         5
    FOCC B     =        96
    NVIR A     =      1879
    NVIR B     =      1600

    Elst10,r            =     0.009122043892 [Eh]
    Exch10              =     0.000000790137 [Eh]
    Exch10 (S^2)        =     0.000000790150 [Eh]

    Iter     Energy [mEh]          dE [mEh]         Residual      Time [s]
       1      -0.00451372       0.004513719       0.467837200           851
       2      -0.00524576       0.000732042       0.243246803          1249
       3      -0.00554905       0.000303292       0.044357698          1625
       4      -0.00554651      -0.000002543       0.009665148          2108
       5      -0.00553901      -0.000007496       0.001405076          2500
       6      -0.00554020       0.000001183       0.000335091          2969
       7      -0.00554020       0.000000004       0.000109986          3488
       8      -0.00554016      -0.000000043       0.000023426          3997
       9      -0.00554016      -0.000000003       0.000003661          4600
      10      -0.00554016       0.000000001       0.000000827          5222

    CHF Iterations converged


    Iter     Energy [mEh]          dE [mEh]         Residual      Time [s]
       1      -6.73730405       6.737304052      45.126666720           436
       2      -4.31351561      -2.423788445       5.358806661          1088
       3      -4.29029724      -0.023218368       1.779938002          1810
       4      -4.36727012       0.076972885       0.564297655          2397
       5      -4.37781548       0.010545352       0.193521819          3104
       6      -4.37679043      -0.001025049       0.126874141          3672
       7      -4.37461226      -0.002178170       0.051910549          4325
       8      -4.37474795       0.000135694       0.024558753          5013
       9      -4.37516682       0.000418864       0.013035208          5600
      10      -4.37510757      -0.000059244       0.013019007          6153
      11      -4.37501390      -0.000093670       0.005981341          6742
      12      -4.37501970       0.000005798       0.002739238          7524
      13      -4.37503789       0.000018189       0.001019899          8238
      14      -4.37504244       0.000004552       0.000349855          8823
      15      -4.37504053      -0.000001912       0.000210642          9412
      16      -4.37503836      -0.000002165       0.000123252         10027
      17      -4.37503934       0.000000978       0.000066319         10631
      18      -4.37503975       0.000000404       0.000022078         11497
      19      -4.37503957      -0.000000173       0.000010804         12105
      20      -4.37503953      -0.000000047       0.000004706         12784
      21      -4.37503955       0.000000020       0.000002388         13664
      22      -4.37503956       0.000000013       0.000001200         14958
      23      -4.37503956      -0.000000002       0.000000502         16089

    CHF Iterations converged

    Ind20,r (A<-B)      =    -0.000005540156 [Eh]
    Ind20,r (B<-A)      =    -0.004375039556 [Eh]
    Ind20,r             =    -0.004380579713 [Eh]
    Exch-Ind20,r (A<-B) =     0.000000416927 [Eh]
    Exch-Ind20,r (B<-A) =     0.000001860942 [Eh]
    Exch-Ind20,r        =     0.000002277869 [Eh]
    Disp20              =    -0.000798717959 [Eh]
    Disp20 (SS)         =    -0.000399358979 [Eh]
    Disp20 (OS)         =    -0.000399358979 [Eh]
    Exch-Disp20         =     0.000001544662 [Eh]
    Exch-Disp20 (SS)    =     0.000001172382 [Eh]
    Exch-Disp20 (OS)    =     0.000000372280 [Eh]

    SAPT Results 
  --------------------------------------------------------------------------------------------------------
    Electrostatics                  9.12204389 [mEh]       5.72416896 [kcal/mol]      23.94992294 [kJ/mol]
      Elst10,r                      9.12204389 [mEh]       5.72416896 [kcal/mol]      23.94992294 [kJ/mol]

    Exchange                        0.00079014 [mEh]       0.00049582 [kcal/mol]       0.00207451 [kJ/mol]
      Exch10                        0.00079014 [mEh]       0.00049582 [kcal/mol]       0.00207451 [kJ/mol]
      Exch10(S^2)                   0.00079015 [mEh]       0.00049583 [kcal/mol]       0.00207454 [kJ/mol]

    Induction                      -4.35120870 [mEh]      -2.73042468 [kcal/mol]     -11.42409686 [kJ/mol]
      Ind20,r                      -4.38057971 [mEh]      -2.74885527 [kcal/mol]     -11.50121045 [kJ/mol]
      Exch-Ind20,r                  0.00227787 [mEh]       0.00142938 [kcal/mol]       0.00598054 [kJ/mol]
      delta HF,r (2)                0.02709315 [mEh]       0.01700121 [kcal/mol]       0.07113305 [kJ/mol]

    Dispersion                     -0.79717330 [mEh]      -0.50023380 [kcal/mol]      -2.09297820 [kJ/mol]
      Disp20                       -0.79871796 [mEh]      -0.50120309 [kcal/mol]      -2.09703371 [kJ/mol]
      Exch-Disp20                   0.00154466 [mEh]       0.00096929 [kcal/mol]       0.00405551 [kJ/mol]
      Disp20 (SS)                  -0.39935898 [mEh]      -0.25060154 [kcal/mol]      -1.04851686 [kJ/mol]
      Disp20 (OS)                  -0.39935898 [mEh]      -0.25060154 [kcal/mol]      -1.04851686 [kJ/mol]
      Exch-Disp20 (SS)              0.00117238 [mEh]       0.00073568 [kcal/mol]       0.00307809 [kJ/mol]
      Exch-Disp20 (OS)              0.00037228 [mEh]       0.00023361 [kcal/mol]       0.00097742 [kJ/mol]

  Total HF                          4.77162533 [mEh]       2.99424010 [kcal/mol]      12.52790058 [kJ/mol]
  Total SAPT0                       3.97445204 [mEh]       2.49400631 [kcal/mol]      10.43492238 [kJ/mol]

  Special recipe for scaled SAPT0 (see Manual):
    Electrostatics sSAPT0           9.12204389 [mEh]       5.72416896 [kcal/mol]      23.94992294 [kJ/mol]
    Exchange sSAPT0                 0.00079014 [mEh]       0.00049582 [kcal/mol]       0.00207451 [kJ/mol]
    Induction sSAPT0               -4.35120870 [mEh]      -2.73042468 [kcal/mol]     -11.42409686 [kJ/mol]
    Dispersion sSAPT0              -0.79717330 [mEh]      -0.50023380 [kcal/mol]      -2.09297820 [kJ/mol]
  Total sSAPT0                      3.97445204 [mEh]       2.49400631 [kcal/mol]      10.43492238 [kJ/mol]
  --------------------------------------------------------------------------------------------------------

*** tstop() called on n2cn1041.ab2021.local at Mon Jan 29 11:23:39 2024
Module time:
	user time   =   64244.11 seconds =    1070.74 minutes
	system time =    2919.49 seconds =      48.66 minutes
	total time  =     153134 seconds =    2552.23 minutes
Total time:
	user time   =  106770.60 seconds =    1779.51 minutes
	system time =    5237.86 seconds =      87.30 minutes
	total time  =     175314 seconds =    2921.90 minutes

    Psi4 stopped on: Monday, 29 January 2024 11:23AM
    Psi4 wall time for execution: 2 days, 0:41:55.03

*** Psi4 exiting successfully. Buy a developer a beer!
