
    -----------------------------------------------------------------------
          Psi4: An Open-Source Ab Initio Electronic Structure Package
                               Psi4 1.9 release

                         Git: Rev {} zzzzzzz 


    D. G. A. Smith, L. A. Burns, A. C. Simmonett, R. M. Parrish,
    M. C. Schieber, R. Galvelis, P. Kraus, H. Kruse, R. Di Remigio,
    A. Alenaizan, A. M. James, S. Lehtola, J. P. Misiewicz, M. Scheurer,
    R. A. Shaw, J. B. Schriber, Y. Xie, Z. L. Glick, D. A. Sirianni,
    J. S. O'Brien, J. M. Waldrop, A. Kumar, E. G. Hohenstein,
    B. P. Pritchard, B. R. Brooks, H. F. Schaefer III, A. Yu. Sokolov,
    K. Patkowski, A. E. DePrince III, U. Bozkaya, R. A. King,
    F. A. Evangelista, J. M. Turney, T. D. Crawford, C. D. Sherrill,
    J. Chem. Phys. 152(18) 184108 (2020). https://doi.org/10.1063/5.0006002

                            Additional Code Authors
    E. T. Seidl, C. L. Janssen, E. F. Valeev, M. L. Leininger,
    J. F. Gonthier, R. M. Richard, H. R. McAlexander, M. Saitow, X. Wang,
    P. Verma, M. H. Lechner, A. Jiang, S. Behnle, A. G. Heide,
    M. F. Herbst, and D. L. Poole

             Previous Authors, Complete List of Code Contributors,
                       and Citations for Specific Modules
    https://github.com/psi4/psi4/blob/master/codemeta.json
    https://github.com/psi4/psi4/graphs/contributors
    http://psicode.org/psi4manual/master/introduction.html#citing-psifour

    -----------------------------------------------------------------------


    Psi4 started on: Friday, 26 January 2024 11:20PM

    Process ID: 518241
    Host:       n2cn0412
    PSIDATADIR: /opt/software/pc2/EB-SW/software/PSI4/1.9-foss-2022a/share/psi4
    Memory:     500.0 MiB
    Threads:    16
    
  ==> Input File <==

--------------------------------------------------------------------------
memory 64 GB # how much memory is available ! Depends on the nodes/cores !

molecule dimer {
# monomer A
+1 1    # Charge and multiplicity
C  0.680067 -1.215929 2.408042
C -0.680504 -1.215545 2.406014
N -1.085635  0.102779 2.405016
C  0.000108  0.884180 2.401740
C -2.477365  0.570758 2.355610
N  1.085222  0.102779 2.405016
H  1.385146 -2.033368 2.415870
H -1.385302 -2.033214 2.406204
H -0.000009  1.965269 2.399993
C  2.478117  0.567877 2.421908
H  2.490592  1.658130 2.394563
H  2.967028  0.220701 3.335354
H  3.001428  0.176405 1.546425
H -2.857359  0.490799 1.333539
H -3.082679 -0.042306 3.025694
H -2.518128  1.610706 2.682594
--
# monomer B
0 1     # Charge and multiplicity
C   -3.66844126402057      7.80375217008252      0.00190004133558
C   -4.84759871934653      7.13124183134024     -0.00046653359696
C   -4.89495929917518      5.69633040353158     -0.00103944469517
C   -3.65374067877320      4.98073034095895      0.00662099703436
C   -2.40942512149445      7.11398103667468      0.00209438359570
C   -2.42547734410473      5.68112195090346     -0.00491050527438
C   -1.19474401643570      7.78614419430947      0.00356656413763
C   0.03795902893699      7.09942164575698      0.00139585983271
C   0.03033258741920      5.66948955970466     -0.00408752508301
C   -1.20098450790502      4.96927034791531      0.00488220885047
C   1.27795782581485      7.77285944319479      0.00277170839332
C   2.48535808472416      7.08769688523756      0.00049722048857
C   2.48612868491717      5.65477081024076     -0.00644052849921
C   1.25408291964399      4.95607811366431      0.00518741308898
C   3.75171459140595      7.76391215098033      0.00062407186893
C   4.92356605618520      7.07878077698995     -0.00143240883900
C   4.95560727132542      5.64344746336949     -0.00159282164606
C   3.70680153420475      4.94121020833308      0.00349873852374
H   -3.65852113775815      8.89082741913536      0.00358502958574
H   -1.18921332975660      8.87412108735996      0.00753844057883
H   1.28429423888630      8.86083343548850      0.00693053253426
H   3.75354208679975      8.85103527897216      0.00214659618464
H   5.86995870320703      7.61379483465560     -0.00235777588134
H   -5.78823170750226      7.67630221293400     -0.00202638095293
C   -6.09197395869619      4.99326001364347     -0.00291168518608
C   -6.12866148031747      3.58258016879823     -0.00171050815740
C   -3.66457974004527      3.56418217974434     -0.00463560277484
C   -4.89429820469869      2.86108077590057      0.00453338221034
C   -2.43733499489796      2.84761165708481      0.00719617576166
C   -1.20922785759670      3.54788693497833     -0.00648285103018
C   1.24714157216223      3.53468075142962     -0.00729145743546
C   0.01517603956900      2.83311183930540      0.00439272578912
C   2.46764517244071      2.82128997725533      0.00449278391269
C   3.70254947457969      3.52466015442405     -0.00899517692985
C   6.14498038638375      4.92757236613191     -0.00282626685777
C   6.16658835886151      3.51658447594213     -0.00065971342101
C   4.92460995845939      2.80840792535402      0.00587903281610
H   7.08990550964105      5.46688776622306     -0.00658814770723
H   -7.03104175110130      5.54268795285765     -0.00714490013730
C   -7.33969804112295      2.85841153457957     -0.00333767559888
C   -7.36488195805880      1.47032337158330     -0.00157213747140
C   -4.90350460894690      1.44442681216000     -0.00628840166334
C   -6.13225715261081      0.73993935705394      0.00600164231964
C   -3.67687480051673      0.72669714267312      0.00433931473643
C   -2.44565658606518      1.42964113326212     -0.00597039546461
C   -1.22360068130162      0.71532450163492      0.00545886906656
C   0.00763786931376      1.41738314923765      0.00392452278437
C   1.23121980774686      0.70211669058719     -0.01490206287210
C   2.46082110053113      1.40329203612573      0.00460244601878
C   3.68443025419614      0.68719842821222      0.00377365974158
C   4.91870890153864      1.39173456118907     -0.00862816189375
C   7.36980207796101      2.77948220318441     -0.00242013321349
C   7.38016266612146      1.39121750785509     -0.00087345036788
C   6.13979953912259      0.67411862320065      0.00545489144369
H   -8.27919079934664      3.40711804112415     -0.00763522772059
H   8.31511347147953      3.31811809662368     -0.00663070901292
C   -8.59175593758115      0.72483255304480     -0.00123170985383
C   -8.59902460370342     -0.63263980622873      0.00089141472904
C   -6.13981313911873     -0.67413663715361     -0.00609792660607
C   -7.38018411213749     -1.39126618958160      0.00131813493501
C   -4.91868448025621     -1.39175501803000      0.00624257154343
C   -3.68443829568458     -0.68723731573599     -0.00478966852105
C   -2.46081704024768     -1.40334517882457      0.00575341766833
C   -1.23116201232071     -0.70217386488055     -0.00636696112346
C   -0.00756962538737     -1.41741884941102      0.00108956317991
C   1.22364771588843     -0.71527537726392      0.01109518512883
C   2.44567064933149     -1.42964328900682     -0.00065482763106
C   3.67686670284649     -0.72670743155550     -0.00479541202602
C   6.13224884641929     -0.73997883984993     -0.00632338623858
C   4.90351914550401     -1.44445752054090      0.00751768830159
C   8.59901484869081      0.63260386666793     -0.00101133422380
C   8.59174548810050     -0.72485086719319      0.00072504603735
C   7.36486276438985     -1.47033266560598      0.00049486934466
H   -9.52830597181814      1.27684744919284     -0.00270163681798
H   9.54141097460619      1.17457248844457     -0.00206336648518
C   -7.36983790976868     -2.77954514593389      0.00312634335708
C   -4.92459910905015     -2.80843725734101     -0.00460528907921
C   -6.16662249566744     -3.51665219282533      0.00169655107992
C   -3.70251035970491     -3.52468154912026      0.00571878010666
C   -2.46764698511392     -2.82132596280400     -0.00632585824990
C   -0.01513347410770     -2.83314164539971     -0.00604426974092
C   -1.24712184122656     -3.53473217556300      0.00551968366725
C   1.20924506964357     -3.54791467864352      0.00805871345849
C   2.43733602215464     -2.84764173817541     -0.00608104485234
C   4.89430234377080     -2.86112296828604     -0.00526030478103
C   3.66461525504104     -3.56421984553201      0.00761911515957
C   6.12863901474565     -3.58258405771778      0.00096495711699
C   7.33967266469532     -2.85841330737039      0.00248018319869
H   -9.54144911125902     -1.17456346666430      0.00226083090216
H   9.52826186807155     -1.27691907390448      0.00197485379837
H   -8.31516504384864     -3.31814985321231      0.00729857188773
H   8.27915514249207     -3.40714078989363      0.00681973918158
C   -6.14499418870218     -4.92764727278338      0.00302254913999
C   -3.70678334799751     -4.94126171411716     -0.00679841894792
C   -4.95559005800169     -5.64349397349412      0.00116871569699
C   -2.48612132622665     -5.65478557440947      0.00614125209662
C   -1.25405833548005     -4.95612205000132     -0.00503435388927
C   1.20101257386816     -4.96928038819302     -0.00385322963129
C   -0.03033667441341     -5.66952030313900      0.00398997003238
C   3.65375010132847     -4.98074377541453     -0.00309522988330
C   2.42549269587528     -5.68117463552727      0.00628170066869
C   6.09196561781097     -4.99325796338655      0.00325918379042
C   4.89497644461045     -5.69634842095790      0.00202298796027
H   -7.08989238804069     -5.46699984223871      0.00742531082125
H   7.03105520920009     -5.54265853633254      0.00683896355417
C   -4.92354532219813     -7.07882109967734      0.00061394679214
C   -2.48534208823777     -7.08772807792913     -0.00189594564379
C   -3.75168589177895     -7.76394715763627     -0.00170126671874
C   -0.03794895698805     -7.09946487446944     -0.00168022049625
C   -1.27795610040136     -7.77290438466689     -0.00366491325785
C   2.40944432072629     -7.11402201200282     -0.00081701968533
C   1.19474993715296     -7.78618536556242     -0.00296931056689
C   4.84762105249800     -7.13126211057943      0.00168979497423
C   3.66847160587561     -7.80378799294376     -0.00065863938960
H   -5.86994035041618     -7.61383059804164      0.00215798365757
H   5.78824962538815     -7.67633218931421      0.00281691445618
H   -3.75352693944918     -8.85107156923607     -0.00353718114765
H   -1.28430440589466     -8.86087539249706     -0.00809229711623
H   1.18922157469537     -8.87416062058945     -0.00706194725726
H   3.65854661482387     -8.89086063405326     -0.00231318081200

    units angstrom      # Angstroms are the default
    no_reorient         # Geometry fixed, default
    symmetry c1         # C1 symmetry, default
}

set {
    scf_type DF         # Density fitting, faster than exact integrals
    freeze_core True    # Freeze core electrons
    basis jun-cc-pVDZ   # Jun-cc-pVDZ basis set, recommended for sSAPT0 in https://doi.org/10.1063/1.4867135
}

energy('ssapt0')        # Compute sSAPT0 energy, includes also SAPT0
--------------------------------------------------------------------------

  Memory set to  59.605 GiB by Python driver.

Scratch directory: /tmp/
   => Loading Basis Set <=

    Name: JUN-CC-PVDZ
    Role: ORBITAL
    Keyword: BASIS
    atoms 1-2, 4-5, 10, 17-34, 41-53, 56-70, 73-89, 92-104, 109-119, 122-130 entry C          line   164 file /opt/software/pc2/EB-SW/software/PSI4/1.9-foss-2022a/share/psi4/basis/jun-cc-pvdz.gbs 
    atoms 3, 6                                                               entry N          line   198 file /opt/software/pc2/EB-SW/software/PSI4/1.9-foss-2022a/share/psi4/basis/jun-cc-pvdz.gbs 
    atoms 7-9, 11-16, 35-40, 54-55, 71-72, 90-91, 105-108, 120-121, 131-136  entry H          line    36 file /opt/software/pc2/EB-SW/software/PSI4/1.9-foss-2022a/share/psi4/basis/jun-cc-pvdz.gbs 

   => Loading Basis Set <=

    Name: JUN-CC-PVDZ
    Role: ORBITAL
    Keyword: BASIS
    atoms 1-2, 4-5, 10, 17-34, 41-53, 56-70, 73-89, 92-104, 109-119, 122-130 entry C          line   164 file /opt/software/pc2/EB-SW/software/PSI4/1.9-foss-2022a/share/psi4/basis/jun-cc-pvdz.gbs 
    atoms 3, 6                                                               entry N          line   198 file /opt/software/pc2/EB-SW/software/PSI4/1.9-foss-2022a/share/psi4/basis/jun-cc-pvdz.gbs 
    atoms 7-9, 11-16, 35-40, 54-55, 71-72, 90-91, 105-108, 120-121, 131-136  entry H          line    36 file /opt/software/pc2/EB-SW/software/PSI4/1.9-foss-2022a/share/psi4/basis/jun-cc-pvdz.gbs 


  //>>>>>>>>>>>>>>>>>>>>>>>>>>>>>>>>>>>//
  //              Dimer HF             //
  //<<<<<<<<<<<<<<<<<<<<<<<<<<<<<<<<<<<//

   => Libint2 <=

    Primary   basis highest AM E, G, H:  5, 4, 3
    Auxiliary basis highest AM E, G, H:  6, 5, 4
    Onebody   basis highest AM E, G, H:  6, 5, 4
    Solid Harmonics ordering:            gaussian

*** tstart() called on n2cn0412
*** at Fri Jan 26 23:20:41 2024

   => Loading Basis Set <=

    Name: JUN-CC-PVDZ
    Role: ORBITAL
    Keyword: BASIS
    atoms 1-2, 4-5, 10, 17-34, 41-53, 56-70, 73-89, 92-104, 109-119, 122-130 entry C          line   164 file /opt/software/pc2/EB-SW/software/PSI4/1.9-foss-2022a/share/psi4/basis/jun-cc-pvdz.gbs 
    atoms 3, 6                                                               entry N          line   198 file /opt/software/pc2/EB-SW/software/PSI4/1.9-foss-2022a/share/psi4/basis/jun-cc-pvdz.gbs 
    atoms 7-9, 11-16, 35-40, 54-55, 71-72, 90-91, 105-108, 120-121, 131-136  entry H          line    36 file /opt/software/pc2/EB-SW/software/PSI4/1.9-foss-2022a/share/psi4/basis/jun-cc-pvdz.gbs 


         ---------------------------------------------------------
                                   SCF
               by Justin Turney, Rob Parrish, Andy Simmonett
                          and Daniel G. A. Smith
                              RHF Reference
                       16 Threads,  61035 MiB Core
         ---------------------------------------------------------

  ==> Geometry <==

    Molecular point group: c1
    Full point group: C1

    Geometry (in Angstrom), charge = 1, multiplicity = 1:

       Center              X                  Y                   Z               Mass       
    ------------   -----------------  -----------------  -----------------  -----------------
         C            0.680062820275    -1.215917226251     2.225057427543    12.000000000000
         C           -0.680508179725    -1.215533226251     2.223029427543    12.000000000000
         N           -1.085639179725     0.102790773749     2.222031427543    14.003074004430
         C            0.000103820275     0.884191773749     2.218755427543    12.000000000000
         C           -2.477369179725     0.570769773749     2.172625427543    12.000000000000
         N            1.085217820275     0.102790773749     2.222031427543    14.003074004430
         H            1.385141820275    -2.033356226251     2.232885427543     1.007825032230
         H           -1.385306179725    -2.033202226251     2.223219427543     1.007825032230
         H           -0.000013179725     1.965280773749     2.217008427543     1.007825032230
         C            2.478112820275     0.567888773749     2.238923427543    12.000000000000
         H            2.490587820275     1.658141773750     2.211578427543     1.007825032230
         H            2.967023820275     0.220712773749     3.152369427543     1.007825032230
         H            3.001423820275     0.176416773749     1.363440427543     1.007825032230
         H           -2.857363179725     0.490810773749     1.150554427543     1.007825032230
         H           -3.082683179725    -0.042294226251     2.842709427543     1.007825032230
         H           -2.518132179725     1.610717773749     2.499609427543     1.007825032230
         C           -3.668445443746     7.803763943832    -0.181084531122    12.000000000000
         C           -4.847602899072     7.131253605090    -0.183451106054    12.000000000000
         C           -4.894963478901     5.696342177281    -0.184024017152    12.000000000000
         C           -3.653744858499     4.980742114708    -0.176363575423    12.000000000000
         C           -2.409429301220     7.113992810424    -0.180890188861    12.000000000000
         C           -2.425481523830     5.681133724653    -0.187895077731    12.000000000000
         C           -1.194748196161     7.786155968059    -0.179418008319    12.000000000000
         C            0.037954849212     7.099433419506    -0.181588712624    12.000000000000
         C            0.030328407694     5.669501333454    -0.187072097540    12.000000000000
         C           -1.200988687630     4.969282121665    -0.178102363607    12.000000000000
         C            1.277953646089     7.772871216944    -0.180212864064    12.000000000000
         C            2.485353904999     7.087708658987    -0.182487351969    12.000000000000
         C            2.486124505192     5.654782583990    -0.189425100956    12.000000000000
         C            1.254078739919     4.956089887414    -0.177797159368    12.000000000000
         C            3.751710411681     7.763923924730    -0.182360500588    12.000000000000
         C            4.923561876460     7.078792550739    -0.184416981296    12.000000000000
         C            4.955603091600     5.643459237119    -0.184577394103    12.000000000000
         C            3.706797354479     4.941221982083    -0.179485833933    12.000000000000
         H           -3.658525317484     8.890839192885    -0.179399542871     1.007825032230
         H           -1.189217509482     8.874132861109    -0.175446131878     1.007825032230
         H            1.284290059161     8.860845209238    -0.176054039923     1.007825032230
         H            3.753537907074     8.851047052722    -0.180837976272     1.007825032230
         H            5.869954523482     7.613806608405    -0.185342348338     1.007825032230
         H           -5.788235887228     7.676313986684    -0.185010953410     1.007825032230
         C           -6.091978138422     4.993271787393    -0.185896257643    12.000000000000
         C           -6.128665660043     3.582591942548    -0.184695080615    12.000000000000
         C           -3.664583919771     3.564193953494    -0.187620175232    12.000000000000
         C           -4.894302384424     2.861092549650    -0.178451190247    12.000000000000
         C           -2.437339174623     2.847623430834    -0.175788396695    12.000000000000
         C           -1.209232037322     3.547898708728    -0.189467423487    12.000000000000
         C            1.247137392437     3.534692525179    -0.190276029893    12.000000000000
         C            0.015171859844     2.833123613055    -0.178591846668    12.000000000000
         C            2.467640992715     2.821301751005    -0.178491788544    12.000000000000
         C            3.702545294854     3.524671928174    -0.191979749387    12.000000000000
         C            6.144976206658     4.927584139881    -0.185810839315    12.000000000000
         C            6.166584179136     3.516596249692    -0.183644285878    12.000000000000
         C            4.924605778734     2.808419699104    -0.177105539641    12.000000000000
         H            7.089901329916     5.466899539973    -0.189572720164     1.007825032230
         H           -7.031045930827     5.542699726607    -0.190129472594     1.007825032230
         C           -7.339702220848     2.858423308329    -0.186322248056    12.000000000000
         C           -7.364886137784     1.470335145333    -0.184556709929    12.000000000000
         C           -4.903508788672     1.444438585909    -0.189272974120    12.000000000000
         C           -6.132261332336     0.739951130803    -0.176982930137    12.000000000000
         C           -3.676878980242     0.726708916423    -0.178645257721    12.000000000000
         C           -2.445660765791     1.429652907012    -0.188954967922    12.000000000000
         C           -1.223604861027     0.715336275384    -0.177525703391    12.000000000000
         C            0.007633689588     1.417394922987    -0.179060049673    12.000000000000
         C            1.231215628021     0.702128464337    -0.197886635329    12.000000000000
         C            2.460816920806     1.403303809875    -0.178382126438    12.000000000000
         C            3.684426074471     0.687210201962    -0.179210912716    12.000000000000
         C            4.918704721813     1.391746334939    -0.191612734351    12.000000000000
         C            7.369797898236     2.779493976934    -0.185404705671    12.000000000000
         C            7.380158486396     1.391229281605    -0.183858022825    12.000000000000
         C            6.139795359397     0.674130396950    -0.177529681013    12.000000000000
         H           -8.279194979072     3.407129814874    -0.190619800178     1.007825032230
         H            8.315109291754     3.318129870373    -0.189615281470     1.007825032230
         C           -8.591760117307     0.724844326794    -0.184216282311    12.000000000000
         C           -8.599028783429    -0.632628032479    -0.182093157728    12.000000000000
         C           -6.139817318844    -0.674124863404    -0.189082499063    12.000000000000
         C           -7.380188291863    -1.391254415832    -0.181666437522    12.000000000000
         C           -4.918688659982    -1.391743244281    -0.176742000914    12.000000000000
         C           -3.684442475410    -0.687225541986    -0.187774240978    12.000000000000
         C           -2.460821219973    -1.403333405075    -0.177231154789    12.000000000000
         C           -1.231166192046    -0.702162091131    -0.189351533581    12.000000000000
         C           -0.007573805113    -1.417407075662    -0.181895009277    12.000000000000
         C            1.223643536163    -0.715263603514    -0.171889387328    12.000000000000
         C            2.445666469606    -1.429631515257    -0.183639400088    12.000000000000
         C            3.676862523121    -0.726695657806    -0.187779984483    12.000000000000
         C            6.132244666694    -0.739967066100    -0.189307958696    12.000000000000
         C            4.903514965779    -1.444445746791    -0.175466884156    12.000000000000
         C            8.599010668965     0.632615640417    -0.183995906681    12.000000000000
         C            8.591741308375    -0.724839093444    -0.182259526420    12.000000000000
         C            7.364858584664    -1.470320891856    -0.182489703112    12.000000000000
         H           -9.528310151544     1.276859222942    -0.185686209275     1.007825032230
         H            9.541406794881     1.174584262194    -0.185047938942     1.007825032230
         C           -7.369842089494    -2.779533372184    -0.179858229100    12.000000000000
         C           -4.924603288776    -2.808425483592    -0.187589861536    12.000000000000
         C           -6.166626675393    -3.516640419076    -0.181288021377    12.000000000000
         C           -3.702514539430    -3.524669775371    -0.177265792350    12.000000000000
         C           -2.467651164839    -2.821314189055    -0.189310430707    12.000000000000
         C           -0.015137653833    -2.833129871650    -0.189028842198    12.000000000000
         C           -1.247126020952    -3.534720401814    -0.177464888790    12.000000000000
         C            1.209240889918    -3.547902904894    -0.174925858999    12.000000000000
         C            2.437331842429    -2.847629964426    -0.189065617309    12.000000000000
         C            4.894298164045    -2.861111194537    -0.188244877238    12.000000000000
         C            3.664611075316    -3.564208071783    -0.175365457298    12.000000000000
         C            6.128634835020    -3.582572283968    -0.182019615340    12.000000000000
         C            7.339668484970    -2.858401533621    -0.180504389258    12.000000000000
         H           -9.541453290984    -1.174551692915    -0.180723741555     1.007825032230
         H            9.528257688346    -1.276907300155    -0.181009718659     1.007825032230
         H           -8.315169223574    -3.318138079463    -0.175686000569     1.007825032230
         H            8.279150962767    -3.407129016144    -0.176164833276     1.007825032230
         C           -6.144998368428    -4.927635499034    -0.179962023317    12.000000000000
         C           -3.706787527723    -4.941249940368    -0.189782991405    12.000000000000
         C           -4.955594237727    -5.643482199745    -0.181815856760    12.000000000000
         C           -2.486125505952    -5.654773800660    -0.176843320360    12.000000000000
         C           -1.254062515205    -4.956110276252    -0.188018926346    12.000000000000
         C            1.201008394143    -4.969268614444    -0.186837802088    12.000000000000
         C           -0.030340854139    -5.669508529390    -0.178994602425    12.000000000000
         C            3.653745921603    -4.980732001665    -0.186079802340    12.000000000000
         C            2.425488516150    -5.681162861778    -0.176702871788    12.000000000000
         C            6.091961438086    -4.993246189637    -0.179725388667    12.000000000000
         C            4.894972264885    -5.696336647208    -0.180961584497    12.000000000000
         H           -7.089896567766    -5.466988068489    -0.175559261636     1.007825032230
         H            7.031051029475    -5.542646762583    -0.176145608903     1.007825032230
         C           -4.923549501924    -7.078809325928    -0.182370625665    12.000000000000
         C           -2.485346267963    -7.087716304180    -0.184880518101    12.000000000000
         C           -3.751690071504    -7.763935383887    -0.184685839176    12.000000000000
         C           -0.037953136713    -7.099453100720    -0.184664792953    12.000000000000
         C           -1.277960280127    -7.772892610917    -0.186649485715    12.000000000000
         C            2.409440141001    -7.114010238253    -0.183801592142    12.000000000000
         C            1.194745757428    -7.786173591813    -0.185953883024    12.000000000000
         C            4.847616872773    -7.131250336830    -0.181294777483    12.000000000000
         C            3.668467426150    -7.803776219194    -0.183643211847    12.000000000000
         H           -5.869944530142    -7.613818824292    -0.180826588800     1.007825032230
         H            5.788245445663    -7.676320415565    -0.180167658001     1.007825032230
         H           -3.753531119175    -8.851059795487    -0.186521753605     1.007825032230
         H           -1.284308585620    -8.860863618748    -0.191076869573     1.007825032230
         H            1.189217394970    -8.874148846840    -0.190046519714     1.007825032230
         H            3.658542435098    -8.890848860304    -0.185297753269     1.007825032230

  Running in c1 symmetry.

  Rotational constants: A =      0.00069  B =      0.00068  C =      0.00035 [cm^-1]
  Rotational constants: A =     20.63514  B =     20.49404  C =     10.50436 [MHz]
  Nuclear repulsion = 18729.356192892573745

  Charge       = 1
  Multiplicity = 1
  Electrons    = 652
  Nalpha       = 326
  Nbeta        = 326

  ==> Algorithm <==

  SCF Algorithm Type is DF.
  DIIS enabled.
  MOM disabled.
  Fractional occupation disabled.
  Guess Type is SAD.
  Energy threshold   = 1.00e-08
  Density threshold  = 1.00e-08
  Integral threshold = 1.00e-12

  ==> Primary Basis <==

  Basis Set: JUN-CC-PVDZ
    Blend: JUN-CC-PVDZ
    Number of shells: 923
    Number of basis functions: 2019
    Number of Cartesian functions: 2122
    Spherical Harmonics?: true
    Max angular momentum: 2

   => Loading Basis Set <=

    Name: (JUN-CC-PVDZ AUX)
    Role: JKFIT
    Keyword: DF_BASIS_SCF
    atoms 1-2, 4-5, 10, 17-34, 41-53, 56-70, 73-89, 92-104, 109-119, 122-130 entry C          line   146 file /opt/software/pc2/EB-SW/software/PSI4/1.9-foss-2022a/share/psi4/basis/jun-cc-pvdz-jkfit.gbs 
    atoms 3, 6                                                               entry N          line   202 file /opt/software/pc2/EB-SW/software/PSI4/1.9-foss-2022a/share/psi4/basis/jun-cc-pvdz-jkfit.gbs 
    atoms 7-9, 11-16, 35-40, 54-55, 71-72, 90-91, 105-108, 120-121, 131-136  entry H          line    70 file /opt/software/pc2/EB-SW/software/PSI4/1.9-foss-2022a/share/psi4/basis/jun-cc-pvdz-jkfit.gbs 

  ==> Integral Setup <==

  ==> DiskDFJK: Density-Fitted J/K Matrices <==

    J tasked:                  Yes
    K tasked:                  Yes
    wK tasked:                  No
    OpenMP threads:             16
    Integrals threads:          16
    Memory [MiB]:            45776
    Algorithm:                Disk
    Integral Cache:           SAVE
    Schwarz Cutoff:          1E-12
    Fitting Condition:       1E-10

   => Auxiliary Basis Set <=

  Basis Set: (JUN-CC-PVDZ AUX)
    Blend: JUN-CC-PVDZ-JKFIT
    Number of shells: 3078
    Number of basis functions: 8896
    Number of Cartesian functions: 10198
    Spherical Harmonics?: true
    Max angular momentum: 3

  Minimum eigenvalue in the overlap matrix is 3.6684415582E-11.
  Reciprocal condition number of the overlap matrix is 1.2870619446E-12.
    Using canonical orthogonalization.
  Overall, 41 of 2019 possible MOs eliminated.


  ==> Pre-Iterations <==

  SCF Guess: Superposition of Atomic Densities via on-the-fly atomic UHF (no occupation information).

   -------------------------
    Irrep   Nso     Nmo    
   -------------------------
     A       2019    1978 
   -------------------------
    Total    2019    1978
   -------------------------

  ==> Iterations <==

                           Total Energy        Delta E     RMS |[F,P]|

   @DF-RHF iter SAD: -3970.42696519384117   -3.97043e+03   0.00000e+00 
   @DF-RHF iter   1: -3951.82393604400158    1.86030e+01   7.21823e-04 DIIS/ADIIS
   @DF-RHF iter   2: -3953.23265655211799   -1.40872e+00   2.38431e-04 DIIS/ADIIS
   @DF-RHF iter   3: -3953.35954948475501   -1.26893e-01   1.04351e-04 DIIS/ADIIS
   @DF-RHF iter   4: -3953.38286174079349   -2.33123e-02   4.59480e-05 DIIS
   @DF-RHF iter   5: -3953.38763733691303   -4.77560e-03   1.43893e-05 DIIS
   @DF-RHF iter   6: -3953.38825371825806   -6.16381e-04   5.46435e-06 DIIS
   @DF-RHF iter   7: -3953.38845495189071   -2.01234e-04   2.46530e-06 DIIS
   @DF-RHF iter   8: -3953.38852224821949   -6.72963e-05   1.26290e-06 DIIS
   @DF-RHF iter   9: -3953.38854384023716   -2.15920e-05   6.03454e-07 DIIS
   @DF-RHF iter  10: -3953.38854638379962   -2.54356e-06   2.40870e-07 DIIS
   @DF-RHF iter  11: -3953.38854679892756   -4.15128e-07   9.92337e-08 DIIS
   @DF-RHF iter  12: -3953.38854687302319   -7.40956e-08   4.80501e-08 DIIS
   @DF-RHF iter  13: -3953.38854689971868   -2.66955e-08   2.32086e-08 DIIS
   @DF-RHF iter  14: -3953.38854690581320   -6.09452e-09   1.42359e-08 DIIS
   @DF-RHF iter  15: -3953.38854690827611   -2.46291e-09   9.74287e-09 DIIS
  Energy and wave function converged.


  ==> Post-Iterations <==

    Orbital Energies [Eh]
    ---------------------

    Doubly Occupied:                                                      

       1A    -15.755891     2A    -15.755634     3A    -11.462831  
       4A    -11.386794     5A    -11.385317     6A    -11.369311  
       7A    -11.359726     8A    -11.351607     9A    -11.351288  
      10A    -11.350728    11A    -11.350468    12A    -11.350179  
      13A    -11.349878    14A    -11.349127    15A    -11.348972  
      16A    -11.348129    17A    -11.347632    18A    -11.347131  
      19A    -11.346870    20A    -11.346682    21A    -11.346555  
      22A    -11.346218    23A    -11.345872    24A    -11.345766  
      25A    -11.345431    26A    -11.345177    27A    -11.345068  
      28A    -11.344835    29A    -11.344779    30A    -11.343511  
      31A    -11.342648    32A    -11.341368    33A    -11.340191  
      34A    -11.340008    35A    -11.339804    36A    -11.339793  
      37A    -11.339232    38A    -11.338995    39A    -11.338783  
      40A    -11.338748    41A    -11.338526    42A    -11.338139  
      43A    -11.337930    44A    -11.336962    45A    -11.336324  
      46A    -11.336159    47A    -11.335911    48A    -11.335891  
      49A    -11.335812    50A    -11.335629    51A    -11.335607  
      52A    -11.335398    53A    -11.335287    54A    -11.335209  
      55A    -11.335125    56A    -11.335058    57A    -11.334914  
      58A    -11.334848    59A    -11.334771    60A    -11.334470  
      61A    -11.334373    62A    -11.334159    63A    -11.334135  
      64A    -11.334018    65A    -11.333779    66A    -11.333640  
      67A    -11.333260    68A    -11.332555    69A    -11.332371  
      70A    -11.332281    71A    -11.332196    72A    -11.332067  
      73A    -11.332005    74A    -11.331918    75A    -11.331851  
      76A    -11.331702    77A    -11.331463    78A    -11.331334  
      79A    -11.331241    80A    -11.325842    81A    -11.325707  
      82A    -11.325530    83A    -11.325374    84A    -11.325304  
      85A    -11.325080    86A    -11.325018    87A    -11.324946  
      88A    -11.324923    89A    -11.324798    90A    -11.324625  
      91A    -11.324579    92A    -11.321174    93A    -11.321005  
      94A    -11.320858    95A    -11.320828    96A    -11.320359  
      97A    -11.320215    98A    -11.319694    99A    -11.319532  
     100A    -11.319384   101A    -11.319357   102A    -11.318880  
     103A    -11.318741   104A     -1.513449   105A     -1.370774  
     106A     -1.343711   107A     -1.322181   108A     -1.319488  
     109A     -1.299136   110A     -1.297730   111A     -1.297117  
     112A     -1.276148   113A     -1.271876   114A     -1.271032  
     115A     -1.269647   116A     -1.248038   117A     -1.247761  
     118A     -1.240261   119A     -1.235249   120A     -1.233238  
     121A     -1.217994   122A     -1.217922   123A     -1.206931  
     124A     -1.198107   125A     -1.194432   126A     -1.192787  
     127A     -1.186315   128A     -1.184094   129A     -1.170679  
     130A     -1.166338   131A     -1.164383   132A     -1.152213  
     133A     -1.149583   134A     -1.148633   135A     -1.145618  
     136A     -1.144035   137A     -1.123840   138A     -1.121804  
     139A     -1.119374   140A     -1.119204   141A     -1.111339  
     142A     -1.110721   143A     -1.105806   144A     -1.104601  
     145A     -1.100848   146A     -1.083465   147A     -1.081175  
     148A     -1.080691   149A     -1.079012   150A     -1.077941  
     151A     -1.063538   152A     -1.053787   153A     -1.047083  
     154A     -1.044819   155A     -1.029767   156A     -1.029034  
     157A     -0.989914   158A     -0.988271   159A     -0.986777  
     160A     -0.977062   161A     -0.976935   162A     -0.973900  
     163A     -0.973022   164A     -0.969507   165A     -0.969278  
     166A     -0.967513   167A     -0.954385   168A     -0.945191  
     169A     -0.939034   170A     -0.935816   171A     -0.927800  
     172A     -0.926653   173A     -0.925495   174A     -0.921649  
     175A     -0.920157   176A     -0.910000   177A     -0.909283  
     178A     -0.899979   179A     -0.899855   180A     -0.864382  
     181A     -0.863442   182A     -0.862148   183A     -0.858825  
     184A     -0.858715   185A     -0.855472   186A     -0.855161  
     187A     -0.852094   188A     -0.843840   189A     -0.840388  
     190A     -0.828705   191A     -0.820292   192A     -0.807042  
     193A     -0.803491   194A     -0.802323   195A     -0.801954  
     196A     -0.800058   197A     -0.799656   198A     -0.796311  
     199A     -0.792167   200A     -0.791540   201A     -0.775033  
     202A     -0.773621   203A     -0.767220   204A     -0.763968  
     205A     -0.759515   206A     -0.759188   207A     -0.757977  
     208A     -0.756720   209A     -0.755625   210A     -0.750919  
     211A     -0.746420   212A     -0.728847   213A     -0.727733  
     214A     -0.727556   215A     -0.725938   216A     -0.725677  
     217A     -0.725472   218A     -0.722282   219A     -0.722051  
     220A     -0.718636   221A     -0.717931   222A     -0.713942  
     223A     -0.712779   224A     -0.712062   225A     -0.711770  
     226A     -0.704304   227A     -0.694828   228A     -0.687327  
     229A     -0.686959   230A     -0.683308   231A     -0.683187  
     232A     -0.679901   233A     -0.678587   234A     -0.677818  
     235A     -0.675212   236A     -0.674358   237A     -0.673033  
     238A     -0.672103   239A     -0.669994   240A     -0.669604  
     241A     -0.669333   242A     -0.669128   243A     -0.666386  
     244A     -0.664541   245A     -0.664374   246A     -0.659904  
     247A     -0.658457   248A     -0.648210   249A     -0.648127  
     250A     -0.647841   251A     -0.647075   252A     -0.646707  
     253A     -0.646531   254A     -0.641866   255A     -0.639461  
     256A     -0.639018   257A     -0.634428   258A     -0.634076  
     259A     -0.630928   260A     -0.630087   261A     -0.629517  
     262A     -0.628728   263A     -0.624136   264A     -0.619284  
     265A     -0.616955   266A     -0.615328   267A     -0.608109  
     268A     -0.607830   269A     -0.605685   270A     -0.600719  
     271A     -0.600659   272A     -0.592376   273A     -0.592227  
     274A     -0.590666   275A     -0.588076   276A     -0.587696  
     277A     -0.582141   278A     -0.581748   279A     -0.575347  
     280A     -0.572322   281A     -0.570736   282A     -0.570487  
     283A     -0.563495   284A     -0.557616   285A     -0.553441  
     286A     -0.551499   287A     -0.550213   288A     -0.548478  
     289A     -0.547202   290A     -0.545813   291A     -0.541427  
     292A     -0.541313   293A     -0.536114   294A     -0.525926  
     295A     -0.525255   296A     -0.524613   297A     -0.517029  
     298A     -0.505791   299A     -0.505420   300A     -0.504138  
     301A     -0.483919   302A     -0.481136   303A     -0.467050  
     304A     -0.463924   305A     -0.460986   306A     -0.455725  
     307A     -0.451177   308A     -0.450140   309A     -0.428135  
     310A     -0.427974   311A     -0.423655   312A     -0.419693  
     313A     -0.406663   314A     -0.403487   315A     -0.402776  
     316A     -0.392350   317A     -0.385274   318A     -0.382254  
     319A     -0.380780   320A     -0.372571   321A     -0.359036  
     322A     -0.327284   323A     -0.326120   324A     -0.324724  
     325A     -0.281902   326A     -0.279847  

    Virtual:                                                              

     327A     -0.086116   328A     -0.084928   329A     -0.054479  
     330A     -0.051058   331A     -0.029819   332A     -0.029388  
     333A     -0.016436   334A     -0.012891   335A     -0.011664  
     336A     -0.011349   337A     -0.009822   338A     -0.008998  
     339A     -0.008332   340A     -0.005273   341A     -0.004652  
     342A     -0.004469   343A     -0.002904   344A     -0.001990  
     345A     -0.001786   346A      0.000327   347A      0.005105  
     348A      0.006316   349A      0.006765   350A      0.009937  
     351A      0.010603   352A      0.010872   353A      0.012128  
     354A      0.013656   355A      0.018284   356A      0.020878  
     357A      0.021849   358A      0.022006   359A      0.022041  
     360A      0.028578   361A      0.029355   362A      0.032201  
     363A      0.032241   364A      0.033598   365A      0.034558  
     366A      0.035946   367A      0.036304   368A      0.037324  
     369A      0.037824   370A      0.041318   371A      0.041639  
     372A      0.043057   373A      0.043853   374A      0.044104  
     375A      0.045791   376A      0.046372   377A      0.047460  
     378A      0.048388   379A      0.048699   380A      0.049478  
     381A      0.050327   382A      0.055334   383A      0.056079  
     384A      0.058199   385A      0.058814   386A      0.062666  
     387A      0.064817   388A      0.065010   389A      0.067369  
     390A      0.067721   391A      0.068030   392A      0.069783  
     393A      0.071443   394A      0.071725   395A      0.072723  
     396A      0.072884   397A      0.074496   398A      0.075470  
     399A      0.076143   400A      0.077814   401A      0.078926  
     402A      0.081487   403A      0.081954   404A      0.082371  
     405A      0.087021   406A      0.087452   407A      0.089787  
     408A      0.092754   409A      0.094058   410A      0.096356  
     411A      0.096474   412A      0.101255   413A      0.101913  
     414A      0.102456   415A      0.102868   416A      0.102990  
     417A      0.103744   418A      0.104229   419A      0.105425  
     420A      0.106277   421A      0.107864   422A      0.108192  
     423A      0.109065   424A      0.109188   425A      0.110829  
     426A      0.111327   427A      0.118982   428A      0.120973  
     429A      0.123335   430A      0.123401   431A      0.123545  
     432A      0.123721   433A      0.127267   434A      0.127607  
     435A      0.129998   436A      0.130383   437A      0.131380  
     438A      0.131415   439A      0.134816   440A      0.136297  
     441A      0.137348   442A      0.138735   443A      0.139072  
     444A      0.139430   445A      0.140041   446A      0.140974  
     447A      0.142786   448A      0.143779   449A      0.144991  
     450A      0.145256   451A      0.145783   452A      0.146695  
     453A      0.147044   454A      0.148279   455A      0.148510  
     456A      0.148761   457A      0.150374   458A      0.150755  
     459A      0.151243   460A      0.153901   461A      0.153921  
     462A      0.156453   463A      0.156542   464A      0.158415  
     465A      0.159473   466A      0.159814   467A      0.161766  
     468A      0.163045   469A      0.163665   470A      0.165648  
     471A      0.166161   472A      0.168747   473A      0.169860  
     474A      0.170006   475A      0.170648   476A      0.170701  
     477A      0.171871   478A      0.173987   479A      0.174494  
     480A      0.174978   481A      0.175068   482A      0.178825  
     483A      0.179149   484A      0.180811   485A      0.181843  
     486A      0.182592   487A      0.183758   488A      0.185454  
     489A      0.187584   490A      0.187981   491A      0.188717  
     492A      0.189348   493A      0.189736   494A      0.189950  
     495A      0.192787   496A      0.193330   497A      0.194857  
     498A      0.195747   499A      0.196312   500A      0.197822  
     501A      0.200031   502A      0.201405   503A      0.201776  
     504A      0.202148   505A      0.204149   506A      0.204466  
     507A      0.208028   508A      0.208258   509A      0.208708  
     510A      0.209042   511A      0.210896   512A      0.211924  
     513A      0.212287   514A      0.213200   515A      0.214006  
     516A      0.214504   517A      0.215218   518A      0.216440  
     519A      0.217935   520A      0.220201   521A      0.220953  
     522A      0.222060   523A      0.222387   524A      0.223069  
     525A      0.223679   526A      0.224107   527A      0.224327  
     528A      0.226287   529A      0.228741   530A      0.229385  
     531A      0.231050   532A      0.231399   533A      0.232513  
     534A      0.233178   535A      0.234439   536A      0.235648  
     537A      0.237442   538A      0.237895   539A      0.238399  
     540A      0.239254   541A      0.239421   542A      0.243828  
     543A      0.244924   544A      0.245134   545A      0.248146  
     546A      0.249221   547A      0.249641   548A      0.250600  
     549A      0.252111   550A      0.252540   551A      0.252887  
     552A      0.252961   553A      0.254675   554A      0.255138  
     555A      0.255523   556A      0.255811   557A      0.256529  
     558A      0.258173   559A      0.258827   560A      0.259297  
     561A      0.261217   562A      0.261591   563A      0.263237  
     564A      0.263760   565A      0.264678   566A      0.265778  
     567A      0.266813   568A      0.267085   569A      0.267421  
     570A      0.267655   571A      0.268413   572A      0.269543  
     573A      0.269754   574A      0.270542   575A      0.271609  
     576A      0.272110   577A      0.275051   578A      0.276137  
     579A      0.278727   580A      0.279782   581A      0.280441  
     582A      0.282280   583A      0.282660   584A      0.282883  
     585A      0.283385   586A      0.284178   587A      0.284847  
     588A      0.285349   589A      0.287132   590A      0.288137  
     591A      0.289410   592A      0.290220   593A      0.290644  
     594A      0.291100   595A      0.291302   596A      0.293130  
     597A      0.293878   598A      0.294363   599A      0.297497  
     600A      0.297778   601A      0.298349   602A      0.299508  
     603A      0.301346   604A      0.302007   605A      0.303079  
     606A      0.304325   607A      0.305260   608A      0.305549  
     609A      0.306072   610A      0.307485   611A      0.308243  
     612A      0.308895   613A      0.309623   614A      0.310415  
     615A      0.312234   616A      0.313216   617A      0.314234  
     618A      0.314412   619A      0.314948   620A      0.315116  
     621A      0.315422   622A      0.315551   623A      0.317452  
     624A      0.320371   625A      0.321801   626A      0.322220  
     627A      0.323805   628A      0.324230   629A      0.325806  
     630A      0.326518   631A      0.326866   632A      0.327107  
     633A      0.328510   634A      0.330286   635A      0.331239  
     636A      0.331371   637A      0.333720   638A      0.333888  
     639A      0.334655   640A      0.334840   641A      0.335398  
     642A      0.335767   643A      0.336114   644A      0.336478  
     645A      0.337720   646A      0.338435   647A      0.338789  
     648A      0.339837   649A      0.341356   650A      0.342464  
     651A      0.342809   652A      0.343686   653A      0.344641  
     654A      0.345213   655A      0.346310   656A      0.347104  
     657A      0.348778   658A      0.349264   659A      0.351712  
     660A      0.351981   661A      0.352652   662A      0.353319  
     663A      0.353709   664A      0.355887   665A      0.356881  
     666A      0.357667   667A      0.358015   668A      0.358680  
     669A      0.360442   670A      0.360617   671A      0.362172  
     672A      0.363646   673A      0.364042   674A      0.364864  
     675A      0.365284   676A      0.365968   677A      0.367589  
     678A      0.370817   679A      0.371234   680A      0.372136  
     681A      0.372916   682A      0.374194   683A      0.374885  
     684A      0.376692   685A      0.378883   686A      0.379428  
     687A      0.379515   688A      0.380631   689A      0.383718  
     690A      0.384454   691A      0.384540   692A      0.385576  
     693A      0.385704   694A      0.386514   695A      0.386784  
     696A      0.386967   697A      0.388398   698A      0.389872  
     699A      0.391468   700A      0.391927   701A      0.395147  
     702A      0.396536   703A      0.397516   704A      0.398042  
     705A      0.399139   706A      0.399472   707A      0.400109  
     708A      0.400313   709A      0.401178   710A      0.401349  
     711A      0.402393   712A      0.403209   713A      0.404882  
     714A      0.405288   715A      0.405880   716A      0.407393  
     717A      0.407960   718A      0.409463   719A      0.410325  
     720A      0.411762   721A      0.412078   722A      0.412977  
     723A      0.415746   724A      0.416543   725A      0.417816  
     726A      0.418426   727A      0.420185   728A      0.421572  
     729A      0.422997   730A      0.424546   731A      0.425097  
     732A      0.426629   733A      0.427224   734A      0.427892  
     735A      0.428169   736A      0.428924   737A      0.430339  
     738A      0.432605   739A      0.432924   740A      0.433782  
     741A      0.435023   742A      0.435243   743A      0.436672  
     744A      0.437578   745A      0.439181   746A      0.440777  
     747A      0.442539   748A      0.443863   749A      0.445693  
     750A      0.446107   751A      0.448090   752A      0.448357  
     753A      0.449103   754A      0.449709   755A      0.450750  
     756A      0.451813   757A      0.452398   758A      0.453378  
     759A      0.454241   760A      0.455237   761A      0.456870  
     762A      0.457462   763A      0.458440   764A      0.459072  
     765A      0.460651   766A      0.464544   767A      0.466461  
     768A      0.466488   769A      0.469042   770A      0.469295  
     771A      0.471079   772A      0.473849   773A      0.474406  
     774A      0.476284   775A      0.476975   776A      0.478569  
     777A      0.480127   778A      0.481094   779A      0.485042  
     780A      0.487934   781A      0.488721   782A      0.488987  
     783A      0.490547   784A      0.491647   785A      0.492966  
     786A      0.495738   787A      0.496806   788A      0.497822  
     789A      0.499048   790A      0.501237   791A      0.503977  
     792A      0.504919   793A      0.506774   794A      0.507233  
     795A      0.507527   796A      0.508430   797A      0.509852  
     798A      0.513680   799A      0.514518   800A      0.515654  
     801A      0.516540   802A      0.517310   803A      0.518223  
     804A      0.520095   805A      0.521093   806A      0.521786  
     807A      0.525238   808A      0.525784   809A      0.527011  
     810A      0.529699   811A      0.531759   812A      0.532545  
     813A      0.533673   814A      0.535471   815A      0.535841  
     816A      0.536812   817A      0.540698   818A      0.542321  
     819A      0.543925   820A      0.546090   821A      0.547802  
     822A      0.549656   823A      0.550661   824A      0.550739  
     825A      0.553098   826A      0.554163   827A      0.557955  
     828A      0.560734   829A      0.563635   830A      0.567164  
     831A      0.567223   832A      0.568599   833A      0.576629  
     834A      0.579146   835A      0.581014   836A      0.581302  
     837A      0.584063   838A      0.584893   839A      0.586867  
     840A      0.587041   841A      0.594221   842A      0.596098  
     843A      0.598548   844A      0.601480   845A      0.603581  
     846A      0.603768   847A      0.606424   848A      0.607328  
     849A      0.614448   850A      0.616211   851A      0.617082  
     852A      0.618224   853A      0.618923   854A      0.621893  
     855A      0.623562   856A      0.625004   857A      0.626011  
     858A      0.627290   859A      0.633073   860A      0.633693  
     861A      0.637327   862A      0.640020   863A      0.642569  
     864A      0.647769   865A      0.655739   866A      0.657926  
     867A      0.661880   868A      0.665229   869A      0.668949  
     870A      0.669618   871A      0.670212   872A      0.671680  
     873A      0.675649   874A      0.677641   875A      0.679992  
     876A      0.681617   877A      0.694613   878A      0.703632  
     879A      0.711581   880A      0.713621   881A      0.714745  
     882A      0.715313   883A      0.719018   884A      0.720800  
     885A      0.722359   886A      0.724026   887A      0.729419  
     888A      0.732191   889A      0.733031   890A      0.737221  
     891A      0.740352   892A      0.743303   893A      0.747369  
     894A      0.750185   895A      0.751253   896A      0.752449  
     897A      0.754521   898A      0.755794   899A      0.756942  
     900A      0.759581   901A      0.761640   902A      0.763260  
     903A      0.764470   904A      0.767670   905A      0.770621  
     906A      0.772103   907A      0.774091   908A      0.776705  
     909A      0.777894   910A      0.780892   911A      0.781403  
     912A      0.782092   913A      0.787674   914A      0.790559  
     915A      0.791776   916A      0.792741   917A      0.795119  
     918A      0.798027   919A      0.800255   920A      0.800335  
     921A      0.802505   922A      0.803011   923A      0.804759  
     924A      0.805091   925A      0.806624   926A      0.810663  
     927A      0.813027   928A      0.813182   929A      0.814045  
     930A      0.816376   931A      0.818699   932A      0.820442  
     933A      0.820587   934A      0.822092   935A      0.823550  
     936A      0.827396   937A      0.828287   938A      0.828954  
     939A      0.831187   940A      0.833978   941A      0.836244  
     942A      0.837949   943A      0.839187   944A      0.840156  
     945A      0.841777   946A      0.843882   947A      0.846212  
     948A      0.847392   949A      0.848607   950A      0.849785  
     951A      0.850883   952A      0.852055   953A      0.853225  
     954A      0.853848   955A      0.854033   956A      0.855180  
     957A      0.857247   958A      0.859408   959A      0.860898  
     960A      0.863470   961A      0.864645   962A      0.866825  
     963A      0.866897   964A      0.869995   965A      0.870743  
     966A      0.872522   967A      0.873513   968A      0.875165  
     969A      0.876535   970A      0.876750   971A      0.879057  
     972A      0.880448   973A      0.881230   974A      0.883185  
     975A      0.884386   976A      0.885084   977A      0.886308  
     978A      0.887104   979A      0.887722   980A      0.890101  
     981A      0.890941   982A      0.893763   983A      0.895990  
     984A      0.896801   985A      0.898448   986A      0.900607  
     987A      0.902795   988A      0.904829   989A      0.907256  
     990A      0.908138   991A      0.912816   992A      0.914078  
     993A      0.916363   994A      0.918440   995A      0.919112  
     996A      0.920255   997A      0.922770   998A      0.923525  
     999A      0.924069  1000A      0.925441  1001A      0.927727  
    1002A      0.928738  1003A      0.931048  1004A      0.931909  
    1005A      0.933371  1006A      0.935047  1007A      0.937202  
    1008A      0.938724  1009A      0.939131  1010A      0.940476  
    1011A      0.942527  1012A      0.944235  1013A      0.945223  
    1014A      0.946469  1015A      0.949311  1016A      0.951417  
    1017A      0.952363  1018A      0.952995  1019A      0.954929  
    1020A      0.956597  1021A      0.958537  1022A      0.959985  
    1023A      0.960957  1024A      0.962567  1025A      0.963517  
    1026A      0.965803  1027A      0.966603  1028A      0.968736  
    1029A      0.970091  1030A      0.971353  1031A      0.972684  
    1032A      0.973769  1033A      0.975076  1034A      0.975467  
    1035A      0.976722  1036A      0.978951  1037A      0.979755  
    1038A      0.980489  1039A      0.981879  1040A      0.982359  
    1041A      0.983960  1042A      0.985833  1043A      0.986062  
    1044A      0.986140  1045A      0.987526  1046A      0.989627  
    1047A      0.990252  1048A      0.991278  1049A      0.993514  
    1050A      0.994145  1051A      0.995539  1052A      0.996795  
    1053A      0.998819  1054A      0.999009  1055A      0.999595  
    1056A      1.000326  1057A      1.001659  1058A      1.002163  
    1059A      1.002857  1060A      1.003619  1061A      1.004366  
    1062A      1.005670  1063A      1.006378  1064A      1.006859  
    1065A      1.007630  1066A      1.008958  1067A      1.009164  
    1068A      1.010928  1069A      1.012035  1070A      1.013601  
    1071A      1.014061  1072A      1.014499  1073A      1.015385  
    1074A      1.016322  1075A      1.016681  1076A      1.017396  
    1077A      1.018195  1078A      1.020539  1079A      1.021220  
    1080A      1.021931  1081A      1.023074  1082A      1.024568  
    1083A      1.025899  1084A      1.026790  1085A      1.029355  
    1086A      1.029600  1087A      1.030619  1088A      1.031568  
    1089A      1.032813  1090A      1.033778  1091A      1.035889  
    1092A      1.037139  1093A      1.039641  1094A      1.041125  
    1095A      1.043110  1096A      1.043570  1097A      1.046172  
    1098A      1.048077  1099A      1.050420  1100A      1.051062  
    1101A      1.052367  1102A      1.053414  1103A      1.054467  
    1104A      1.056138  1105A      1.058827  1106A      1.062412  
    1107A      1.063334  1108A      1.064463  1109A      1.066869  
    1110A      1.068585  1111A      1.069978  1112A      1.071239  
    1113A      1.076056  1114A      1.076947  1115A      1.077813  
    1116A      1.078221  1117A      1.078787  1118A      1.081596  
    1119A      1.082679  1120A      1.084399  1121A      1.084880  
    1122A      1.086288  1123A      1.086786  1124A      1.088689  
    1125A      1.090424  1126A      1.091337  1127A      1.091922  
    1128A      1.093964  1129A      1.098134  1130A      1.099159  
    1131A      1.100293  1132A      1.103021  1133A      1.106006  
    1134A      1.107459  1135A      1.112215  1136A      1.114837  
    1137A      1.116564  1138A      1.118334  1139A      1.123361  
    1140A      1.125370  1141A      1.126600  1142A      1.128064  
    1143A      1.130296  1144A      1.133774  1145A      1.134177  
    1146A      1.136616  1147A      1.139223  1148A      1.141844  
    1149A      1.143458  1150A      1.144410  1151A      1.145687  
    1152A      1.146067  1153A      1.149734  1154A      1.150799  
    1155A      1.153087  1156A      1.157265  1157A      1.158763  
    1158A      1.160462  1159A      1.160869  1160A      1.162523  
    1161A      1.164719  1162A      1.169175  1163A      1.170962  
    1164A      1.174076  1165A      1.175118  1166A      1.175638  
    1167A      1.179495  1168A      1.181185  1169A      1.185649  
    1170A      1.186677  1171A      1.188014  1172A      1.190381  
    1173A      1.192086  1174A      1.194714  1175A      1.196024  
    1176A      1.201079  1177A      1.202876  1178A      1.205393  
    1179A      1.208662  1180A      1.210773  1181A      1.212310  
    1182A      1.215049  1183A      1.216170  1184A      1.218227  
    1185A      1.220512  1186A      1.221499  1187A      1.221869  
    1188A      1.224678  1189A      1.225854  1190A      1.226590  
    1191A      1.227544  1192A      1.230082  1193A      1.231082  
    1194A      1.233011  1195A      1.236962  1196A      1.237909  
    1197A      1.241262  1198A      1.244489  1199A      1.245062  
    1200A      1.247733  1201A      1.248233  1202A      1.250360  
    1203A      1.250822  1204A      1.252089  1205A      1.252910  
    1206A      1.253895  1207A      1.255419  1208A      1.256826  
    1209A      1.260131  1210A      1.261660  1211A      1.263026  
    1212A      1.265996  1213A      1.266854  1214A      1.266979  
    1215A      1.269977  1216A      1.270554  1217A      1.273338  
    1218A      1.274915  1219A      1.275512  1220A      1.278151  
    1221A      1.282542  1222A      1.285044  1223A      1.287361  
    1224A      1.291378  1225A      1.292701  1226A      1.294900  
    1227A      1.297169  1228A      1.297728  1229A      1.299284  
    1230A      1.301525  1231A      1.303582  1232A      1.305532  
    1233A      1.310069  1234A      1.310839  1235A      1.312774  
    1236A      1.315503  1237A      1.320657  1238A      1.323946  
    1239A      1.324607  1240A      1.325733  1241A      1.326159  
    1242A      1.327538  1243A      1.327873  1244A      1.330348  
    1245A      1.331633  1246A      1.333888  1247A      1.336700  
    1248A      1.339023  1249A      1.341706  1250A      1.342721  
    1251A      1.345246  1252A      1.346085  1253A      1.348136  
    1254A      1.349722  1255A      1.351025  1256A      1.352595  
    1257A      1.352989  1258A      1.353957  1259A      1.355643  
    1260A      1.357024  1261A      1.359304  1262A      1.359959  
    1263A      1.361825  1264A      1.363515  1265A      1.364672  
    1266A      1.366006  1267A      1.371776  1268A      1.372307  
    1269A      1.375100  1270A      1.377731  1271A      1.378633  
    1272A      1.380852  1273A      1.381811  1274A      1.383785  
    1275A      1.385140  1276A      1.389004  1277A      1.389212  
    1278A      1.394274  1279A      1.397613  1280A      1.400978  
    1281A      1.402218  1282A      1.405829  1283A      1.406040  
    1284A      1.407607  1285A      1.410451  1286A      1.412001  
    1287A      1.414721  1288A      1.416267  1289A      1.418469  
    1290A      1.421265  1291A      1.422559  1292A      1.431474  
    1293A      1.433669  1294A      1.435387  1295A      1.436965  
    1296A      1.440823  1297A      1.443956  1298A      1.446797  
    1299A      1.452529  1300A      1.457242  1301A      1.462560  
    1302A      1.468964  1303A      1.473136  1304A      1.479037  
    1305A      1.480414  1306A      1.483631  1307A      1.491544  
    1308A      1.494456  1309A      1.499887  1310A      1.505614  
    1311A      1.507665  1312A      1.509392  1313A      1.514459  
    1314A      1.518524  1315A      1.520258  1316A      1.523755  
    1317A      1.530297  1318A      1.532854  1319A      1.533954  
    1320A      1.535017  1321A      1.536623  1322A      1.538982  
    1323A      1.540162  1324A      1.541622  1325A      1.542877  
    1326A      1.545848  1327A      1.547363  1328A      1.548370  
    1329A      1.549507  1330A      1.552549  1331A      1.553411  
    1332A      1.556985  1333A      1.558167  1334A      1.561018  
    1335A      1.561742  1336A      1.562909  1337A      1.565145  
    1338A      1.566524  1339A      1.568601  1340A      1.569572  
    1341A      1.572329  1342A      1.574793  1343A      1.577160  
    1344A      1.578498  1345A      1.579569  1346A      1.580722  
    1347A      1.582949  1348A      1.584713  1349A      1.586058  
    1350A      1.587238  1351A      1.587497  1352A      1.588469  
    1353A      1.589716  1354A      1.592167  1355A      1.593351  
    1356A      1.595956  1357A      1.597782  1358A      1.598716  
    1359A      1.603965  1360A      1.604874  1361A      1.606390  
    1362A      1.610536  1363A      1.611979  1364A      1.614044  
    1365A      1.614793  1366A      1.617093  1367A      1.618581  
    1368A      1.619503  1369A      1.621045  1370A      1.623678  
    1371A      1.627283  1372A      1.629590  1373A      1.634134  
    1374A      1.635065  1375A      1.636510  1376A      1.640645  
    1377A      1.641598  1378A      1.643778  1379A      1.646078  
    1380A      1.648079  1381A      1.651885  1382A      1.652208  
    1383A      1.653076  1384A      1.654198  1385A      1.658858  
    1386A      1.663141  1387A      1.667214  1388A      1.668997  
    1389A      1.671022  1390A      1.673480  1391A      1.679843  
    1392A      1.682027  1393A      1.685199  1394A      1.686896  
    1395A      1.690375  1396A      1.694751  1397A      1.697462  
    1398A      1.700872  1399A      1.704366  1400A      1.706035  
    1401A      1.708901  1402A      1.714118  1403A      1.715969  
    1404A      1.716670  1405A      1.726462  1406A      1.728495  
    1407A      1.729562  1408A      1.732401  1409A      1.742314  
    1410A      1.744294  1411A      1.747112  1412A      1.750704  
    1413A      1.752616  1414A      1.755720  1415A      1.756306  
    1416A      1.759005  1417A      1.761280  1418A      1.762839  
    1419A      1.764309  1420A      1.767108  1421A      1.768146  
    1422A      1.770755  1423A      1.775401  1424A      1.778449  
    1425A      1.780836  1426A      1.783316  1427A      1.784371  
    1428A      1.785676  1429A      1.787241  1430A      1.789221  
    1431A      1.790126  1432A      1.793658  1433A      1.794644  
    1434A      1.795654  1435A      1.797340  1436A      1.800261  
    1437A      1.800864  1438A      1.805026  1439A      1.806394  
    1440A      1.807176  1441A      1.808488  1442A      1.809486  
    1443A      1.810516  1444A      1.811633  1445A      1.813566  
    1446A      1.814346  1447A      1.815708  1448A      1.818581  
    1449A      1.819219  1450A      1.821529  1451A      1.823784  
    1452A      1.826804  1453A      1.829792  1454A      1.833206  
    1455A      1.835127  1456A      1.837904  1457A      1.838421  
    1458A      1.841263  1459A      1.843045  1460A      1.843863  
    1461A      1.846036  1462A      1.848555  1463A      1.851220  
    1464A      1.851614  1465A      1.852883  1466A      1.856725  
    1467A      1.859320  1468A      1.862225  1469A      1.866385  
    1470A      1.868624  1471A      1.870062  1472A      1.871308  
    1473A      1.871739  1474A      1.873358  1475A      1.876413  
    1476A      1.878239  1477A      1.879090  1478A      1.880872  
    1479A      1.883296  1480A      1.884764  1481A      1.885928  
    1482A      1.888803  1483A      1.890604  1484A      1.891228  
    1485A      1.894142  1486A      1.895253  1487A      1.895809  
    1488A      1.899277  1489A      1.900631  1490A      1.902580  
    1491A      1.904329  1492A      1.906735  1493A      1.912330  
    1494A      1.913232  1495A      1.916366  1496A      1.918883  
    1497A      1.919252  1498A      1.920420  1499A      1.920992  
    1500A      1.924798  1501A      1.926731  1502A      1.929728  
    1503A      1.931596  1504A      1.933346  1505A      1.935330  
    1506A      1.936603  1507A      1.937914  1508A      1.940652  
    1509A      1.942816  1510A      1.944024  1511A      1.946172  
    1512A      1.947360  1513A      1.947861  1514A      1.950810  
    1515A      1.951854  1516A      1.953776  1517A      1.954554  
    1518A      1.958067  1519A      1.960692  1520A      1.963146  
    1521A      1.965736  1522A      1.968005  1523A      1.969258  
    1524A      1.970687  1525A      1.972712  1526A      1.973566  
    1527A      1.974832  1528A      1.975154  1529A      1.979132  
    1530A      1.980547  1531A      1.983615  1532A      1.984983  
    1533A      1.986941  1534A      1.988241  1535A      1.989059  
    1536A      1.992237  1537A      1.992653  1538A      1.995088  
    1539A      1.997254  1540A      1.997720  1541A      2.000947  
    1542A      2.004525  1543A      2.005081  1544A      2.006288  
    1545A      2.007037  1546A      2.008461  1547A      2.009059  
    1548A      2.010124  1549A      2.012814  1550A      2.013504  
    1551A      2.015761  1552A      2.016193  1553A      2.019318  
    1554A      2.019793  1555A      2.020912  1556A      2.023043  
    1557A      2.023377  1558A      2.024008  1559A      2.025057  
    1560A      2.026090  1561A      2.028174  1562A      2.029233  
    1563A      2.031107  1564A      2.032953  1565A      2.033070  
    1566A      2.035531  1567A      2.036074  1568A      2.038297  
    1569A      2.039166  1570A      2.039701  1571A      2.041427  
    1572A      2.042359  1573A      2.044912  1574A      2.045456  
    1575A      2.047876  1576A      2.048207  1577A      2.051279  
    1578A      2.052461  1579A      2.055491  1580A      2.057151  
    1581A      2.057972  1582A      2.058644  1583A      2.059182  
    1584A      2.060531  1585A      2.062402  1586A      2.064361  
    1587A      2.064884  1588A      2.065755  1589A      2.068571  
    1590A      2.071611  1591A      2.072213  1592A      2.073898  
    1593A      2.076085  1594A      2.078483  1595A      2.081053  
    1596A      2.082365  1597A      2.084952  1598A      2.085974  
    1599A      2.088189  1600A      2.089265  1601A      2.090711  
    1602A      2.092298  1603A      2.093913  1604A      2.097875  
    1605A      2.100045  1606A      2.102158  1607A      2.104824  
    1608A      2.106701  1609A      2.107842  1610A      2.108712  
    1611A      2.109990  1612A      2.112832  1613A      2.113563  
    1614A      2.114439  1615A      2.116763  1616A      2.117615  
    1617A      2.119266  1618A      2.121358  1619A      2.122488  
    1620A      2.124275  1621A      2.126645  1622A      2.128839  
    1623A      2.133627  1624A      2.135298  1625A      2.137684  
    1626A      2.139160  1627A      2.141877  1628A      2.143474  
    1629A      2.145235  1630A      2.146892  1631A      2.147976  
    1632A      2.149627  1633A      2.150958  1634A      2.152105  
    1635A      2.155785  1636A      2.156781  1637A      2.158133  
    1638A      2.162055  1639A      2.162808  1640A      2.165505  
    1641A      2.165746  1642A      2.166888  1643A      2.167520  
    1644A      2.169464  1645A      2.173356  1646A      2.174790  
    1647A      2.177503  1648A      2.180700  1649A      2.181720  
    1650A      2.182393  1651A      2.185139  1652A      2.191816  
    1653A      2.192677  1654A      2.198197  1655A      2.199482  
    1656A      2.202815  1657A      2.203545  1658A      2.206045  
    1659A      2.207746  1660A      2.208566  1661A      2.210166  
    1662A      2.213695  1663A      2.218033  1664A      2.220688  
    1665A      2.222402  1666A      2.224921  1667A      2.229147  
    1668A      2.231744  1669A      2.234059  1670A      2.237333  
    1671A      2.237525  1672A      2.239137  1673A      2.241840  
    1674A      2.246393  1675A      2.250444  1676A      2.251756  
    1677A      2.254436  1678A      2.254928  1679A      2.257146  
    1680A      2.257929  1681A      2.261523  1682A      2.262903  
    1683A      2.263608  1684A      2.266186  1685A      2.267297  
    1686A      2.268141  1687A      2.268577  1688A      2.270990  
    1689A      2.272553  1690A      2.273211  1691A      2.275621  
    1692A      2.278070  1693A      2.284795  1694A      2.289092  
    1695A      2.294136  1696A      2.302705  1697A      2.305896  
    1698A      2.310191  1699A      2.312944  1700A      2.320153  
    1701A      2.327087  1702A      2.329165  1703A      2.339360  
    1704A      2.340716  1705A      2.342856  1706A      2.346830  
    1707A      2.347456  1708A      2.351469  1709A      2.352053  
    1710A      2.360160  1711A      2.361963  1712A      2.367811  
    1713A      2.371736  1714A      2.373704  1715A      2.378810  
    1716A      2.381066  1717A      2.388886  1718A      2.391417  
    1719A      2.392527  1720A      2.394940  1721A      2.397244  
    1722A      2.400158  1723A      2.408191  1724A      2.410199  
    1725A      2.415745  1726A      2.420128  1727A      2.424381  
    1728A      2.429084  1729A      2.434230  1730A      2.437240  
    1731A      2.441564  1732A      2.445433  1733A      2.447518  
    1734A      2.448118  1735A      2.455735  1736A      2.459771  
    1737A      2.465079  1738A      2.469967  1739A      2.472273  
    1740A      2.473843  1741A      2.475113  1742A      2.477258  
    1743A      2.480503  1744A      2.482273  1745A      2.484928  
    1746A      2.490404  1747A      2.492880  1748A      2.493926  
    1749A      2.496123  1750A      2.498287  1751A      2.498705  
    1752A      2.503756  1753A      2.506368  1754A      2.512596  
    1755A      2.514483  1756A      2.516259  1757A      2.519645  
    1758A      2.519848  1759A      2.522067  1760A      2.523966  
    1761A      2.526460  1762A      2.527666  1763A      2.531276  
    1764A      2.535677  1765A      2.537498  1766A      2.539342  
    1767A      2.543668  1768A      2.546146  1769A      2.548480  
    1770A      2.551624  1771A      2.560092  1772A      2.566015  
    1773A      2.571230  1774A      2.572331  1775A      2.577788  
    1776A      2.579216  1777A      2.579586  1778A      2.581647  
    1779A      2.584581  1780A      2.586490  1781A      2.588992  
    1782A      2.589974  1783A      2.591229  1784A      2.593798  
    1785A      2.596933  1786A      2.598083  1787A      2.601534  
    1788A      2.605501  1789A      2.606006  1790A      2.607959  
    1791A      2.609567  1792A      2.613676  1793A      2.615635  
    1794A      2.617588  1795A      2.622722  1796A      2.624331  
    1797A      2.626333  1798A      2.628643  1799A      2.630233  
    1800A      2.633637  1801A      2.635633  1802A      2.638385  
    1803A      2.653759  1804A      2.658415  1805A      2.659379  
    1806A      2.660854  1807A      2.661774  1808A      2.666694  
    1809A      2.672470  1810A      2.678007  1811A      2.682364  
    1812A      2.686936  1813A      2.696975  1814A      2.703485  
    1815A      2.707381  1816A      2.715052  1817A      2.716993  
    1818A      2.722739  1819A      2.725507  1820A      2.726577  
    1821A      2.730221  1822A      2.731901  1823A      2.736506  
    1824A      2.740491  1825A      2.742223  1826A      2.746635  
    1827A      2.751083  1828A      2.752721  1829A      2.757839  
    1830A      2.762574  1831A      2.766366  1832A      2.770447  
    1833A      2.772523  1834A      2.774437  1835A      2.779077  
    1836A      2.786066  1837A      2.790598  1838A      2.792217  
    1839A      2.797327  1840A      2.800777  1841A      2.804748  
    1842A      2.808110  1843A      2.809257  1844A      2.813321  
    1845A      2.817797  1846A      2.831324  1847A      2.841924  
    1848A      2.850189  1849A      2.851027  1850A      2.852853  
    1851A      2.857008  1852A      2.858078  1853A      2.861456  
    1854A      2.865234  1855A      2.878761  1856A      2.884366  
    1857A      2.893045  1858A      2.899896  1859A      2.902534  
    1860A      2.905655  1861A      2.908608  1862A      2.922930  
    1863A      2.928868  1864A      2.937376  1865A      2.941614  
    1866A      2.949991  1867A      2.954768  1868A      2.957039  
    1869A      2.966704  1870A      2.971184  1871A      2.980112  
    1872A      2.984401  1873A      2.986522  1874A      2.990378  
    1875A      2.993500  1876A      3.000168  1877A      3.003293  
    1878A      3.005745  1879A      3.013119  1880A      3.022773  
    1881A      3.043727  1882A      3.049963  1883A      3.051790  
    1884A      3.054852  1885A      3.059380  1886A      3.062211  
    1887A      3.074670  1888A      3.076311  1889A      3.079768  
    1890A      3.086648  1891A      3.087011  1892A      3.088386  
    1893A      3.092459  1894A      3.093486  1895A      3.094707  
    1896A      3.105252  1897A      3.106761  1898A      3.113769  
    1899A      3.118392  1900A      3.130727  1901A      3.131261  
    1902A      3.132468  1903A      3.149281  1904A      3.153511  
    1905A      3.159138  1906A      3.187267  1907A      3.189149  
    1908A      3.194972  1909A      3.196058  1910A      3.199703  
    1911A      3.202808  1912A      3.203947  1913A      3.206485  
    1914A      3.208725  1915A      3.211393  1916A      3.215310  
    1917A      3.225160  1918A      3.231545  1919A      3.243285  
    1920A      3.258292  1921A      3.261276  1922A      3.280703  
    1923A      3.288049  1924A      3.293995  1925A      3.301472  
    1926A      3.329147  1927A      3.347776  1928A      3.383779  
    1929A      3.391591  1930A      3.399466  1931A      3.404922  
    1932A      3.409043  1933A      3.412785  1934A      3.422242  
    1935A      3.434985  1936A      3.445217  1937A      3.454590  
    1938A      3.462132  1939A      3.465511  1940A      3.484257  
    1941A      3.504016  1942A      3.521823  1943A      3.527186  
    1944A      3.533901  1945A      3.539567  1946A      3.587721  
    1947A      3.626161  1948A      3.638065  1949A      3.645074  
    1950A      3.649310  1951A      3.655886  1952A      3.685454  
    1953A      3.696143  1954A      3.708079  1955A      3.714804  
    1956A      3.759299  1957A      3.765486  1958A      3.775506  
    1959A      3.779498  1960A      3.796186  1961A      3.829163  
    1962A      3.850499  1963A      3.859900  1964A      3.867411  
    1965A      3.877231  1966A      3.882037  1967A      3.916594  
    1968A      3.935495  1969A      3.946723  1970A      3.947943  
    1971A      3.986410  1972A      4.032108  1973A      4.100992  
    1974A      4.188910  1975A      4.253116  1976A      4.433919  
    1977A      4.522881  1978A      4.545149  

    Final Occupation by Irrep:
              A 
    DOCC [   326 ]
    NA   [   326 ]
    NB   [   326 ]

  @DF-RHF Final Energy: -3953.38854690827611

   => Energetics <=

    Nuclear Repulsion Energy =          18729.3561928925737448
    One-Electron Energy =              -42658.8548644859401975
    Two-Electron Energy =               19976.1101246850885218
    Total Energy =                      -3953.3885469082779309

Computation Completed


Properties will be evaluated at   0.000000,   0.000000,   0.000000 [a0]

Properties computed using the SCF density matrix


 Multipole Moments:

 ------------------------------------------------------------------------------------
     Multipole            Electronic (a.u.)      Nuclear  (a.u.)        Total (a.u.)
 ------------------------------------------------------------------------------------

 L = 1.  Multiply by 2.5417464519 to convert [e a0] to [Debye]
 Dipole X            :         -0.0209749            0.0004804           -0.0204945
 Dipole Y            :         -1.7122822            1.8866171            0.1743349
 Dipole Z            :        -12.3594644           14.5191685            2.1597042
 Magnitude           :                                                    2.1668260

 ------------------------------------------------------------------------------------

*** tstop() called on n2cn0412 at Sat Jan 27 00:38:30 2024
Module time:
	user time   =   33570.64 seconds =     559.51 minutes
	system time =    2067.20 seconds =      34.45 minutes
	total time  =       4669 seconds =      77.82 minutes
Total time:
	user time   =   33570.64 seconds =     559.51 minutes
	system time =    2067.20 seconds =      34.45 minutes
	total time  =       4669 seconds =      77.82 minutes

  //>>>>>>>>>>>>>>>>>>>>>>>>>>>>>>>>>>>//
  //            Monomer A HF           //
  //<<<<<<<<<<<<<<<<<<<<<<<<<<<<<<<<<<<//

   => Libint2 <=

    Primary   basis highest AM E, G, H:  5, 4, 3
    Auxiliary basis highest AM E, G, H:  6, 5, 4
    Onebody   basis highest AM E, G, H:  6, 5, 4
    Solid Harmonics ordering:            gaussian

*** tstart() called on n2cn0412
*** at Sat Jan 27 00:38:30 2024

   => Loading Basis Set <=

    Name: JUN-CC-PVDZ
    Role: ORBITAL
    Keyword: BASIS
    atoms 1-2, 4-5, 10, 17-34, 41-53, 56-70, 73-89, 92-104, 109-119, 122-130 entry C          line   164 file /opt/software/pc2/EB-SW/software/PSI4/1.9-foss-2022a/share/psi4/basis/jun-cc-pvdz.gbs 
    atoms 3, 6                                                               entry N          line   198 file /opt/software/pc2/EB-SW/software/PSI4/1.9-foss-2022a/share/psi4/basis/jun-cc-pvdz.gbs 
    atoms 7-9, 11-16, 35-40, 54-55, 71-72, 90-91, 105-108, 120-121, 131-136  entry H          line    36 file /opt/software/pc2/EB-SW/software/PSI4/1.9-foss-2022a/share/psi4/basis/jun-cc-pvdz.gbs 


         ---------------------------------------------------------
                                   SCF
               by Justin Turney, Rob Parrish, Andy Simmonett
                          and Daniel G. A. Smith
                              RHF Reference
                       16 Threads,  61035 MiB Core
         ---------------------------------------------------------

  ==> Geometry <==

    Molecular point group: c1
    Full point group: C1

    Geometry (in Angstrom), charge = 1, multiplicity = 1:

       Center              X                  Y                   Z               Mass       
    ------------   -----------------  -----------------  -----------------  -----------------
         C            0.680062820275    -1.215917226251     2.225057427543    12.000000000000
         C           -0.680508179725    -1.215533226251     2.223029427543    12.000000000000
         N           -1.085639179725     0.102790773749     2.222031427543    14.003074004430
[...]
    1606A      2.264443  1607A      2.270795  1608A      2.272669  
    1609A      2.277244  1610A      2.278316  1611A      2.279544  
    1612A      2.282957  1613A      2.285741  1614A      2.289929  
    1615A      2.291770  1616A      2.294891  1617A      2.295559  
    1618A      2.297292  1619A      2.298177  1620A      2.301999  
    1621A      2.307000  1622A      2.310609  1623A      2.313844  
    1624A      2.316800  1625A      2.320531  1626A      2.321887  
    1627A      2.325615  1628A      2.327394  1629A      2.329701  
    1630A      2.329857  1631A      2.330372  1632A      2.334233  
    1633A      2.336023  1634A      2.337033  1635A      2.338255  
    1636A      2.340066  1637A      2.341636  1638A      2.342982  
    1639A      2.345282  1640A      2.345443  1641A      2.346689  
    1642A      2.350759  1643A      2.356749  1644A      2.359817  
    1645A      2.362075  1646A      2.369443  1647A      2.375393  
    1648A      2.380893  1649A      2.382804  1650A      2.385434  
    1651A      2.393099  1652A      2.395803  1653A      2.397693  
    1654A      2.404257  1655A      2.412515  1656A      2.413590  
    1657A      2.416804  1658A      2.418330  1659A      2.421640  
    1660A      2.424432  1661A      2.427696  1662A      2.431373  
    1663A      2.434476  1664A      2.441459  1665A      2.445521  
    1666A      2.446802  1667A      2.451045  1668A      2.454806  
    1669A      2.459089  1670A      2.464465  1671A      2.465362  
    1672A      2.467958  1673A      2.470409  1674A      2.472593  
    1675A      2.474686  1676A      2.478231  1677A      2.484937  
    1678A      2.486159  1679A      2.488021  1680A      2.494726  
    1681A      2.495662  1682A      2.501236  1683A      2.506479  
    1684A      2.509398  1685A      2.511417  1686A      2.514622  
    1687A      2.518442  1688A      2.520019  1689A      2.523990  
    1690A      2.532750  1691A      2.535522  1692A      2.542470  
    1693A      2.543549  1694A      2.544445  1695A      2.546071  
    1696A      2.547742  1697A      2.553180  1698A      2.554424  
    1699A      2.555439  1700A      2.556950  1701A      2.561107  
    1702A      2.564526  1703A      2.567022  1704A      2.570164  
    1705A      2.571708  1706A      2.575672  1707A      2.577717  
    1708A      2.578677  1709A      2.581607  1710A      2.585681  
    1711A      2.586407  1712A      2.587592  1713A      2.591038  
    1714A      2.591606  1715A      2.593694  1716A      2.595935  
    1717A      2.596892  1718A      2.602911  1719A      2.603858  
    1720A      2.607959  1721A      2.610198  1722A      2.612552  
    1723A      2.617526  1724A      2.619939  1725A      2.622506  
    1726A      2.629448  1727A      2.631591  1728A      2.637660  
    1729A      2.638051  1730A      2.642978  1731A      2.645208  
    1732A      2.648334  1733A      2.652164  1734A      2.654822  
    1735A      2.656487  1736A      2.657773  1737A      2.658921  
    1738A      2.659864  1739A      2.664100  1740A      2.664614  
    1741A      2.668609  1742A      2.669847  1743A      2.672419  
    1744A      2.673924  1745A      2.676944  1746A      2.680253  
    1747A      2.681618  1748A      2.686391  1749A      2.689057  
    1750A      2.689410  1751A      2.691565  1752A      2.692684  
    1753A      2.695129  1754A      2.695708  1755A      2.697279  
    1756A      2.703189  1757A      2.705589  1758A      2.708181  
    1759A      2.709876  1760A      2.723899  1761A      2.725388  
    1762A      2.730387  1763A      2.732954  1764A      2.740872  
    1765A      2.746178  1766A      2.750512  1767A      2.755386  
    1768A      2.756219  1769A      2.761769  1770A      2.765486  
    1771A      2.771116  1772A      2.778624  1773A      2.784916  
    1774A      2.785712  1775A      2.791728  1776A      2.797979  
    1777A      2.799722  1778A      2.801157  1779A      2.804776  
    1780A      2.806806  1781A      2.810372  1782A      2.814889  
    1783A      2.821497  1784A      2.823181  1785A      2.824117  
    1786A      2.827961  1787A      2.830252  1788A      2.836035  
    1789A      2.839596  1790A      2.842028  1791A      2.844689  
    1792A      2.849104  1793A      2.857745  1794A      2.860821  
    1795A      2.863492  1796A      2.864661  1797A      2.868541  
    1798A      2.879660  1799A      2.880633  1800A      2.887310  
    1801A      2.888743  1802A      2.895787  1803A      2.898088  
    1804A      2.899272  1805A      2.910433  1806A      2.915408  
    1807A      2.923381  1808A      2.927520  1809A      2.928682  
    1810A      2.930651  1811A      2.936989  1812A      2.939733  
    1813A      2.948846  1814A      2.961673  1815A      2.969603  
    1816A      2.970194  1817A      2.972040  1818A      2.976020  
    1819A      2.980677  1820A      2.993539  1821A      3.007765  
    1822A      3.016266  1823A      3.023141  1824A      3.031507  
    1825A      3.035627  1826A      3.042982  1827A      3.048376  
    1828A      3.053941  1829A      3.055885  1830A      3.058331  
    1831A      3.061469  1832A      3.063771  1833A      3.064480  
    1834A      3.069585  1835A      3.071633  1836A      3.074302  
    1837A      3.078712  1838A      3.090949  1839A      3.110439  
    1840A      3.111721  1841A      3.119731  1842A      3.124761  
    1843A      3.125594  1844A      3.130464  1845A      3.135802  
    1846A      3.137063  1847A      3.143837  1848A      3.148219  
    1849A      3.151622  1850A      3.154875  1851A      3.156079  
    1852A      3.161105  1853A      3.164325  1854A      3.169569  
    1855A      3.171021  1856A      3.171107  1857A      3.175041  
    1858A      3.180655  1859A      3.183907  1860A      3.198252  
    1861A      3.202046  1862A      3.204313  1863A      3.222275  
    1864A      3.227190  1865A      3.244334  1866A      3.259250  
    1867A      3.263167  1868A      3.266742  1869A      3.271818  
    1870A      3.272638  1871A      3.274813  1872A      3.278646  
    1873A      3.282036  1874A      3.283939  1875A      3.286476  
    1876A      3.296801  1877A      3.302633  1878A      3.314292  
    1879A      3.319621  1880A      3.331765  1881A      3.348482  
    1882A      3.361420  1883A      3.362932  1884A      3.367857  
    1885A      3.375881  1886A      3.377708  1887A      3.399170  
    1888A      3.414785  1889A      3.427724  1890A      3.436300  
    1891A      3.452040  1892A      3.465632  1893A      3.470198  
    1894A      3.479666  1895A      3.485799  1896A      3.491212  
    1897A      3.493854  1898A      3.506103  1899A      3.507818  
    1900A      3.524031  1901A      3.528056  1902A      3.536707  
    1903A      3.542385  1904A      3.550037  1905A      3.559306  
    1906A      3.576928  1907A      3.582375  1908A      3.597649  
    1909A      3.602536  1910A      3.611535  1911A      3.628975  
    1912A      3.651153  1913A      3.659718  1914A      3.704686  
    1915A      3.712206  1916A      3.718158  1917A      3.729674  
    1918A      3.736986  1919A      3.756363  1920A      3.763647  
    1921A      3.776542  1922A      3.779243  1923A      3.783172  
    1924A      3.796633  1925A      3.808444  1926A      3.822117  
    1927A      3.850603  1928A      3.868073  1929A      3.872234  
    1930A      3.881752  1931A      3.901446  1932A      3.906858  
    1933A      3.932625  1934A      3.934093  1935A      3.944122  
    1936A      3.954843  1937A      3.956457  1938A      3.973988  
    1939A      4.022015  1940A      4.027924  1941A      4.030367  
    1942A      4.030548  1943A      4.047464  1944A      4.099667  
    1945A      4.122479  1946A      4.183167  1947A      4.261358  
    1948A      4.300868  1949A      4.427692  1950A      4.440375  
    1951A      4.492220  1952A      4.591694  1953A      4.635000  
    1954A      4.705188  1955A      4.868093  1956A      4.946942  
    1957A      5.020212  1958A      5.048901  1959A      5.081788  
    1960A      5.122826  1961A      5.156970  1962A      5.176948  
    1963A      5.203831  1964A      5.260211  1965A      5.298752  
    1966A      5.333995  1967A      5.474630  1968A      5.510595  
    1969A      5.842441  1970A      5.885837  1971A      6.112058  
    1972A     18.251370  1973A     18.536654  1974A     18.567530  
    1975A     18.694952  1976A     19.042694  1977A     25.388107  
    1978A     25.428695  

    Final Occupation by Irrep:
              A 
    DOCC [   300 ]
    NA   [   300 ]
    NB   [   300 ]

  @DF-RHF Final Energy: -3650.34422513278423

   => Energetics <=

    Nuclear Repulsion Energy =          15611.4211649754324753
    One-Electron Energy =              -36072.2531769526685821
    Two-Electron Energy =               16810.4877868444527849
    Total Energy =                      -3650.3442251327833219

Computation Completed


Properties will be evaluated at   0.000000,   0.000000,   0.000000 [a0]

Properties computed using the SCF density matrix


 Multipole Moments:

 ------------------------------------------------------------------------------------
     Multipole            Electronic (a.u.)      Nuclear  (a.u.)        Total (a.u.)
 ------------------------------------------------------------------------------------

 L = 1.  Multiply by 2.5417464519 to convert [e a0] to [Debye]
 Dipole X            :         -0.0003949            0.0002112           -0.0001837
 Dipole Y            :          0.0003697           -0.0044281           -0.0040583
 Dipole Z            :        207.4735138         -207.4710444            0.0024695
 Magnitude           :                                                    0.0047542

 ------------------------------------------------------------------------------------

*** tstop() called on n2cn0412 at Sat Jan 27 02:18:45 2024
Module time:
	user time   =   20394.11 seconds =     339.90 minutes
	system time =    1362.65 seconds =      22.71 minutes
	total time  =       3828 seconds =      63.80 minutes
Total time:
	user time   =   60067.81 seconds =    1001.13 minutes
	system time =    3961.30 seconds =      66.02 minutes
	total time  =      10684 seconds =     178.07 minutes
  Constructing Basis Sets for SAPT...

   => Loading Basis Set <=

    Name: (JUN-CC-PVDZ AUX)
    Role: RIFIT
    Keyword: DF_BASIS_SAPT
    atoms 1-2, 4-5, 10, 17-34, 41-53, 56-70, 73-89, 92-104, 109-119, 122-130 entry C          line   100 file /opt/software/pc2/EB-SW/software/PSI4/1.9-foss-2022a/share/psi4/basis/jun-cc-pvdz-ri.gbs 
    atoms 3, 6                                                               entry N          line   144 file /opt/software/pc2/EB-SW/software/PSI4/1.9-foss-2022a/share/psi4/basis/jun-cc-pvdz-ri.gbs 
    atoms 7-9, 11-16, 35-40, 54-55, 71-72, 90-91, 105-108, 120-121, 131-136  entry H          line    30 file /opt/software/pc2/EB-SW/software/PSI4/1.9-foss-2022a/share/psi4/basis/jun-cc-pvdz-ri.gbs 

   => Loading Basis Set <=

    Name: (JUN-CC-PVDZ AUX)
    Role: JKFIT
    Keyword: DF_BASIS_ELST
    atoms 1-2, 4-5, 10, 17-34, 41-53, 56-70, 73-89, 92-104, 109-119, 122-130 entry C          line   146 file /opt/software/pc2/EB-SW/software/PSI4/1.9-foss-2022a/share/psi4/basis/jun-cc-pvdz-jkfit.gbs 
    atoms 3, 6                                                               entry N          line   202 file /opt/software/pc2/EB-SW/software/PSI4/1.9-foss-2022a/share/psi4/basis/jun-cc-pvdz-jkfit.gbs 
    atoms 7-9, 11-16, 35-40, 54-55, 71-72, 90-91, 105-108, 120-121, 131-136  entry H          line    70 file /opt/software/pc2/EB-SW/software/PSI4/1.9-foss-2022a/share/psi4/basis/jun-cc-pvdz-jkfit.gbs 


  //>>>>>>>>>>>>>>>>>>>>>>>>>>>>>>>>>>>//
  //               SSAPT0              //
  //<<<<<<<<<<<<<<<<<<<<<<<<<<<<<<<<<<<//


*** tstart() called on n2cn0412
*** at Sat Jan 27 02:18:47 2024

        SAPT0  
    Ed Hohenstein
     6 June 2009

      Orbital Information
  --------------------------
    NSO        =      2019
    NMO        =      1978
    NRI        =      7157
    NRI (Elst) =      8896
    NOCC A     =        26
    NOCC B     =       300
    FOCC A     =         7
    FOCC B     =        96
    NVIR A     =      1952
    NVIR B     =      1678

    Elst10,r            =    -0.193701173110 [Eh]
    Exch10              =     0.522680797861 [Eh]
    Exch10 (S^2)        =     0.496654508639 [Eh]

    Iter     Energy [mEh]          dE [mEh]         Residual      Time [s]
       1     -97.37567263      97.375672634      57.967717197           342
       2    -120.62522642      23.249553790      19.353185780           995
       3    -124.13960306       3.514376633       4.452593742          1387
       4    -123.93189137      -0.207711689       1.762055075          1701
       5    -123.72569622      -0.206195144       0.310910040          2052
       6    -123.73481484       0.009118617       0.154467957          2422
       7    -123.74557406       0.010759214       0.046931490          2668
       8    -123.74331958      -0.002254475       0.017707706          2987
       9    -123.74301348      -0.000306102       0.006343753          3374
      10    -123.74326195       0.000248472       0.001821414          3839
      11    -123.74326940       0.000007446       0.000469985          4141
      12    -123.74325616      -0.000013232       0.000180653          4461
      13    -123.74325468      -0.000001482       0.000047722          4765
      14    -123.74325634       0.000001653       0.000016860          5174
      15    -123.74325627      -0.000000070       0.000006674          5564
      16    -123.74325608      -0.000000185       0.000002544          5972
      17    -123.74325610       0.000000019       0.000000920          6243

    CHF Iterations converged


    Iter     Energy [mEh]          dE [mEh]         Residual      Time [s]
       1    -153.06570219     153.065702191     133.148449508           323
       2    -144.84510696      -8.220595234      34.788777136           866
       3    -159.66850631      14.823399353      15.287530323          1304
       4    -163.15864620       3.490139888       3.491291632          1647
       5    -163.00813828      -0.150507918       1.680504076          2503
       6    -162.75817639      -0.249961892       0.696625068          3040
       7    -162.75211051      -0.006065880       0.440001566          3803
       8    -162.80631310       0.054202594       0.204280115          4526
       9    -162.80696284       0.000649744       0.130646820          5126
      10    -162.79680143      -0.010161411       0.077265355          5529
      11    -162.79610354      -0.000697889       0.045967100          5965
      12    -162.79898486       0.002881315       0.026822636          6355
      13    -162.79984228       0.000857418       0.015001056          6904
      14    -162.79897755      -0.000864731       0.009319034          7426
      15    -162.79874741      -0.000230131       0.005454058          8025
      16    -162.79891174       0.000164329       0.002986220          8567
      17    -162.79904564       0.000133901       0.001442854          9029
      18    -162.79898624      -0.000059406       0.000836785          9576
      19    -162.79895463      -0.000031607       0.000383132         10159
      20    -162.79896569       0.000011056       0.000209476         10610
      21    -162.79897420       0.000008508       0.000098245         10946
      22    -162.79897330      -0.000000895       0.000050901         11290
      23    -162.79897110      -0.000002199       0.000026113         11598
      24    -162.79897106      -0.000000042       0.000014237         12122
      25    -162.79897154       0.000000479       0.000007688         12567
      26    -162.79897165       0.000000109       0.000003462         13020
      27    -162.79897155      -0.000000101       0.000001668         13586
      28    -162.79897151      -0.000000040       0.000000713         14140

    CHF Iterations converged

    Ind20,r (A<-B)      =    -0.123743256099 [Eh]
    Ind20,r (B<-A)      =    -0.162798971507 [Eh]
    Ind20,r             =    -0.286542227606 [Eh]
    Exch-Ind20,r (A<-B) =     0.106160777467 [Eh]
    Exch-Ind20,r (B<-A) =     0.115239928261 [Eh]
    Exch-Ind20,r        =     0.221400705728 [Eh]
    Disp20              =    -0.187601320566 [Eh]
    Disp20 (SS)         =    -0.093800660283 [Eh]
    Disp20 (OS)         =    -0.093800660283 [Eh]
    Exch-Disp20         =     0.036190689334 [Eh]
    Exch-Disp20 (SS)    =     0.021380591949 [Eh]
    Exch-Disp20 (OS)    =     0.014810097385 [Eh]

    SAPT Results 
  --------------------------------------------------------------------------------------------------------
    Electrostatics               -193.70117311 [mEh]    -121.54932121 [kcal/mol]    -508.56235994 [kJ/mol]
      Elst10,r                   -193.70117311 [mEh]    -121.54932121 [kcal/mol]    -508.56235994 [kJ/mol]

    Exchange                      522.68079786 [mEh]     327.98715242 [kcal/mol]    1372.29824572 [kJ/mol]
      Exch10                      522.68079786 [mEh]     327.98715242 [kcal/mol]    1372.29824572 [kJ/mol]
      Exch10(S^2)                 496.65450864 [mEh]     311.65540937 [kcal/mol]    1303.96623278 [kJ/mol]

    Induction                     -72.02541833 [mEh]     -45.19663236 [kcal/mol]    -189.10270978 [kJ/mol]
      Ind20,r                    -286.54222761 [mEh]    -179.80796246 [kcal/mol]    -752.31651493 [kJ/mol]
      Exch-Ind20,r                221.40070573 [mEh]     138.93104035 [kcal/mol]     581.28747280 [kJ/mol]
      delta HF,r (2)               -6.88389646 [mEh]      -4.31971024 [kcal/mol]     -18.07366765 [kJ/mol]

    Dispersion                   -151.41063123 [mEh]     -95.01160553 [kcal/mol]    -397.52855753 [kJ/mol]
      Disp20                     -187.60132057 [mEh]    -117.72160595 [kcal/mol]    -492.54719929 [kJ/mol]
      Exch-Disp20                  36.19068933 [mEh]      22.71000042 [kcal/mol]      95.01864176 [kJ/mol]
      Disp20 (SS)                 -93.80066028 [mEh]     -58.86080297 [kcal/mol]    -246.27359964 [kJ/mol]
      Disp20 (OS)                 -93.80066028 [mEh]     -58.86080297 [kcal/mol]    -246.27359964 [kJ/mol]
      Exch-Disp20 (SS)             21.38059195 [mEh]      13.41652400 [kcal/mol]      56.13473643 [kJ/mol]
      Exch-Disp20 (OS)             14.81009739 [mEh]       9.29347642 [kcal/mol]      38.88390533 [kJ/mol]

  Total HF                        256.95420642 [mEh]     161.24119885 [kcal/mol]     674.63317601 [kJ/mol]
  Total SAPT0                     105.54357519 [mEh]      66.22959333 [kcal/mol]     277.10461848 [kJ/mol]

  Special recipe for scaled SAPT0 (see Manual):
    Electrostatics sSAPT0        -193.70117311 [mEh]    -121.54932121 [kcal/mol]    -508.56235994 [kJ/mol]
    Exchange sSAPT0               522.68079786 [mEh]     327.98715242 [kcal/mol]    1372.29824572 [kJ/mol]
    Induction sSAPT0              -35.36327365 [mEh]     -22.19078924 [kcal/mol]     -92.84626219 [kJ/mol]
    Dispersion sSAPT0            -145.41774930 [mEh]     -91.25101534 [kcal/mol]    -381.79424820 [kJ/mol]
  Total sSAPT0                    148.19860179 [mEh]      92.99602663 [kcal/mol]     389.09537540 [kJ/mol]
  --------------------------------------------------------------------------------------------------------

*** tstop() called on n2cn0412 at Sat Jan 27 23:22:15 2024
Module time:
	user time   =   77070.42 seconds =    1284.51 minutes
	system time =    4574.55 seconds =      76.24 minutes
	total time  =      75808 seconds =    1263.47 minutes
Total time:
	user time   =  137139.76 seconds =    2285.66 minutes
	system time =    8535.85 seconds =     142.26 minutes
	total time  =      86494 seconds =    1441.57 minutes

    Psi4 stopped on: Saturday, 27 January 2024 11:22PM
    Psi4 wall time for execution: 1 day, 0:01:35.21

*** Psi4 exiting successfully. Buy a developer a beer!
