
    -----------------------------------------------------------------------
          Psi4: An Open-Source Ab Initio Electronic Structure Package
                               Psi4 1.9 release

                         Git: Rev {} zzzzzzz 


    D. G. A. Smith, L. A. Burns, A. C. Simmonett, R. M. Parrish,
    M. C. Schieber, R. Galvelis, P. Kraus, H. Kruse, R. Di Remigio,
    A. Alenaizan, A. M. James, S. Lehtola, J. P. Misiewicz, M. Scheurer,
    R. A. Shaw, J. B. Schriber, Y. Xie, Z. L. Glick, D. A. Sirianni,
    J. S. O'Brien, J. M. Waldrop, A. Kumar, E. G. Hohenstein,
    B. P. Pritchard, B. R. Brooks, H. F. Schaefer III, A. Yu. Sokolov,
    K. Patkowski, A. E. DePrince III, U. Bozkaya, R. A. King,
    F. A. Evangelista, J. M. Turney, T. D. Crawford, C. D. Sherrill,
    J. Chem. Phys. 152(18) 184108 (2020). https://doi.org/10.1063/5.0006002

                            Additional Code Authors
    E. T. Seidl, C. L. Janssen, E. F. Valeev, M. L. Leininger,
    J. F. Gonthier, R. M. Richard, H. R. McAlexander, M. Saitow, X. Wang,
    P. Verma, M. H. Lechner, A. Jiang, S. Behnle, A. G. Heide,
    M. F. Herbst, and D. L. Poole

             Previous Authors, Complete List of Code Contributors,
                       and Citations for Specific Modules
    https://github.com/psi4/psi4/blob/master/codemeta.json
    https://github.com/psi4/psi4/graphs/contributors
    http://psicode.org/psi4manual/master/introduction.html#citing-psifour

    -----------------------------------------------------------------------


    Psi4 started on: Monday, 22 January 2024 09:18AM

    Process ID: 1091907
    Host:       d-3-8-3
    PSIDATADIR: /home/gridsan/tfroembgen/.conda/envs/psi4test/share/psi4
    Memory:     500.0 MiB
    Threads:    12
    
  ==> Input File <==

--------------------------------------------------------------------------
memory 32 GB # how much memory is available ! Depends on the nodes/cores !

molecule dimer {
# monomer A
-1 1    # Charge and multiplicity
B -1.977592e-04  2.742729e-04 -4.999966
F  1.123153e-16  1.430594e-17 -3.587181
F  1.147860e+00  6.757812e-01 -5.471107
F  1.191806e-02 -1.332011e+00 -5.470905
F -1.159666e+00  6.560735e-01 -5.470826
--
# monomer B
0 1     # Charge and multiplicity
C   1.22531237526482      0.70753866091955      0.00613762728373
C   1.22532433589282     -0.70753852257020     -0.00619318228664
C   -0.00000567409046      1.41496628609039     -0.00672680580738
C   2.45644923379077      1.41832825917820      0.00902448468363
C   0.00001130712078     -1.41497612663474      0.00347275151708
C   -1.22530046906674      0.70754574598412      0.00838914760619
C   2.45643823516184     -1.41832293188077     -0.00843833914343
C   -0.00000085313587      2.83680140328112     -0.00913035594137
C   3.68182717731192      0.70931832800114     -0.00808954934571
C   2.45512052870677      2.83422403348893     -0.00819210630633
C   3.68182158506039     -0.70933346742900      0.00798293467272
C   -1.22531311884624     -0.70752714354401     -0.00512042085974
C   1.22670006104402      3.54346985599427      0.00816696660346
C   0.00000526469929     -2.83678176723568      0.00832091913869
C   -2.45643555300670      1.41831729028492      0.00842454345199
C   2.45512389762097     -2.83422965658853      0.00783102630520
C   -1.22671388474763      3.54346943575023      0.00827029982280
C   4.91451777504333      1.42717324448953     -0.00160886631602
C   3.69315067131765      3.54279566454522     -0.00155906667985
C   -2.45643712022637     -1.41831290883911     -0.00846337726810
C   1.22670532178455     -3.54347386990643     -0.00780316414624
C   -2.45512491866593      2.83421703463423     -0.00818572995999
C   4.91452486062398     -1.42718653794377      0.00136387641845
C   1.22142509354026      4.97013443726031      0.00150231067809
C   4.89300870916237      2.82518837202648     -0.00039219795739
C   -1.22669652864725     -3.54347062507680     -0.00753595973677
C   -3.68181849668397      0.70932533873199     -0.00807686886569
C   3.69314758099218     -3.54280096939050      0.00148176697923
C   -1.22143177215231      4.97012866986289      0.00168580605083
C   6.13477145276790      0.68054831910577     -0.00083909176631
C   3.65678936045204      4.97295361556775     -0.00065042889723
C   -2.45512642789169     -2.83421472106065      0.00758666850712
C   -3.68181869921921     -0.70932533146830      0.00810055625144
C   4.89301309775526     -2.82519973363176      0.00021895393805
C   -0.00000059327114      5.65044773803267      0.00045449734393
C   6.13477559217374     -0.68055448207492      0.00042622874941
C   2.47813196269732      5.65357712333155      0.00063835075260
C   1.22142288457925     -4.97012668293268     -0.00129718634452
C   -3.69316190412301      3.54279732619245     -0.00139355922051
C   -1.22142804110313     -4.97011793159564     -0.00140994817719
C   -4.91452132810043      1.42717581899491     -0.00153192130862
C   3.65678749952045     -4.97295485423912      0.00080007163680
C   -2.47813805026426      5.65357479452875      0.00092287576113
C   -3.69314125872231     -3.54278984697859      0.00136564082345
C   -4.91451200321153     -1.42718062802730      0.00139857359209
C   -0.00000552908399     -5.65043791501335      0.00005899322272
C   -4.89302000425900      2.82518897091939     -0.00040227981744
C   2.47812647313991     -5.65357317188818     -0.00029052915548
C   -3.65679823041642      4.97295655404175     -0.00047374852278
C   -4.89299899901461     -2.82519139505969      0.00006491824035
C   -2.47812801824129     -5.65356579800621     -0.00056571680280
C   -6.13477002348955      0.68054913825639     -0.00086464346868
C   -3.65678835334731     -4.97294365097028      0.00058578382008
C   -6.13476456307132     -0.68055354348201      0.00040575295444
H   5.83528897565761      3.36927626695423      0.00396712770529
H   7.07385965258860      1.22821762089947     -0.00037744837300
H   4.60066374401555      5.51238117445323     -0.00014522814529
H   5.83528386714679     -3.36930568472863     -0.00423551337640
H   -0.00001167146422      6.73853104613662     -0.00389474766392
H   7.07386165167227     -1.22822657074368     -0.00008250934481
H   2.47331421164041      6.74068466339473      0.00017162982210
H   4.60066897122302     -5.51237575717576      0.00039007446835
H   -2.47331820069565      6.74068209160650      0.00047297644710
H   -0.00000978838621     -6.73852780445195      0.00458867820736
H   -5.83530143450167      3.36927132229595      0.00410314985360
H   2.47330840367253     -6.74068500242887      0.00027980126949
H   -4.60067436136587      5.51237839860371      0.00002010017831
H   -5.83527902699321     -3.36928859177951     -0.00451481925734
H   -2.47329986759855     -6.74067870613986     -0.00016951527498
H   -7.07385728692578      1.22822084484047     -0.00046143985387
H   -4.60067330624313     -5.51236229778631      0.00021776644566
H   -7.07385645456741     -1.22822025997701     -0.00017736581114

    units angstrom      # Angstroms are the default
    no_reorient         # Geometry fixed, default
    symmetry c1         # C1 symmetry, default
}

set {
    scf_type DF         # Density fitting, faster than exact integrals
    freeze_core True    # Freeze core electrons
    basis jun-cc-pVDZ   # Jun-cc-pVDZ basis set, recommended for sSAPT0 in https://doi.org/10.1063/1.4867135
}

energy('ssapt0')        # Compute sSAPT0 energy, includes also SAPT0
--------------------------------------------------------------------------

  Memory set to  29.802 GiB by Python driver.

Scratch directory: /state/partition1/slurm_tmp/24790922.4294967291.0/
   => Loading Basis Set <=

    Name: JUN-CC-PVDZ
    Role: ORBITAL
    Keyword: BASIS
    atoms 1     entry B          line   130 file /home/gridsan/tfroembgen/.conda/envs/psi4test/share/psi4/basis/jun-cc-pvdz.gbs 
    atoms 2-5   entry F          line   266 file /home/gridsan/tfroembgen/.conda/envs/psi4test/share/psi4/basis/jun-cc-pvdz.gbs 
    atoms 6-59  entry C          line   164 file /home/gridsan/tfroembgen/.conda/envs/psi4test/share/psi4/basis/jun-cc-pvdz.gbs 
    atoms 60-77 entry H          line    36 file /home/gridsan/tfroembgen/.conda/envs/psi4test/share/psi4/basis/jun-cc-pvdz.gbs 

   => Loading Basis Set <=

    Name: JUN-CC-PVDZ
    Role: ORBITAL
    Keyword: BASIS
    atoms 1     entry B          line   130 file /home/gridsan/tfroembgen/.conda/envs/psi4test/share/psi4/basis/jun-cc-pvdz.gbs 
    atoms 2-5   entry F          line   266 file /home/gridsan/tfroembgen/.conda/envs/psi4test/share/psi4/basis/jun-cc-pvdz.gbs 
    atoms 6-59  entry C          line   164 file /home/gridsan/tfroembgen/.conda/envs/psi4test/share/psi4/basis/jun-cc-pvdz.gbs 
    atoms 60-77 entry H          line    36 file /home/gridsan/tfroembgen/.conda/envs/psi4test/share/psi4/basis/jun-cc-pvdz.gbs 


  //>>>>>>>>>>>>>>>>>>>>>>>>>>>>>>>>>>>//
  //              Dimer HF             //
  //<<<<<<<<<<<<<<<<<<<<<<<<<<<<<<<<<<<//

   => Libint2 <=

    Primary   basis highest AM E, G, H:  7, 7, 4
    Auxiliary basis highest AM E, G, H:  7, 7, 5
    Onebody   basis highest AM E, G, H:  7, 7, 5
    Solid Harmonics ordering:            gaussian

*** tstart() called on d-3-8-3
*** at Mon Jan 22 09:18:16 2024

   => Loading Basis Set <=

    Name: JUN-CC-PVDZ
    Role: ORBITAL
    Keyword: BASIS
    atoms 1     entry B          line   130 file /home/gridsan/tfroembgen/.conda/envs/psi4test/share/psi4/basis/jun-cc-pvdz.gbs 
    atoms 2-5   entry F          line   266 file /home/gridsan/tfroembgen/.conda/envs/psi4test/share/psi4/basis/jun-cc-pvdz.gbs 
    atoms 6-59  entry C          line   164 file /home/gridsan/tfroembgen/.conda/envs/psi4test/share/psi4/basis/jun-cc-pvdz.gbs 
    atoms 60-77 entry H          line    36 file /home/gridsan/tfroembgen/.conda/envs/psi4test/share/psi4/basis/jun-cc-pvdz.gbs 


         ---------------------------------------------------------
                                   SCF
               by Justin Turney, Rob Parrish, Andy Simmonett
                          and Daniel G. A. Smith
                              RHF Reference
                       12 Threads,  30517 MiB Core
         ---------------------------------------------------------

  ==> Geometry <==

    Molecular point group: c1
    Full point group: C1

    Geometry (in Angstrom), charge = -1, multiplicity = 1:

       Center              X                  Y                   Z               Mass       
    ------------   -----------------  -----------------  -----------------  -----------------
         B           -0.000198161052     0.000273808717    -4.422365449421    11.009305360000
         F           -0.000000401852    -0.000000464183    -3.009580449421    18.998403162730
         F            1.147859598148     0.675780735817    -4.893506449421    18.998403162730
         F            0.011917658148    -1.332011464183    -4.893304449421    18.998403162730
         F           -1.159666401852     0.656073035817    -4.893225449421    18.998403162730
         C            1.225311973413     0.707538196736     0.583738177862    12.000000000000
         C            1.225323934041    -0.707538986754     0.571407368292    12.000000000000
         C           -0.000006075942     1.414965821907     0.570873744771    12.000000000000
         C            2.456448831939     1.418327794995     0.586625035262    12.000000000000
         C            0.000010905269    -1.414976590818     0.581073302096    12.000000000000
         C           -1.225300870919     0.707545281801     0.585989698185    12.000000000000
         C            2.456437833310    -1.418323396064     0.569162211435    12.000000000000
         C           -0.000001254988     2.836800939098     0.568470194637    12.000000000000
         C            3.681826775460     0.709317863818     0.569511001233    12.000000000000
         C            2.455120126855     2.834223569306     0.569408444272    12.000000000000
         C            3.681821183209    -0.709333931612     0.585583485251    12.000000000000
         C           -1.225313520698    -0.707527607727     0.572480129719    12.000000000000
         C            1.226699659192     3.543469391811     0.585767517182    12.000000000000
         C            0.000004862847    -2.836782231419     0.585921469717    12.000000000000
         C           -2.456435954859     1.418316826102     0.586025094031    12.000000000000
         C            2.455123495769    -2.834230120772     0.585431576884    12.000000000000
         C           -1.226714286599     3.543468971567     0.585870850402    12.000000000000
         C            4.914517373191     1.427172780306     0.575991684263    12.000000000000
         C            3.693150269466     3.542795200362     0.576041483899    12.000000000000
         C           -2.456437522078    -1.418313373022     0.569137173311    12.000000000000
         C            1.226704919933    -3.543474334090     0.569797386432    12.000000000000
         C           -2.455125320518     2.834216570451     0.569414820619    12.000000000000
         C            4.914524458772    -1.427187002127     0.578964426997    12.000000000000
         C            1.221424691688     4.970133973077     0.579102861257    12.000000000000
         C            4.893008307311     2.825187907843     0.577208352621    12.000000000000
         C           -1.226696930499    -3.543471089260     0.570064590842    12.000000000000
         C           -3.681818898536     0.709324874549     0.569523681713    12.000000000000
         C            3.693147179140    -3.542801433574     0.579082317558    12.000000000000
         C           -1.221432174004     4.970128205680     0.579286356630    12.000000000000
         C            6.134771050916     0.680547854922     0.576761458812    12.000000000000
         C            3.656788958600     4.972953151384     0.576950121681    12.000000000000
         C           -2.455126829744    -2.834215185244     0.585187219086    12.000000000000
         C           -3.681819101071    -0.709325795652     0.585701106830    12.000000000000
         C            4.893012695903    -2.825200197815     0.577819504517    12.000000000000
         C           -0.000000995123     5.650447273849     0.578055047923    12.000000000000
         C            6.134775190322    -0.680554946258     0.578026779328    12.000000000000
         C            2.478131560845     5.653576659148     0.578238901331    12.000000000000
         C            1.221422482727    -4.970127147116     0.576303364234    12.000000000000
         C           -3.693162305975     3.542796862009     0.576206991358    12.000000000000
         C           -1.221428442955    -4.970118395779     0.576190602402    12.000000000000
         C           -4.914521729952     1.427175354812     0.576068629270    12.000000000000
         C            3.656787097669    -4.972955318422     0.578400622216    12.000000000000
         C           -2.478138452116     5.653574330345     0.578523426340    12.000000000000
         C           -3.693141660574    -3.542790311162     0.578966191402    12.000000000000
         C           -4.914512405063    -1.427181092211     0.578999124171    12.000000000000
         C           -0.000005930936    -5.650438379197     0.577659543801    12.000000000000
         C           -4.893020406111     2.825188506736     0.577198270761    12.000000000000
         C            2.478126071288    -5.653573636072     0.577310021423    12.000000000000
         C           -3.656798632268     4.972956089858     0.577126802056    12.000000000000
         C           -4.892999400866    -2.825191859243     0.577665468819    12.000000000000
         C           -2.478128420093    -5.653566262190     0.577034833776    12.000000000000
         C           -6.134770425341     0.680548674073     0.576735907110    12.000000000000
         C           -3.656788755199    -4.972944115154     0.578186334399    12.000000000000
         C           -6.134764964923    -0.680554007665     0.578006303533    12.000000000000
         H            5.835288573806     3.369275802771     0.581567678284     1.007825032230
         H            7.073859250737     1.228217156716     0.577223102206     1.007825032230
         H            4.600663342164     5.512380710270     0.577455322433     1.007825032230
         H            5.835283465295    -3.369306148912     0.573365037202     1.007825032230
         H           -0.000012073316     6.738530581953     0.573705802915     1.007825032230
         H            7.073861249820    -1.228227034927     0.577518041234     1.007825032230
         H            2.473313809789     6.740684199211     0.577772180401     1.007825032230
         H            4.600668569371    -5.512376221359     0.577990625047     1.007825032230
         H           -2.473318602548     6.740681627423     0.578073527026     1.007825032230
         H           -0.000010190238    -6.738528268635     0.582189228786     1.007825032230
         H           -5.835301836354     3.369270858113     0.581703700432     1.007825032230
         H            2.473308001821    -6.740685466612     0.577880351848     1.007825032230
         H           -4.600674763218     5.512377934420     0.577620650757     1.007825032230
         H           -5.835279428845    -3.369289055963     0.573085731321     1.007825032230
         H           -2.473300269450    -6.740679170323     0.577431035304     1.007825032230
         H           -7.073857688778     1.228220380657     0.577139110725     1.007825032230
         H           -4.600673708095    -5.512362761970     0.577818317024     1.007825032230
         H           -7.073856856419    -1.228220724160     0.577423184768     1.007825032230

  Running in c1 symmetry.

  Rotational constants: A =      0.00175  B =      0.00175  C =      0.00110 [cm^-1]
  Rotational constants: A =     52.50233  B =     52.49595  C =     33.02251 [MHz]
  Nuclear repulsion = 7732.514607757366321

  Charge       = -1
  Multiplicity = 1
  Electrons    = 384
  Nalpha       = 192
  Nbeta        = 192

  ==> Algorithm <==

  SCF Algorithm Type is DF.
  DIIS enabled.
  MOM disabled.
  Fractional occupation disabled.
  Guess Type is SAD.
  Energy threshold   = 1.00e-08
  Density threshold  = 1.00e-08
  Integral threshold = 1.00e-12

  ==> Primary Basis <==

  Basis Set: JUN-CC-PVDZ
    Blend: JUN-CC-PVDZ
    Number of shells: 526
    Number of basis functions: 1152
    Number of Cartesian functions: 1211
    Spherical Harmonics?: true
    Max angular momentum: 2

   => Loading Basis Set <=

    Name: (JUN-CC-PVDZ AUX)
    Role: JKFIT
    Keyword: DF_BASIS_SCF
    atoms 1     entry B          line    90 file /home/gridsan/tfroembgen/.conda/envs/psi4test/share/psi4/basis/jun-cc-pvdz-jkfit.gbs 
    atoms 2-5   entry F          line   314 file /home/gridsan/tfroembgen/.conda/envs/psi4test/share/psi4/basis/jun-cc-pvdz-jkfit.gbs 
    atoms 6-59  entry C          line   146 file /home/gridsan/tfroembgen/.conda/envs/psi4test/share/psi4/basis/jun-cc-pvdz-jkfit.gbs 
    atoms 60-77 entry H          line    70 file /home/gridsan/tfroembgen/.conda/envs/psi4test/share/psi4/basis/jun-cc-pvdz-jkfit.gbs 

  ==> Integral Setup <==

  ==> DiskDFJK: Density-Fitted J/K Matrices <==

    J tasked:                  Yes
    K tasked:                  Yes
    wK tasked:                  No
    OpenMP threads:             12
    Integrals threads:          12
    Memory [MiB]:            22888
    Algorithm:                Core
    Integral Cache:           SAVE
    Schwarz Cutoff:          1E-12
    Fitting Condition:       1E-10

   => Auxiliary Basis Set <=

  Basis Set: (JUN-CC-PVDZ AUX)
    Blend: JUN-CC-PVDZ-JKFIT
    Number of shells: 1755
    Number of basis functions: 5075
    Number of Cartesian functions: 5819
    Spherical Harmonics?: true
    Max angular momentum: 3

  Minimum eigenvalue in the overlap matrix is 8.3770407615E-10.
  Reciprocal condition number of the overlap matrix is 3.6880208929E-11.
    Using canonical orthogonalization.
  Overall, 14 of 1152 possible MOs eliminated.


  ==> Pre-Iterations <==

  SCF Guess: Superposition of Atomic Densities via on-the-fly atomic UHF (no occupation information).

   -------------------------
    Irrep   Nso     Nmo    
   -------------------------
     A       1152    1138 
   -------------------------
    Total    1152    1138
   -------------------------

  ==> Iterations <==

                           Total Energy        Delta E     RMS |[F,P]|

   @DF-RHF iter SAD: -2483.27927098878672   -2.48328e+03   0.00000e+00 
   @DF-RHF iter   1: -2477.61143921300481    5.66783e+00   1.10419e-03 ADIIS/DIIS
   @DF-RHF iter   2: -2478.50536349061395   -8.93924e-01   4.84025e-04 ADIIS/DIIS
   @DF-RHF iter   3: -2478.64319782222537   -1.37834e-01   1.36882e-04 ADIIS/DIIS
   @DF-RHF iter   4: -2478.65696922405778   -1.37714e-02   6.03397e-05 DIIS
   @DF-RHF iter   5: -2478.65998356014234   -3.01434e-03   1.71005e-05 DIIS
   @DF-RHF iter   6: -2478.66029590834432   -3.12348e-04   5.38384e-06 DIIS
   @DF-RHF iter   7: -2478.66037791776762   -8.20094e-05   2.65507e-06 DIIS
   @DF-RHF iter   8: -2478.66040052128801   -2.26035e-05   1.21168e-06 DIIS
   @DF-RHF iter   9: -2478.66040724281766   -6.72153e-06   2.59966e-07 DIIS
   @DF-RHF iter  10: -2478.66040747716261   -2.34345e-07   9.18707e-08 DIIS
   @DF-RHF iter  11: -2478.66040749479998   -1.76374e-08   3.57476e-08 DIIS
   @DF-RHF iter  12: -2478.66040749857302   -3.77304e-09   1.25692e-08 DIIS
   @DF-RHF iter  13: -2478.66040749905915   -4.86125e-10   5.22603e-09 DIIS
  Energy and wave function converged.


  ==> Post-Iterations <==

    Orbital Energies [Eh]
    ---------------------

    Doubly Occupied:                                                      

       1A    -26.072318     2A    -26.068717     3A    -26.068622  
       4A    -26.068538     5A    -11.188642     6A    -11.188628  
       7A    -11.188627     8A    -11.188558     9A    -11.188547  
      10A    -11.188542    11A    -11.188531    12A    -11.188524  
      13A    -11.188524    14A    -11.188448    15A    -11.188440  
      16A    -11.188439    17A    -11.185863    18A    -11.185805  
      19A    -11.185803    20A    -11.185633    21A    -11.185632  
      22A    -11.185453    23A    -11.185414    24A    -11.185379  
      25A    -11.185378    26A    -11.185372    27A    -11.185371  
      28A    -11.185370    29A    -11.185167    30A    -11.184965  
      31A    -11.184963    32A    -11.184640    33A    -11.184638  
      34A    -11.184434    35A    -11.184198    36A    -11.184031  
      37A    -11.184031    38A    -11.183972    39A    -11.183970  
      40A    -11.183969    41A    -11.183945    42A    -11.183930  
      43A    -11.183928    44A    -11.183795    45A    -11.183795  
      46A    -11.183730    47A    -11.183199    48A    -11.182742  
      49A    -11.182732    50A    -11.181899    51A    -11.181897  
      52A    -11.181896    53A    -11.181896    54A    -11.181895  
      55A    -11.181892    56A    -11.181697    57A    -11.181689  
      58A    -11.181169    59A     -7.541724    60A     -1.413431  
      61A     -1.355453    62A     -1.352819    63A     -1.352654  
      64A     -1.169586    65A     -1.147568    66A     -1.147568  
      67A     -1.118521    68A     -1.118514    69A     -1.107577  
      70A     -1.087753    71A     -1.078239    72A     -1.063032  
      73A     -1.063024    74A     -1.043516    75A     -1.043511  
      76A     -1.010806    77A     -1.010797    78A     -1.006601  
      79A     -0.996596    80A     -0.996592    81A     -0.969119  
      82A     -0.951763    83A     -0.948864    84A     -0.948822  
      85A     -0.948230    86A     -0.943651    87A     -0.915763  
      88A     -0.915719    89A     -0.891932    90A     -0.891883  
      91A     -0.824657    92A     -0.824628    93A     -0.815379  
      94A     -0.813389    95A     -0.813334    96A     -0.810101  
      97A     -0.810053    98A     -0.792174    99A     -0.769308  
     100A     -0.748245   101A     -0.744815   102A     -0.740991  
     103A     -0.740984   104A     -0.725568   105A     -0.725557  
     106A     -0.674977   107A     -0.673660   108A     -0.662934  
     109A     -0.662910   110A     -0.662009   111A     -0.662001  
     112A     -0.645810   113A     -0.629276   114A     -0.629264  
     115A     -0.623289   116A     -0.623272   117A     -0.604872  
     118A     -0.592214   119A     -0.582263   120A     -0.581475  
     121A     -0.581469   122A     -0.579623   123A     -0.569953  
     124A     -0.569951   125A     -0.558970   126A     -0.556913  
     127A     -0.556898   128A     -0.539175   129A     -0.533019  
     130A     -0.530554   131A     -0.530550   132A     -0.530467  
     133A     -0.530331   134A     -0.530299   135A     -0.529350  
     136A     -0.523007   137A     -0.519217   138A     -0.519205  
     139A     -0.517528   140A     -0.503569   141A     -0.503564  
     142A     -0.498650   143A     -0.498635   144A     -0.495124  
     145A     -0.495112   146A     -0.487629   147A     -0.485820  
     148A     -0.485811   149A     -0.469637   150A     -0.469633  
     151A     -0.467029   152A     -0.467025   153A     -0.459786  
     154A     -0.453601   155A     -0.452937   156A     -0.452928  
     157A     -0.449788   158A     -0.449747   159A     -0.431796  
     160A     -0.426041   161A     -0.424006   162A     -0.417214  
     163A     -0.414262   164A     -0.411557   165A     -0.411549  
     166A     -0.411331   167A     -0.410831   168A     -0.410748  
     169A     -0.397080   170A     -0.397067   171A     -0.387806  
     172A     -0.387739   173A     -0.386465   174A     -0.378929  
     175A     -0.378850   176A     -0.369779   177A     -0.369770  
     178A     -0.332638   179A     -0.332615   180A     -0.330418  
     181A     -0.306591   182A     -0.306587   183A     -0.278622  
     184A     -0.263209   185A     -0.261464   186A     -0.261418  
     187A     -0.241462   188A     -0.229966   189A     -0.211815  
     190A     -0.211760   191A     -0.154175   192A     -0.154114  

    Virtual:                                                              

     193A      0.084205   194A      0.084271   195A      0.103993  
     196A      0.103997   197A      0.105599   198A      0.106396  
     199A      0.106402   200A      0.113143   201A      0.117348  
     202A      0.128315   203A      0.128316   204A      0.136218  
     205A      0.136264   206A      0.143063   207A      0.143066  
     208A      0.143119   209A      0.149837   210A      0.149855  
     211A      0.150437   212A      0.150441   213A      0.150733  
     214A      0.155342   215A      0.156625   216A      0.156627  
     217A      0.157683   218A      0.162805   219A      0.164921  
     220A      0.171437   221A      0.171445   222A      0.173418  
     223A      0.175505   224A      0.182028   225A      0.182565  
     226A      0.182604   227A      0.186677   228A      0.186808  
     229A      0.186826   230A      0.187687   231A      0.187702  
     232A      0.190300   233A      0.190744   234A      0.194315  
     235A      0.195258   236A      0.195269   237A      0.201992  
     238A      0.210125   239A      0.210126   240A      0.211399  
     241A      0.211409   242A      0.214564   243A      0.214571  
     244A      0.214636   245A      0.219091   246A      0.219097  
     247A      0.230884   248A      0.234357   249A      0.234377  
     250A      0.239990   251A      0.244099   252A      0.245390  
     253A      0.245408   254A      0.247741   255A      0.247767  
     256A      0.250593   257A      0.251868   258A      0.251888  
     259A      0.255449   260A      0.255480   261A      0.258167  
     262A      0.262364   263A      0.262367   264A      0.263616  
     265A      0.263622   266A      0.265485   267A      0.270005  
     268A      0.270036   269A      0.271426   270A      0.272703  
     271A      0.273147   272A      0.273157   273A      0.274324  
     274A      0.276650   275A      0.278149   276A      0.286102  
     277A      0.286127   278A      0.286142   279A      0.287470  
     280A      0.287493   281A      0.289426   282A      0.292058  
     283A      0.292072   284A      0.295361   285A      0.296223  
     286A      0.298911   287A      0.298926   288A      0.299214  
     289A      0.304742   290A      0.304745   291A      0.307465  
     292A      0.307752   293A      0.316692   294A      0.316698  
     295A      0.318527   296A      0.318551   297A      0.320313  
     298A      0.320318   299A      0.322054   300A      0.322064  
     301A      0.328309   302A      0.328322   303A      0.335283  
     304A      0.335289   305A      0.336971   306A      0.336974  
     307A      0.342129   308A      0.345430   309A      0.345458  
     310A      0.349496   311A      0.349523   312A      0.352438  
     313A      0.354125   314A      0.354162   315A      0.356463  
     316A      0.356479   317A      0.361791   318A      0.363921  
     319A      0.365767   320A      0.365785   321A      0.366993  
     322A      0.372454   323A      0.373789   324A      0.373843  
     325A      0.374279   326A      0.374307   327A      0.374452  
     328A      0.379345   329A      0.380245   330A      0.380250  
     331A      0.383198   332A      0.384594   333A      0.384606  
     334A      0.384827   335A      0.385318   336A      0.390592  
     337A      0.390859   338A      0.395384   339A      0.395508  
     340A      0.398960   341A      0.401282   342A      0.402348  
     343A      0.402392   344A      0.406196   345A      0.406212  
     346A      0.409006   347A      0.412528   348A      0.412557  
     349A      0.414173   350A      0.416087   351A      0.416808  
     352A      0.418226   353A      0.418266   354A      0.423416  
     355A      0.423424   356A      0.428068   357A      0.432752  
     358A      0.432781   359A      0.437713   360A      0.437742  
     361A      0.440878   362A      0.443531   363A      0.446625  
     364A      0.446679   365A      0.452055   366A      0.452180  
     367A      0.454757   368A      0.454774   369A      0.456902  
     370A      0.457042   371A      0.458360   372A      0.458394  
     373A      0.458690   374A      0.459937   375A      0.459983  
     376A      0.460955   377A      0.464718   378A      0.464756  
     379A      0.468160   380A      0.468184   381A      0.471153  
     382A      0.472776   383A      0.472800   384A      0.475122  
     385A      0.479032   386A      0.481503   387A      0.481556  
     388A      0.482681   389A      0.483012   390A      0.483220  
     391A      0.486122   392A      0.486174   393A      0.489841  
     394A      0.491254   395A      0.492633   396A      0.492655  
     397A      0.495388   398A      0.495477   399A      0.496303  
     400A      0.498840   401A      0.498927   402A      0.505939  
     403A      0.506178   404A      0.506306   405A      0.506524  
     406A      0.507490   407A      0.511906   408A      0.514925  
     409A      0.514959   410A      0.518561   411A      0.518591  
     412A      0.519541   413A      0.519546   414A      0.527091  
     415A      0.527295   416A      0.527568   417A      0.532851  
     418A      0.533029   419A      0.533057   420A      0.538598  
     421A      0.539940   422A      0.540066   423A      0.540100  
     424A      0.540276   425A      0.543393   426A      0.543411  
     427A      0.550487   428A      0.550494   429A      0.555450  
     430A      0.555524   431A      0.558723   432A      0.558760  
     433A      0.561661   434A      0.563136   435A      0.563145  
     436A      0.565589   437A      0.567286   438A      0.567471  
     439A      0.567484   440A      0.568846   441A      0.574453  
     442A      0.574803   443A      0.574838   444A      0.581775  
     445A      0.581805   446A      0.589752   447A      0.590465  
     448A      0.590571   449A      0.598856   450A      0.598874  
     451A      0.599744   452A      0.603009   453A      0.603447  
     454A      0.607835   455A      0.608818   456A      0.611317  
     457A      0.614212   458A      0.614268   459A      0.619416  
     460A      0.619431   461A      0.619899   462A      0.621286  
     463A      0.628867   464A      0.628989   465A      0.629170  
     466A      0.631146   467A      0.633118   468A      0.633155  
     469A      0.636303   470A      0.637215   471A      0.640984  
     472A      0.641018   473A      0.648086   474A      0.649576  
     475A      0.649711   476A      0.664838   477A      0.667292  
     478A      0.669969   479A      0.670001   480A      0.685176  
     481A      0.685509   482A      0.689964   483A      0.690107  
     484A      0.697191   485A      0.697263   486A      0.698312  
     487A      0.700873   488A      0.701034   489A      0.718990  
     490A      0.723187   491A      0.723237   492A      0.727208  
     493A      0.738692   494A      0.738748   495A      0.739289  
     496A      0.744504   497A      0.746150   498A      0.746242  
     499A      0.747707   500A      0.747808   501A      0.767463  
     502A      0.779482   503A      0.780329   504A      0.780711  
     505A      0.786435   506A      0.786444   507A      0.804554  
     508A      0.809421   509A      0.814323   510A      0.814396  
     511A      0.815177   512A      0.815276   513A      0.826264  
     514A      0.826289   515A      0.829591   516A      0.844578  
     517A      0.854730   518A      0.860636   519A      0.868488  
     520A      0.868559   521A      0.875128   522A      0.883067  
     523A      0.884667   524A      0.887354   525A      0.887386  
     526A      0.891689   527A      0.891999   528A      0.895541  
     529A      0.896717   530A      0.897326   531A      0.897351  
     532A      0.906172   533A      0.923531   534A      0.923551  
     535A      0.930922   536A      0.933318   537A      0.933353  
     538A      0.936529   539A      0.937332   540A      0.937446  
     541A      0.944410   542A      0.944486   543A      0.947534  
     544A      0.947709   545A      0.953339   546A      0.956104  
     547A      0.956199   548A      0.961016   549A      0.961102  
     550A      0.966764   551A      0.966837   552A      0.968755  
     553A      0.970900   554A      0.971295   555A      0.971433  
     556A      0.978358   557A      0.978923   558A      0.979264  
     559A      0.980839   560A      0.988412   561A      0.988952  
     562A      0.989046   563A      0.994110   564A      0.995487  
     565A      0.996137   566A      1.002529   567A      1.005052  
     568A      1.005197   569A      1.005585   570A      1.005825  
     571A      1.013607   572A      1.013631   573A      1.016134  
     574A      1.016324   575A      1.031553   576A      1.031581  
     577A      1.034209   578A      1.036519   579A      1.041400  
     580A      1.041784   581A      1.045873   582A      1.046048  
     583A      1.047619   584A      1.048403   585A      1.050303  
     586A      1.058871   587A      1.058975   588A      1.059465  
     589A      1.060762   590A      1.066393   591A      1.066429  
     592A      1.075567   593A      1.081521   594A      1.082804  
     595A      1.082812   596A      1.085548   597A      1.085573  
     598A      1.101931   599A      1.101960   600A      1.102494  
     601A      1.105859   602A      1.106102   603A      1.106524  
     604A      1.111298   605A      1.111348   606A      1.113862  
     607A      1.113976   608A      1.115289   609A      1.117767  
     610A      1.117943   611A      1.119675   612A      1.121950  
     613A      1.124026   614A      1.124064   615A      1.126950  
     616A      1.127004   617A      1.128786   618A      1.137801  
     619A      1.139273   620A      1.139454   621A      1.141866  
     622A      1.141946   623A      1.151888   624A      1.155139  
     625A      1.155179   626A      1.155495   627A      1.164683  
     628A      1.164745   629A      1.165170   630A      1.165180  
     631A      1.165249   632A      1.166059   633A      1.169489  
     634A      1.169593   635A      1.176219   636A      1.176391  
     637A      1.180746   638A      1.180798   639A      1.186430  
     640A      1.188263   641A      1.188316   642A      1.196697  
     643A      1.197857   644A      1.199019   645A      1.199173  
     646A      1.211366   647A      1.211421   648A      1.213436  
     649A      1.214793   650A      1.216682   651A      1.216711  
     652A      1.219398   653A      1.219482   654A      1.221640  
     655A      1.225003   656A      1.233255   657A      1.237614  
     658A      1.246632   659A      1.253656   660A      1.256191  
     661A      1.256254   662A      1.260916   663A      1.260928  
     664A      1.268780   665A      1.268918   666A      1.271832  
     667A      1.271916   668A      1.276085   669A      1.281697  
     670A      1.287890   671A      1.287938   672A      1.291556  
     673A      1.292512   674A      1.292547   675A      1.305645  
     676A      1.305715   677A      1.306610   678A      1.327703  
     679A      1.327823   680A      1.330957   681A      1.331054  
     682A      1.333265   683A      1.333401   684A      1.334694  
     685A      1.334789   686A      1.344976   687A      1.345405  
     688A      1.363062   689A      1.364062   690A      1.364334  
     691A      1.364376   692A      1.366926   693A      1.367735  
     694A      1.373548   695A      1.375440   696A      1.375522  
     697A      1.377839   698A      1.379266   699A      1.379290  
     700A      1.392608   701A      1.392635   702A      1.396070  
     703A      1.396100   704A      1.401164   705A      1.401263  
     706A      1.403166   707A      1.410351   708A      1.410845  
     709A      1.418581   710A      1.421186   711A      1.421220  
     712A      1.427123   713A      1.427159   714A      1.429553  
     715A      1.429573   716A      1.434118   717A      1.434155  
     718A      1.443805   719A      1.444015   720A      1.444330  
     721A      1.447442   722A      1.461993   723A      1.464962  
     724A      1.473866   725A      1.473886   726A      1.481357  
     727A      1.481377   728A      1.482331   729A      1.482368  
     730A      1.489665   731A      1.492408   732A      1.501970  
     733A      1.504837   734A      1.504860   735A      1.505111  
     736A      1.506435   737A      1.509009   738A      1.509118  
     739A      1.511600   740A      1.511695   741A      1.517415  
     742A      1.518782   743A      1.518804   744A      1.520548  
     745A      1.529787   746A      1.538256   747A      1.538300  
     748A      1.552700   749A      1.552790   750A      1.586877  
     751A      1.586953   752A      1.593566   753A      1.593591  
     754A      1.599615   755A      1.623974   756A      1.647227  
     757A      1.647597   758A      1.647668   759A      1.658824  
     760A      1.673066   761A      1.673578   762A      1.679224  
     763A      1.684871   764A      1.685801   765A      1.685921  
     766A      1.688980   767A      1.689113   768A      1.696135  
     769A      1.698009   770A      1.698103   771A      1.706999  
     772A      1.707269   773A      1.713534   774A      1.713568  
     775A      1.715685   776A      1.716708   777A      1.716833  
     778A      1.716924   779A      1.726387   780A      1.731848  
     781A      1.731885   782A      1.737856   783A      1.746409  
     784A      1.746441   785A      1.748994   786A      1.750832  
     787A      1.750855   788A      1.754300   789A      1.758779  
     790A      1.758826   791A      1.766100   792A      1.768830  
     793A      1.768868   794A      1.768896   795A      1.775472  
     796A      1.778381   797A      1.778444   798A      1.785696  
     799A      1.785711   800A      1.812629   801A      1.823531  
     802A      1.828156   803A      1.829178   804A      1.829189  
     805A      1.832275   806A      1.847209   807A      1.847238  
     808A      1.861731   809A      1.861749   810A      1.885640  
     811A      1.885707   812A      1.885747   813A      1.897212  
     814A      1.897311   815A      1.898864   816A      1.901250  
     817A      1.901350   818A      1.909857   819A      1.914199  
     820A      1.915274   821A      1.929373   822A      1.929398  
     823A      1.931565   824A      1.931610   825A      1.933830  
     826A      1.941511   827A      1.943579   828A      1.951926  
     829A      1.951973   830A      1.967072   831A      1.967190  
     832A      1.970235   833A      1.971527   834A      1.971675  
     835A      1.980214   836A      1.980328   837A      1.982367  
     838A      1.982519   839A      1.988792   840A      1.988952  
     841A      1.990201   842A      1.993155   843A      1.993216  
     844A      2.007055   845A      2.007409   846A      2.007514  
     847A      2.010848   848A      2.010875   849A      2.013294  
     850A      2.013906   851A      2.013967   852A      2.026454  
     853A      2.026540   854A      2.028620   855A      2.030806  
     856A      2.030854   857A      2.040936   858A      2.041404  
     859A      2.041662   860A      2.050548   861A      2.050651  
     862A      2.067373   863A      2.067753   864A      2.067886  
     865A      2.068113   866A      2.068295   867A      2.069724  
     868A      2.076713   869A      2.077543   870A      2.086260  
     871A      2.086499   872A      2.099188   873A      2.099452  
     874A      2.099915   875A      2.100633   876A      2.102176  
     877A      2.102584   878A      2.103377   879A      2.118640  
     880A      2.118668   881A      2.119621   882A      2.122661  
     883A      2.122671   884A      2.132221   885A      2.132492  
     886A      2.134573   887A      2.134940   888A      2.140907  
     889A      2.146098   890A      2.148006   891A      2.148024  
     892A      2.153496   893A      2.153648   894A      2.159110  
     895A      2.160461   896A      2.160735   897A      2.162561  
     898A      2.163403   899A      2.165969   900A      2.170250  
     901A      2.171173   902A      2.171290   903A      2.176023  
     904A      2.176857   905A      2.177008   906A      2.181249  
     907A      2.181396   908A      2.181715   909A      2.185032  
     910A      2.185113   911A      2.187414   912A      2.191176  
     913A      2.191547   914A      2.195632   915A      2.195740  
     916A      2.198961   917A      2.199208   918A      2.202866  
     919A      2.204735   920A      2.206041   921A      2.206081  
     922A      2.213324   923A      2.213357   924A      2.213846  
     925A      2.226488   926A      2.234053   927A      2.234137  
     928A      2.234709   929A      2.234748   930A      2.244871  
     931A      2.248579   932A      2.248683   933A      2.259779  
     934A      2.260006   935A      2.262148   936A      2.264238  
     937A      2.270351   938A      2.270467   939A      2.274427  
     940A      2.290309   941A      2.293415   942A      2.293457  
     943A      2.296698   944A      2.304342   945A      2.305978  
     946A      2.306134   947A      2.310425   948A      2.310691  
     949A      2.313498   950A      2.313699   951A      2.315088  
     952A      2.328281   953A      2.328398   954A      2.339998  
     955A      2.340021   956A      2.341196   957A      2.341235  
     958A      2.348133   959A      2.369291   960A      2.369875  
     961A      2.376047   962A      2.384203   963A      2.385665  
     964A      2.402922   965A      2.405375   966A      2.405477  
     967A      2.406687   968A      2.409906   969A      2.422716  
     970A      2.423375   971A      2.424327   972A      2.424561  
     973A      2.439667   974A      2.439841   975A      2.441977  
     976A      2.448987   977A      2.462556   978A      2.485043  
     979A      2.494651   980A      2.495105   981A      2.495137  
     982A      2.505585   983A      2.513158   984A      2.513220  
     985A      2.541088   986A      2.543496   987A      2.543651  
     988A      2.556372   989A      2.556421   990A      2.572885  
     991A      2.592489   992A      2.601296   993A      2.606316  
     994A      2.615344   995A      2.615627   996A      2.615677  
     997A      2.621998   998A      2.622066   999A      2.628114  
    1000A      2.630307  1001A      2.630319  1002A      2.643175  
    1003A      2.643620  1004A      2.643707  1005A      2.643730  
    1006A      2.655711  1007A      2.655862  1008A      2.658888  
    1009A      2.660667  1010A      2.661110  1011A      2.675761  
    1012A      2.693413  1013A      2.693507  1014A      2.698288  
    1015A      2.703332  1016A      2.703807  1017A      2.710054  
    1018A      2.710123  1019A      2.720239  1020A      2.720549  
    1021A      2.725946  1022A      2.753570  1023A      2.754159  
    1024A      2.755298  1025A      2.760348  1026A      2.775949  
    1027A      2.776259  1028A      2.784861  1029A      2.784872  
    1030A      2.790114  1031A      2.790129  1032A      2.794120  
    1033A      2.794318  1034A      2.816336  1035A      2.822206  
    1036A      2.822638  1037A      2.849820  1038A      2.867275  
    1039A      2.867386  1040A      2.889852  1041A      2.899377  
    1042A      2.899693  1043A      2.923354  1044A      2.923513  
    1045A      2.930085  1046A      2.931911  1047A      2.931939  
    1048A      2.932335  1049A      2.939066  1050A      2.985677  
    1051A      2.985724  1052A      2.990968  1053A      2.992202  
    1054A      2.992245  1055A      3.005867  1056A      3.005942  
    1057A      3.022373  1058A      3.022508  1059A      3.032267  
    1060A      3.037089  1061A      3.079379  1062A      3.082220  
    1063A      3.082379  1064A      3.105076  1065A      3.137087  
    1066A      3.137108  1067A      3.142545  1068A      3.142614  
    1069A      3.182156  1070A      3.182871  1071A      3.197380  
    1072A      3.200002  1073A      3.200271  1074A      3.206848  
    1075A      3.216666  1076A      3.216705  1077A      3.217234  
    1078A      3.218737  1079A      3.218764  1080A      3.228868  
    1081A      3.229255  1082A      3.235355  1083A      3.235886  
    1084A      3.259991  1085A      3.279194  1086A      3.290922  
    1087A      3.306406  1088A      3.328893  1089A      3.347609  
    1090A      3.347785  1091A      3.351188  1092A      3.355468  
    1093A      3.355634  1094A      3.489683  1095A      3.490123  
    1096A      3.526050  1097A      3.555345  1098A      3.557928  
    1099A      3.625144  1100A      3.654725  1101A      3.656785  
    1102A      3.667174  1103A      3.697762  1104A      3.699738  
    1105A      3.734658  1106A      3.742338  1107A      3.840806  
    1108A      3.857551  1109A      3.858664  1110A      3.940336  
    1111A      3.940347  1112A      3.984001  1113A      3.984083  
    1114A      4.049551  1115A      4.083759  1116A      4.111605  
    1117A      4.123323  1118A      4.161957  1119A      4.171704  
    1120A      4.171762  1121A      4.171841  1122A      4.199407  
    1123A      4.201096  1124A      4.201119  1125A      4.204072  
    1126A      4.204162  1127A      4.235881  1128A      4.235891  
    1129A      4.252637  1130A      4.446929  1131A      4.447288  
    1132A      4.447965  1133A      4.648616  1134A      4.655569  
    1135A      4.655621  1136A      4.750590  1137A      4.785618  
    1138A      4.785957  

    Final Occupation by Irrep:
              A 
    DOCC [   192 ]
    NA   [   192 ]
    NB   [   192 ]

  @DF-RHF Final Energy: -2478.66040749905915

   => Energetics <=

    Nuclear Repulsion Energy =           7732.5146077573663206
    One-Electron Energy =              -18820.5879538747540209
    Two-Electron Energy =                8609.4129386183285533
    Total Energy =                      -2478.6604074990591471

Computation Completed


Properties will be evaluated at   0.000000,   0.000000,   0.000000 [a0]

Properties computed using the SCF density matrix


 Multipole Moments:

 ------------------------------------------------------------------------------------
     Multipole            Electronic (a.u.)      Nuclear  (a.u.)        Total (a.u.)
 ------------------------------------------------------------------------------------

 L = 1.  Multiply by 2.5417464519 to convert [e a0] to [Debye]
 Dipole X            :         -0.0004557            0.0000481           -0.0004077
 Dipole Y            :          0.0009340           -0.0001453            0.0007887
 Dipole Z            :        -23.3841450           30.6518232            7.2676781
 Magnitude           :                                                    7.2676782

 ------------------------------------------------------------------------------------

*** tstop() called on d-3-8-3 at Mon Jan 22 09:23:58 2024
Module time:
	user time   =    3134.82 seconds =      52.25 minutes
	system time =      73.98 seconds =       1.23 minutes
	total time  =        342 seconds =       5.70 minutes
Total time:
	user time   =    3134.82 seconds =      52.25 minutes
	system time =      73.98 seconds =       1.23 minutes
	total time  =        342 seconds =       5.70 minutes

  //>>>>>>>>>>>>>>>>>>>>>>>>>>>>>>>>>>>//
  //            Monomer A HF           //
  //<<<<<<<<<<<<<<<<<<<<<<<<<<<<<<<<<<<//

   => Libint2 <=

    Primary   basis highest AM E, G, H:  7, 7, 4
    Auxiliary basis highest AM E, G, H:  7, 7, 5
    Onebody   basis highest AM E, G, H:  7, 7, 5
    Solid Harmonics ordering:            gaussian

*** tstart() called on d-3-8-3
*** at Mon Jan 22 09:23:58 2024

   => Loading Basis Set <=

    Name: JUN-CC-PVDZ
    Role: ORBITAL
    Keyword: BASIS
    atoms 1     entry B          line   130 file /home/gridsan/tfroembgen/.conda/envs/psi4test/share/psi4/basis/jun-cc-pvdz.gbs 
    atoms 2-5   entry F          line   266 file /home/gridsan/tfroembgen/.conda/envs/psi4test/share/psi4/basis/jun-cc-pvdz.gbs 
    atoms 6-59  entry C          line   164 file /home/gridsan/tfroembgen/.conda/envs/psi4test/share/psi4/basis/jun-cc-pvdz.gbs 
    atoms 60-77 entry H          line    36 file /home/gridsan/tfroembgen/.conda/envs/psi4test/share/psi4/basis/jun-cc-pvdz.gbs 


         ---------------------------------------------------------
                                   SCF
               by Justin Turney, Rob Parrish, Andy Simmonett
                          and Daniel G. A. Smith
                              RHF Reference
                       12 Threads,  30517 MiB Core
         ---------------------------------------------------------

  ==> Geometry <==

    Molecular point group: c1
    Full point group: C1

    Geometry (in Angstrom), charge = -1, multiplicity = 1:

       Center              X                  Y                   Z               Mass       
    ------------   -----------------  -----------------  -----------------  -----------------
         B           -0.000198161052     0.000273808717    -4.422365449421    11.009305360000
         F           -0.000000401852    -0.000000464183    -3.009580449421    18.998403162730
         F            1.147859598148     0.675780735817    -4.893506449421    18.998403162730
         F            0.011917658148    -1.332011464183    -4.893304449421    18.998403162730
         F           -1.159666401852     0.656073035817    -4.893225449421    18.998403162730
      Gh(C)           1.225311973413     0.707538196736     0.583738177862    12.000000000000
      Gh(C)           1.225323934041    -0.707538986754     0.571407368292    12.000000000000
      Gh(C)          -0.000006075942     1.414965821907     0.570873744771    12.000000000000
      Gh(C)           2.456448831939     1.418327794995     0.586625035262    12.000000000000
      Gh(C)           0.000010905269    -1.414976590818     0.581073302096    12.000000000000
      Gh(C)          -1.225300870919     0.707545281801     0.585989698185    12.000000000000
      Gh(C)           2.456437833310    -1.418323396064     0.569162211435    12.000000000000
      Gh(C)          -0.000001254988     2.836800939098     0.568470194637    12.000000000000
      Gh(C)           3.681826775460     0.709317863818     0.569511001233    12.000000000000
      Gh(C)           2.455120126855     2.834223569306     0.569408444272    12.000000000000
      Gh(C)           3.681821183209    -0.709333931612     0.585583485251    12.000000000000
      Gh(C)          -1.225313520698    -0.707527607727     0.572480129719    12.000000000000
      Gh(C)           1.226699659192     3.543469391811     0.585767517182    12.000000000000
      Gh(C)           0.000004862847    -2.836782231419     0.585921469717    12.000000000000
      Gh(C)          -2.456435954859     1.418316826102     0.586025094031    12.000000000000
      Gh(C)           2.455123495769    -2.834230120772     0.585431576884    12.000000000000
      Gh(C)          -1.226714286599     3.543468971567     0.585870850402    12.000000000000
      Gh(C)           4.914517373191     1.427172780306     0.575991684263    12.000000000000
      Gh(C)           3.693150269466     3.542795200362     0.576041483899    12.000000000000
      Gh(C)          -2.456437522078    -1.418313373022     0.569137173311    12.000000000000
      Gh(C)           1.226704919933    -3.543474334090     0.569797386432    12.000000000000
      Gh(C)          -2.455125320518     2.834216570451     0.569414820619    12.000000000000
      Gh(C)           4.914524458772    -1.427187002127     0.578964426997    12.000000000000
      Gh(C)           1.221424691688     4.970133973077     0.579102861257    12.000000000000
      Gh(C)           4.893008307311     2.825187907843     0.577208352621    12.000000000000
      Gh(C)          -1.226696930499    -3.543471089260     0.570064590842    12.000000000000
      Gh(C)          -3.681818898536     0.709324874549     0.569523681713    12.000000000000
      Gh(C)           3.693147179140    -3.542801433574     0.579082317558    12.000000000000
      Gh(C)          -1.221432174004     4.970128205680     0.579286356630    12.000000000000
      Gh(C)           6.134771050916     0.680547854922     0.576761458812    12.000000000000
      Gh(C)           3.656788958600     4.972953151384     0.576950121681    12.000000000000
      Gh(C)          -2.455126829744    -2.834215185244     0.585187219086    12.000000000000
      Gh(C)          -3.681819101071    -0.709325795652     0.585701106830    12.000000000000
      Gh(C)           4.893012695903    -2.825200197815     0.577819504517    12.000000000000
      Gh(C)          -0.000000995123     5.650447273849     0.578055047923    12.000000000000
      Gh(C)           6.134775190322    -0.680554946258     0.578026779328    12.000000000000
      Gh(C)           2.478131560845     5.653576659148     0.578238901331    12.000000000000
      Gh(C)           1.221422482727    -4.970127147116     0.576303364234    12.000000000000
      Gh(C)          -3.693162305975     3.542796862009     0.576206991358    12.000000000000
      Gh(C)          -1.221428442955    -4.970118395779     0.576190602402    12.000000000000
      Gh(C)          -4.914521729952     1.427175354812     0.576068629270    12.000000000000
      Gh(C)           3.656787097669    -4.972955318422     0.578400622216    12.000000000000
      Gh(C)          -2.478138452116     5.653574330345     0.578523426340    12.000000000000
      Gh(C)          -3.693141660574    -3.542790311162     0.578966191402    12.000000000000
      Gh(C)          -4.914512405063    -1.427181092211     0.578999124171    12.000000000000
      Gh(C)          -0.000005930936    -5.650438379197     0.577659543801    12.000000000000
      Gh(C)          -4.893020406111     2.825188506736     0.577198270761    12.000000000000
      Gh(C)           2.478126071288    -5.653573636072     0.577310021423    12.000000000000
      Gh(C)          -3.656798632268     4.972956089858     0.577126802056    12.000000000000
      Gh(C)          -4.892999400866    -2.825191859243     0.577665468819    12.000000000000
      Gh(C)          -2.478128420093    -5.653566262190     0.577034833776    12.000000000000
      Gh(C)          -6.134770425341     0.680548674073     0.576735907110    12.000000000000
      Gh(C)          -3.656788755199    -4.972944115154     0.578186334399    12.000000000000
      Gh(C)          -6.134764964923    -0.680554007665     0.578006303533    12.000000000000
      Gh(H)           5.835288573806     3.369275802771     0.581567678284     1.007825032230
      Gh(H)           7.073859250737     1.228217156716     0.577223102206     1.007825032230
      Gh(H)           4.600663342164     5.512380710270     0.577455322433     1.007825032230
      Gh(H)           5.835283465295    -3.369306148912     0.573365037202     1.007825032230
      Gh(H)          -0.000012073316     6.738530581953     0.573705802915     1.007825032230
      Gh(H)           7.073861249820    -1.228227034927     0.577518041234     1.007825032230
      Gh(H)           2.473313809789     6.740684199211     0.577772180401     1.007825032230
      Gh(H)           4.600668569371    -5.512376221359     0.577990625047     1.007825032230
      Gh(H)          -2.473318602548     6.740681627423     0.578073527026     1.007825032230
      Gh(H)          -0.000010190238    -6.738528268635     0.582189228786     1.007825032230
      Gh(H)          -5.835301836354     3.369270858113     0.581703700432     1.007825032230
      Gh(H)           2.473308001821    -6.740685466612     0.577880351848     1.007825032230
      Gh(H)          -4.600674763218     5.512377934420     0.577620650757     1.007825032230
      Gh(H)          -5.835279428845    -3.369289055963     0.573085731321     1.007825032230
      Gh(H)          -2.473300269450    -6.740679170323     0.577431035304     1.007825032230
      Gh(H)          -7.073857688778     1.228220380657     0.577139110725     1.007825032230
      Gh(H)          -4.600673708095    -5.512362761970     0.577818317024     1.007825032230
      Gh(H)          -7.073856856419    -1.228220724160     0.577423184768     1.007825032230

  Running in c1 symmetry.

  Rotational constants: A =      0.00175  B =      0.00175  C =      0.00110 [cm^-1]
  Rotational constants: A =     52.50233  B =     52.49595  C =     33.02251 [MHz]
  Nuclear repulsion =  178.879455044809106

  Charge       = -1
  Multiplicity = 1
  Electrons    = 42
  Nalpha       = 21
  Nbeta        = 21

  ==> Algorithm <==

  SCF Algorithm Type is DF.
  DIIS enabled.
  MOM disabled.
  Fractional occupation disabled.
  Guess Type is SAD.
  Energy threshold   = 1.00e-08
  Density threshold  = 1.00e-08
  Integral threshold = 1.00e-12

  ==> Primary Basis <==

  Basis Set: JUN-CC-PVDZ
    Blend: JUN-CC-PVDZ
    Number of shells: 526
    Number of basis functions: 1152
    Number of Cartesian functions: 1211
    Spherical Harmonics?: true
    Max angular momentum: 2

   => Loading Basis Set <=

    Name: (JUN-CC-PVDZ AUX)
    Role: JKFIT
    Keyword: DF_BASIS_SCF
    atoms 1     entry B          line    90 file /home/gridsan/tfroembgen/.conda/envs/psi4test/share/psi4/basis/jun-cc-pvdz-jkfit.gbs 
    atoms 2-5   entry F          line   314 file /home/gridsan/tfroembgen/.conda/envs/psi4test/share/psi4/basis/jun-cc-pvdz-jkfit.gbs 
    atoms 6-59  entry C          line   146 file /home/gridsan/tfroembgen/.conda/envs/psi4test/share/psi4/basis/jun-cc-pvdz-jkfit.gbs 
    atoms 60-77 entry H          line    70 file /home/gridsan/tfroembgen/.conda/envs/psi4test/share/psi4/basis/jun-cc-pvdz-jkfit.gbs 

  ==> Integral Setup <==

  ==> DiskDFJK: Density-Fitted J/K Matrices <==

    J tasked:                  Yes
    K tasked:                  Yes
    wK tasked:                  No
    OpenMP threads:             12
    Integrals threads:          12
    Memory [MiB]:            22888
    Algorithm:                Core
    Integral Cache:           LOAD
    Schwarz Cutoff:          1E-12
    Fitting Condition:       1E-10

   => Auxiliary Basis Set <=

  Basis Set: (JUN-CC-PVDZ AUX)
    Blend: JUN-CC-PVDZ-JKFIT
    Number of shells: 1755
    Number of basis functions: 5075
    Number of Cartesian functions: 5819
    Spherical Harmonics?: true
    Max angular momentum: 3

  Minimum eigenvalue in the overlap matrix is 8.3770407615E-10.
  Reciprocal condition number of the overlap matrix is 3.6880208929E-11.
    Using canonical orthogonalization.
  Overall, 14 of 1152 possible MOs eliminated.


  ==> Pre-Iterations <==

  SCF Guess: Superposition of Atomic Densities via on-the-fly atomic UHF (no occupation information).

   -------------------------
    Irrep   Nso     Nmo    
   -------------------------
     A       1152    1138 
   -------------------------
    Total    1152    1138
   -------------------------

  ==> Iterations <==

                           Total Energy        Delta E     RMS |[F,P]|

   @DF-RHF iter SAD:  -421.23044524548254   -4.21230e+02   0.00000e+00 
   @DF-RHF iter   1:  -422.65020466964813   -1.41976e+00   5.30216e-04 ADIIS/DIIS
   @DF-RHF iter   2:  -422.73308186829871   -8.28772e-02   3.23347e-04 ADIIS/DIIS
   @DF-RHF iter   3:  -422.77164670763523   -3.85648e-02   1.74286e-05 DIIS
   @DF-RHF iter   4:  -422.77200826309337   -3.61555e-04   2.76205e-06 DIIS
   @DF-RHF iter   5:  -422.77201693888753   -8.67579e-06   7.08914e-07 DIIS
   @DF-RHF iter   6:  -422.77201750820370   -5.69316e-07   1.45773e-07 DIIS
   @DF-RHF iter   7:  -422.77201752963998   -2.14363e-08   1.54845e-08 DIIS
   @DF-RHF iter   8:  -422.77201752986787   -2.27885e-10   5.94180e-09 DIIS
  Energy and wave function converged.


  ==> Post-Iterations <==

    Orbital Energies [Eh]
    ---------------------

    Doubly Occupied:                                                      

       1A    -26.067102     2A    -26.067008     3A    -26.066982  
       4A    -26.066922     5A     -7.539118     6A     -1.410834  
       7A     -1.351218     8A     -1.351063     9A     -1.350944  
      10A     -0.602128    11A     -0.528335    12A     -0.528280  
      13A     -0.528245    14A     -0.447181    15A     -0.447138  
      16A     -0.408416    17A     -0.408370    18A     -0.408287  
      19A     -0.384952    20A     -0.384822    21A     -0.384757  

    Virtual:                                                              

      22A      0.086338    23A      0.087299    24A      0.087302  
      25A      0.094470    26A      0.094476    27A      0.106089  
      28A      0.106752    29A      0.112901    30A      0.122512  
      31A      0.122513    32A      0.127148    33A      0.127153  
      34A      0.139263    35A      0.140514    36A      0.140524  
      37A      0.142572    38A      0.142584    39A      0.143768  
      40A      0.143783    41A      0.153116    42A      0.155227  
      43A      0.155233    44A      0.161940    45A      0.162044  
      46A      0.164441    47A      0.170742    48A      0.174400  
      49A      0.175518    50A      0.176331    51A      0.176332  
      52A      0.182037    53A      0.184385    54A      0.184401  
      55A      0.184454    56A      0.184856    57A      0.184862  
      58A      0.191400    59A      0.191442    60A      0.196340  
      61A      0.196344    62A      0.197152    63A      0.197160  
      64A      0.200076    65A      0.200099    66A      0.200792  
      67A      0.208063    68A      0.208083    69A      0.210021  
      70A      0.210023    71A      0.215380    72A      0.216149  
      73A      0.219956    74A      0.219962    75A      0.220720  
      76A      0.222820    77A      0.222840    78A      0.226105  
      79A      0.226120    80A      0.229915    81A      0.229917  
      82A      0.230270    83A      0.231074    84A      0.238283  
      85A      0.241498    86A      0.241502    87A      0.243328  
      88A      0.243466    89A      0.248307    90A      0.248329  
      91A      0.254478    92A      0.257168    93A      0.259808  
      94A      0.260011    95A      0.261313    96A      0.261326  
      97A      0.261945    98A      0.263499    99A      0.265941  
     100A      0.265942   101A      0.271772   102A      0.271782  
     103A      0.275051   104A      0.275064   105A      0.280129  
     106A      0.280142   107A      0.285014   108A      0.285018  
     109A      0.286682   110A      0.287518   111A      0.287535  
     112A      0.291040   113A      0.294922   114A      0.295761  
     115A      0.295774   116A      0.298629   117A      0.298665  
     118A      0.302348   119A      0.302586   120A      0.302629  
     121A      0.306338   122A      0.311940   123A      0.313286  
     124A      0.319617   125A      0.319627   126A      0.322361  
     127A      0.322375   128A      0.324153   129A      0.324167  
     130A      0.326162   131A      0.326197   132A      0.326231  
     133A      0.334531   134A      0.334542   135A      0.340939  
     136A      0.340954   137A      0.344725   138A      0.345353  
     139A      0.347797   140A      0.347815   141A      0.348920  
     142A      0.350818   143A      0.351120   144A      0.351125  
     145A      0.352601   146A      0.352610   147A      0.359334  
     148A      0.362879   149A      0.369207   150A      0.373720  
     151A      0.373729   152A      0.374567   153A      0.376651  
     154A      0.376698   155A      0.382385   156A      0.388094  
     157A      0.388111   158A      0.389801   159A      0.394295  
     160A      0.394316   161A      0.395898   162A      0.398535  
     163A      0.398559   164A      0.402060   165A      0.402081  
     166A      0.404062   167A      0.404204   168A      0.404596  
     169A      0.406506   170A      0.415318   171A      0.415906  
     172A      0.416041   173A      0.424054   174A      0.425083  
     175A      0.425166   176A      0.430941   177A      0.431312  
     178A      0.431580   179A      0.434243   180A      0.434328  
     181A      0.434370   182A      0.435664   183A      0.435740  
     184A      0.435745   185A      0.439652   186A      0.440951  
     187A      0.441139   188A      0.445505   189A      0.448252  
     190A      0.448290   191A      0.453729   192A      0.453766  
     193A      0.454454   194A      0.458055   195A      0.458098  
     196A      0.459957   197A      0.460009   198A      0.465550  
     199A      0.472298   200A      0.472369   201A      0.479192  
     202A      0.479266   203A      0.483307   204A      0.483325  
     205A      0.484885   206A      0.484888   207A      0.489057  
     208A      0.489096   209A      0.492402   210A      0.496826  
     211A      0.497036   212A      0.502843   213A      0.502852  
     214A      0.503307   215A      0.508469   216A      0.508584  
     217A      0.509730   218A      0.510557   219A      0.512895  
     220A      0.512914   221A      0.515724   222A      0.515756  
     223A      0.516759   224A      0.518118   225A      0.518225  
     226A      0.519325   227A      0.526626   228A      0.526909  
     229A      0.528398   230A      0.529085   231A      0.529228  
     232A      0.533233   233A      0.533731   234A      0.537730  
     235A      0.542737   236A      0.542808   237A      0.545334  
     238A      0.546680   239A      0.552793   240A      0.552927  
     241A      0.552941   242A      0.556651   243A      0.556700  
     244A      0.558369   245A      0.558371   246A      0.558913  
     247A      0.572337   248A      0.573011   249A      0.573165  
     250A      0.575205   251A      0.575275   252A      0.578845  
     253A      0.579064   254A      0.579932   255A      0.586395  
     256A      0.586857   257A      0.586946   258A      0.588831  
     259A      0.588888   260A      0.593060   261A      0.597952  
     262A      0.600241   263A      0.600265   264A      0.601119  
     265A      0.602824   266A      0.603015   267A      0.603123  
     268A      0.605357   269A      0.610734   270A      0.613192  
     271A      0.613262   272A      0.620783   273A      0.625399  
     274A      0.625426   275A      0.630539   276A      0.634155  
     277A      0.634238   278A      0.636930   279A      0.638706  
     280A      0.638747   281A      0.641084   282A      0.641117  
     283A      0.645734   284A      0.649367   285A      0.651644  
     286A      0.651657   287A      0.654680   288A      0.655513  
     289A      0.655527   290A      0.660339   291A      0.669365  
     292A      0.669386   293A      0.671878   294A      0.672426  
     295A      0.672521   296A      0.680761   297A      0.682315  
     298A      0.682376   299A      0.686179   300A      0.686213  
     301A      0.687684   302A      0.687718   303A      0.691967  
     304A      0.693118   305A      0.693151   306A      0.704552  
     307A      0.709129   308A      0.709262   309A      0.714166  
     310A      0.715531   311A      0.717120   312A      0.717127  
     313A      0.718418   314A      0.718442   315A      0.719893  
     316A      0.729385   317A      0.733188   318A      0.740619  
     319A      0.742781   320A      0.742946   321A      0.742994  
     322A      0.751187   323A      0.751211   324A      0.753745  
     325A      0.754261   326A      0.757076   327A      0.757117  
     328A      0.761662   329A      0.761714   330A      0.763968  
     331A      0.771239   332A      0.771267   333A      0.774453  
     334A      0.778030   335A      0.782449   336A      0.782554  
     337A      0.785722   338A      0.785785   339A      0.798249  
     340A      0.798276   341A      0.803569   342A      0.803613  
     343A      0.807901   344A      0.808013   345A      0.809473  
     346A      0.814594   347A      0.814649   348A      0.814814  
     349A      0.819235   350A      0.830265   351A      0.830867  
     352A      0.830905   353A      0.835315   354A      0.835492  
     355A      0.836697   356A      0.845356   357A      0.845364  
     358A      0.849941   359A      0.850127   360A      0.850624  
     361A      0.855324   362A      0.855424   363A      0.857016  
     364A      0.857294   365A      0.862088   366A      0.862145  
     367A      0.864230   368A      0.869698   369A      0.871918  
     370A      0.871937   371A      0.876715   372A      0.876764  
     373A      0.878612   374A      0.878884   375A      0.878947  
     376A      0.879878   377A      0.882914   378A      0.883006  
     379A      0.885243   380A      0.892737   381A      0.906330  
     382A      0.906333   383A      0.921176   384A      0.921177  
     385A      0.946731   386A      0.951597   387A      0.953408  
     388A      0.953900   389A      0.955458   390A      0.955489  
     391A      0.959218   392A      0.959248   393A      0.967414  
     394A      0.967449   395A      0.971761   396A      0.971802  
     397A      0.976124   398A      0.982140   399A      0.988368  
     400A      0.988516   401A      1.015174   402A      1.015180  
     403A      1.022981   404A      1.025063   405A      1.031377  
     406A      1.031414   407A      1.042654   408A      1.042688  
     409A      1.050648   410A      1.054504   411A      1.063004  
     412A      1.063018   413A      1.086262   414A      1.087053  
     415A      1.113376   416A      1.113409   417A      1.133751  
     418A      1.133795   419A      1.134706   420A      1.135496  
     421A      1.135510   422A      1.148377   423A      1.148406  
     424A      1.171129   425A      1.172214   426A      1.172232  
     427A      1.181772   428A      1.237171   429A      1.237229  
     430A      1.239118   431A      1.239233   432A      1.239547  
     433A      1.253247   434A      1.253257   435A      1.254730  
     436A      1.274372   437A      1.274417   438A      1.296746  
     439A      1.296750   440A      1.297788   441A      1.304605  
     442A      1.312257   443A      1.363508   444A      1.363607  
     445A      1.369156   446A      1.376939   447A      1.376952  
     448A      1.383713   449A      1.383758   450A      1.385670  
     451A      1.396909   452A      1.396989   453A      1.407606  
     454A      1.411564   455A      1.436088   456A      1.450285  
     457A      1.450348   458A      1.456351   459A      1.506911  
     460A      1.528556   461A      1.528988   462A      1.544439  
     463A      1.544460   464A      1.551279   465A      1.551524  
     466A      1.554199   467A      1.563360   468A      1.564233  
     469A      1.568889   470A      1.630044   471A      1.636173  
     472A      1.636216   473A      1.643317   474A      1.644176  
     475A      1.649564   476A      1.649618   477A      1.651134  
     478A      1.657760   479A      1.710582   480A      1.718428  
     481A      1.720134   482A      1.735873   483A      1.738141  
     484A      1.741753   485A      1.753585   486A      1.753902  
     487A      1.766567   488A      1.769568   489A      1.770187  
     490A      1.778614   491A      1.789099   492A      1.819563  
     493A      1.820692   494A      1.821346   495A      1.821893  
     496A      1.824412   497A      1.827238   498A      1.832263  
     499A      1.832542   500A      1.845514   501A      1.851280  
     502A      1.851424   503A      1.853495   504A      1.866961  
     505A      1.867976   506A      1.872236   507A      1.872963  
     508A      1.888948   509A      1.893777   510A      1.904254  
     511A      1.904668   512A      1.904890   513A      1.905971  
     514A      1.906614   515A      1.907371   516A      1.908015  
     517A      1.912835   518A      1.916070   519A      1.916155  
     520A      1.923799   521A      1.923845   522A      1.926320  
     523A      1.935747   524A      1.936577   525A      1.939581  
     526A      1.953452   527A      1.955753   528A      1.955813  
     529A      1.960027   530A      1.962934   531A      1.966309  
     532A      1.966775   533A      1.966927   534A      1.967265  
     535A      1.983485   536A      1.984058   537A      1.987654  
     538A      1.988931   539A      1.989526   540A      1.993255  
     541A      1.993819   542A      1.994887   543A      1.999034  
     544A      1.999069   545A      2.007301   546A      2.007872  
     547A      2.013101   548A      2.015642   549A      2.019967  
     550A      2.020099   551A      2.022555   552A      2.022636  
     553A      2.037461   554A      2.045285   555A      2.046563  
     556A      2.046744   557A      2.047969   558A      2.053836  
     559A      2.054020   560A      2.065273   561A      2.065645  
     562A      2.067135   563A      2.067275   564A      2.068481  
     565A      2.072349   566A      2.076828   567A      2.076921  
     568A      2.078632   569A      2.078988   570A      2.079074  
     571A      2.079564   572A      2.082408   573A      2.103335  
     574A      2.103421   575A      2.104239   576A      2.104315  
     577A      2.114644   578A      2.114842   579A      2.151023  
     580A      2.154380   581A      2.154478   582A      2.154956  
     583A      2.158730   584A      2.158798   585A      2.159774  
     586A      2.168031   587A      2.171759   588A      2.172045  
     589A      2.173334   590A      2.173437   591A      2.173679  
     592A      2.183101   593A      2.193973   594A      2.194058  
     595A      2.194715   596A      2.196828   597A      2.202677  
     598A      2.209285   599A      2.209316   600A      2.214546  
     601A      2.214560   602A      2.216250   603A      2.216612  
     604A      2.216700   605A      2.224095   606A      2.224815  
     607A      2.226302   608A      2.226619   609A      2.226726  
     610A      2.227437   611A      2.227460   612A      2.233170  
     613A      2.233192   614A      2.239594   615A      2.239636  
     616A      2.240069   617A      2.240089   618A      2.240386  
     619A      2.242231   620A      2.246268   621A      2.246299  
     622A      2.247838   623A      2.253002   624A      2.254171  
     625A      2.254224   626A      2.256189   627A      2.256379  
     628A      2.261101   629A      2.264580   630A      2.264618  
     631A      2.266403   632A      2.266996   633A      2.267222  
     634A      2.269652   635A      2.269790   636A      2.274279  
     637A      2.275491   638A      2.278925   639A      2.290006  
     640A      2.290114   641A      2.303520   642A      2.303540  
     643A      2.312925   644A      2.316627   645A      2.322859  
     646A      2.322894   647A      2.327272   648A      2.327276  
     649A      2.327948   650A      2.328029   651A      2.339135  
     652A      2.347953   653A      2.349174   654A      2.349214  
     655A      2.351918   656A      2.352015   657A      2.352853  
     658A      2.363116   659A      2.363131   660A      2.369831  
     661A      2.369887   662A      2.372964   663A      2.385692  
     664A      2.385748   665A      2.391415   666A      2.403046  
     667A      2.406653   668A      2.406757   669A      2.409288  
     670A      2.409326   671A      2.410484   672A      2.415689  
     673A      2.424888   674A      2.424898   675A      2.429880  
     676A      2.437007   677A      2.438172   678A      2.446726  
     679A      2.446758   680A      2.449759   681A      2.449785  
     682A      2.450042   683A      2.456308   684A      2.456366  
     685A      2.457435   686A      2.457579   687A      2.457641  
     688A      2.466395   689A      2.469204   690A      2.470034  
     691A      2.473491   692A      2.473540   693A      2.484224  
     694A      2.486886   695A      2.486998   696A      2.494166  
     697A      2.499556   698A      2.499623   699A      2.504303  
     700A      2.504431   701A      2.506469   702A      2.518683  
     703A      2.518807   704A      2.524555   705A      2.524579  
     706A      2.534121   707A      2.534163   708A      2.542860  
     709A      2.546756   710A      2.548975   711A      2.550629  
     712A      2.550681   713A      2.554674   714A      2.561709  
     715A      2.561986   716A      2.564507   717A      2.580954  
     718A      2.580996   719A      2.581868   720A      2.581894  
     721A      2.591609   722A      2.600999   723A      2.603805  
     724A      2.613207   725A      2.613294   726A      2.617993  
     727A      2.619555   728A      2.622329   729A      2.622527  
     730A      2.626297   731A      2.628704   732A      2.628806  
     733A      2.634654   734A      2.634848   735A      2.638126  
     736A      2.638989   737A      2.639117   738A      2.643663  
     739A      2.650333   740A      2.658293   741A      2.658326  
     742A      2.682627   743A      2.682691   744A      2.698799  
     745A      2.702290   746A      2.702704   747A      2.702763  
     748A      2.708954   749A      2.708980   750A      2.710022  
     751A      2.714458   752A      2.714502   753A      2.729293  
     754A      2.729582   755A      2.729992   756A      2.730258  
     757A      2.734961   758A      2.735228   759A      2.739096  
     760A      2.739220   761A      2.754405   762A      2.754461  
     763A      2.769368   764A      2.769394   765A      2.777627  
     766A      2.777837   767A      2.785521   768A      2.787512  
     769A      2.791343   770A      2.793837   771A      2.794032  
     772A      2.795706   773A      2.795789   774A      2.802256  
     775A      2.802318   776A      2.821224   777A      2.823183  
     778A      2.823306   779A      2.826652   780A      2.829652  
     781A      2.829889   782A      2.835973   783A      2.837001  
     784A      2.837096   785A      2.846499   786A      2.862745  
[...]
     712A      1.405457   713A      1.405477   714A      1.413062  
     715A      1.413089   716A      1.414143   717A      1.414191  
     718A      1.420150   719A      1.421941   720A      1.426043  
     721A      1.429629   722A      1.435125   723A      1.435468  
     724A      1.435522   725A      1.436835   726A      1.436874  
     727A      1.440826   728A      1.440992   729A      1.442083  
     730A      1.450567   731A      1.451306   732A      1.451325  
     733A      1.464522   734A      1.466400   735A      1.466455  
     736A      1.477392   737A      1.477549   738A      1.517499  
     739A      1.517539   740A      1.521867   741A      1.521895  
     742A      1.533552   743A      1.552398   744A      1.579674  
     745A      1.600187   746A      1.600768   747A      1.605286  
     748A      1.612846   749A      1.612934   750A      1.613096  
     751A      1.613154   752A      1.613333   753A      1.618668  
     754A      1.624727   755A      1.624795   756A      1.633013  
     757A      1.633305   758A      1.634097   759A      1.642646  
     760A      1.642681   761A      1.643614   762A      1.644358  
     763A      1.644506   764A      1.645214   765A      1.660998  
     766A      1.661014   767A      1.667688   768A      1.668817  
     769A      1.668862   770A      1.676767   771A      1.676826  
     772A      1.677024   773A      1.677106   774A      1.678392  
     775A      1.678633   776A      1.683223   777A      1.687826  
     778A      1.687875   779A      1.696135   780A      1.699192  
     781A      1.699230   782A      1.699550   783A      1.702133  
     784A      1.704897   785A      1.704967   786A      1.715891  
     787A      1.715910   788A      1.741756   789A      1.751541  
     790A      1.755524   791A      1.761122   792A      1.761321  
     793A      1.761349   794A      1.762270   795A      1.764386  
     796A      1.764581   797A      1.777022   798A      1.777046  
     799A      1.793099   800A      1.793119   801A      1.816817  
     802A      1.816858   803A      1.817863   804A      1.824866  
     805A      1.824969   806A      1.831509   807A      1.831590  
     808A      1.834792   809A      1.842465   810A      1.842707  
     811A      1.843470   812A      1.861344   813A      1.861374  
     814A      1.864247   815A      1.868060   816A      1.868080  
     817A      1.869265   818A      1.873434   819A      1.880568  
     820A      1.880609   821A      1.896748   822A      1.896834  
     823A      1.897557   824A      1.903994   825A      1.904125  
     826A      1.908804   827A      1.908911   828A      1.917440  
     829A      1.917557   830A      1.918107   831A      1.918189  
     832A      1.919316   833A      1.922198   834A      1.922276  
     835A      1.923091   836A      1.940519   837A      1.942341  
     838A      1.942996   839A      1.943177   840A      1.946719  
     841A      1.946739   842A      1.955057   843A      1.955195  
     844A      1.957430   845A      1.957471   846A      1.958108  
     847A      1.976461   848A      1.984146   849A      1.984270  
     850A      1.997184   851A      1.998679   852A      1.998713  
     853A      2.000442   854A      2.008419   855A      2.008717  
     856A      2.012859   857A      2.013033   858A      2.027947  
     859A      2.030561   860A      2.030674   861A      2.031021  
     862A      2.032049   863A      2.032164   864A      2.037868  
     865A      2.048240   866A      2.052910   867A      2.053143  
     868A      2.059778   869A      2.060678   870A      2.062133  
     871A      2.062170   872A      2.068811   873A      2.073393  
     874A      2.073679   875A      2.076773   876A      2.077739  
     877A      2.077922   878A      2.087191   879A      2.088380  
     880A      2.088509   881A      2.093500   882A      2.095745  
     883A      2.096920   884A      2.099707   885A      2.100982  
     886A      2.101055   887A      2.108817   888A      2.108848  
     889A      2.109754   890A      2.112065   891A      2.112120  
     892A      2.117793   893A      2.119840   894A      2.119962  
     895A      2.121713   896A      2.121832   897A      2.122332  
     898A      2.128279   899A      2.128435   900A      2.134660  
     901A      2.136090   902A      2.136162   903A      2.139306  
     904A      2.143442   905A      2.143474   906A      2.157061  
     907A      2.160886   908A      2.160953   909A      2.163418  
     910A      2.163449   911A      2.172072   912A      2.178494  
     913A      2.178580   914A      2.191713   915A      2.191989  
     916A      2.192595   917A      2.195214   918A      2.196004  
     919A      2.196128   920A      2.200261   921A      2.219783  
     922A      2.220453   923A      2.220485   924A      2.228180  
     925A      2.229578   926A      2.233639   927A      2.233712  
     928A      2.243482   929A      2.243785   930A      2.245150  
     931A      2.245394   932A      2.247400   933A      2.260302  
     934A      2.260417   935A      2.270297   936A      2.270308  
     937A      2.272441   938A      2.272480   939A      2.281105  
     940A      2.300255   941A      2.306740   942A      2.312854  
     943A      2.314500   944A      2.323410   945A      2.331333  
     946A      2.331433   947A      2.333754   948A      2.335792  
     949A      2.342941   950A      2.350973   951A      2.351636  
     952A      2.353530   953A      2.353790   954A      2.368067  
     955A      2.368257   956A      2.374757   957A      2.387070  
     958A      2.416251   959A      2.424079   960A      2.424505  
     961A      2.424530   962A      2.436523   963A      2.441522  
     964A      2.441575   965A      2.470057   966A      2.473755  
     967A      2.473909   968A      2.486468   969A      2.486528  
     970A      2.502373   971A      2.522128   972A      2.530176  
     973A      2.533946   974A      2.546213   975A      2.546240  
     976A      2.546704   977A      2.554370   978A      2.554440  
     979A      2.554979   980A      2.560247   981A      2.560256  
     982A      2.573062   983A      2.573098   984A      2.575543  
     985A      2.576028   986A      2.586321   987A      2.586443  
     988A      2.587920   989A      2.590285   990A      2.591461  
     991A      2.606733   992A      2.624312   993A      2.624392  
     994A      2.628959   995A      2.631935   996A      2.632430  
     997A      2.641570   998A      2.641634   999A      2.651821  
    1000A      2.652150  1001A      2.656909  1002A      2.682790  
    1003A      2.683907  1004A      2.684118  1005A      2.691500  
    1006A      2.702323  1007A      2.702640  1008A      2.713146  
    1009A      2.713155  1010A      2.718892  1011A      2.718906  
    1012A      2.723232  1013A      2.723440  1014A      2.735748  
    1015A      2.753108  1016A      2.753519  1017A      2.777682  
    1018A      2.794947  1019A      2.795079  1020A      2.819687  
    1021A      2.827144  1022A      2.827461  1023A      2.827995  
    1024A      2.828327  1025A      2.853409  1026A      2.853563  
    1027A      2.856180  1028A      2.858484  1029A      2.860007  
    1030A      2.860098  1031A      2.864275  1032A      2.888763  
    1033A      2.917680  1034A      2.917712  1035A      2.925863  
    1036A      2.934414  1037A      2.934471  1038A      2.951582  
    1039A      2.951657  1040A      2.963192  1041A      3.009913  
    1042A      3.010021  1043A      3.011941  1044A      3.037306  
    1045A      3.064493  1046A      3.064515  1047A      3.071203  
    1048A      3.071279  1049A      3.112393  1050A      3.113147  
    1051A      3.129394  1052A      3.130134  1053A      3.130400  
    1054A      3.137528  1055A      3.147244  1056A      3.147279  
    1057A      3.147736  1058A      3.149653  1059A      3.149671  
    1060A      3.159264  1061A      3.159638  1062A      3.166120  
    1063A      3.166648  1064A      3.191834  1065A      3.211192  
    1066A      3.219788  1067A      3.242130  1068A      3.276075  
    1069A      3.277136  1070A      3.277278  1071A      3.284523  
    1072A      3.284654  1073A      3.417239  1074A      3.417701  
    1075A      3.445513  1076A      3.481959  1077A      3.484589  
    1078A      3.550799  1079A      3.580351  1080A      3.582440  
    1081A      3.593956  1082A      3.626864  1083A      3.628829  
    1084A      3.663865  1085A      3.670982  1086A      3.769324  
    1087A      3.784374  1088A      3.785422  1089A      3.870930  
    1090A      3.870942  1091A      3.913714  1092A      3.913800  
    1093A      3.977049  1094A      4.011104  1095A      4.035849  
    1096A      4.047593  1097A      4.084713  1098A      4.226090  
    1099A      4.226158  1100A      4.262171  1101A      4.400774  
    1102A      5.750299  1103A      5.753405  1104A      5.753419  
    1105A      5.759484  1106A      5.759485  1107A      5.760823  
    1108A      5.765364  1109A      5.765366  1110A      5.787086  
    1111A      5.787119  1112A      5.803574  1113A      6.021938  
    1114A      6.024134  1115A      6.024468  1116A      6.197770  
    1117A      6.330155  1118A      6.330490  1119A      6.380937  
    1120A      6.381129  1121A      6.381366  1122A      7.218962  
    1123A      7.219054  1124A      7.254602  1125A      7.262671  
    1126A      7.281475  1127A      7.281561  1128A      7.353520  
    1129A      7.353579  1130A      7.485552  1131A      7.485805  
    1132A      7.586682  1133A      7.740156  1134A     12.625627  
    1135A     42.917364  1136A     42.917431  1137A     42.927152  
    1138A     42.954563  

    Final Occupation by Irrep:
              A 
    DOCC [   171 ]
    NA   [   171 ]
    NB   [   171 ]

  @DF-RHF Final Energy: -2055.89277280921260

   => Energetics <=

    Nuclear Repulsion Energy =           6452.5568002797772351
    One-Electron Energy =              -15636.4577511338138720
    Two-Electron Energy =                7128.0081780448244899
    Total Energy =                      -2055.8927728092121470

Computation Completed


Properties will be evaluated at   0.000000,   0.000000,   0.000000 [a0]

Properties computed using the SCF density matrix


 Multipole Moments:

 ------------------------------------------------------------------------------------
     Multipole            Electronic (a.u.)      Nuclear  (a.u.)        Total (a.u.)
 ------------------------------------------------------------------------------------

 L = 1.  Multiply by 2.5417464519 to convert [e a0] to [Debye]
 Dipole X            :          0.0000316            0.0000419            0.0000735
 Dipole Y            :          0.0000445           -0.0000426            0.0000019
 Dipole Z            :       -373.2917467          373.2938999            0.0021532
 Magnitude           :                                                    0.0021544

 ------------------------------------------------------------------------------------

*** tstop() called on d-3-8-3 at Mon Jan 22 09:33:20 2024
Module time:
	user time   =    2420.71 seconds =      40.35 minutes
	system time =      79.12 seconds =       1.32 minutes
	total time  =        377 seconds =       6.28 minutes
Total time:
	user time   =    6580.82 seconds =     109.68 minutes
	system time =     174.71 seconds =       2.91 minutes
	total time  =        904 seconds =      15.07 minutes
  Constructing Basis Sets for SAPT...

   => Loading Basis Set <=

    Name: (JUN-CC-PVDZ AUX)
    Role: RIFIT
    Keyword: DF_BASIS_SAPT
    atoms 1     entry B          line    56 file /home/gridsan/tfroembgen/.conda/envs/psi4test/share/psi4/basis/jun-cc-pvdz-ri.gbs 
    atoms 2-5   entry F          line   232 file /home/gridsan/tfroembgen/.conda/envs/psi4test/share/psi4/basis/jun-cc-pvdz-ri.gbs 
    atoms 6-59  entry C          line   100 file /home/gridsan/tfroembgen/.conda/envs/psi4test/share/psi4/basis/jun-cc-pvdz-ri.gbs 
    atoms 60-77 entry H          line    30 file /home/gridsan/tfroembgen/.conda/envs/psi4test/share/psi4/basis/jun-cc-pvdz-ri.gbs 

   => Loading Basis Set <=

    Name: (JUN-CC-PVDZ AUX)
    Role: JKFIT
    Keyword: DF_BASIS_ELST
    atoms 1     entry B          line    90 file /home/gridsan/tfroembgen/.conda/envs/psi4test/share/psi4/basis/jun-cc-pvdz-jkfit.gbs 
    atoms 2-5   entry F          line   314 file /home/gridsan/tfroembgen/.conda/envs/psi4test/share/psi4/basis/jun-cc-pvdz-jkfit.gbs 
    atoms 6-59  entry C          line   146 file /home/gridsan/tfroembgen/.conda/envs/psi4test/share/psi4/basis/jun-cc-pvdz-jkfit.gbs 
    atoms 60-77 entry H          line    70 file /home/gridsan/tfroembgen/.conda/envs/psi4test/share/psi4/basis/jun-cc-pvdz-jkfit.gbs 


  //>>>>>>>>>>>>>>>>>>>>>>>>>>>>>>>>>>>//
  //               SSAPT0              //
  //<<<<<<<<<<<<<<<<<<<<<<<<<<<<<<<<<<<//


*** tstart() called on d-3-8-3
*** at Mon Jan 22 09:33:21 2024

        SAPT0  
    Ed Hohenstein
     6 June 2009

      Orbital Information
  --------------------------
    NSO        =      1152
    NMO        =      1138
    NRI        =      4087
    NRI (Elst) =      5075
    NOCC A     =        21
    NOCC B     =       171
    FOCC A     =         5
    FOCC B     =        54
    NVIR A     =      1117
    NVIR B     =       967

    Elst10,r            =     0.010950451412 [Eh]
    Exch10              =     0.000456709287 [Eh]
    Exch10 (S^2)        =     0.000456758177 [Eh]

    Iter     Energy [mEh]          dE [mEh]         Residual      Time [s]
       1      -0.03677707       0.036777067       0.969965800           312
       2      -0.04272753       0.005950462       0.437557649           544
       3      -0.04406911       0.001341580       0.072370491           761
       4      -0.04395994      -0.000109165       0.019800066           780
       5      -0.04394198      -0.000017961       0.003293973           795
       6      -0.04394609       0.000004112       0.001150679           810
       7      -0.04394697       0.000000880       0.000271299           824
       8      -0.04394666      -0.000000313       0.000067566           838
       9      -0.04394662      -0.000000043       0.000010439           903
      10      -0.04394663       0.000000013       0.000001682           918
      11      -0.04394663      -0.000000000       0.000000362           933

    CHF Iterations converged


    Iter     Energy [mEh]          dE [mEh]         Residual      Time [s]
       1     -10.31121418      10.311214185      53.787367908           249
       2      -6.94506369      -3.366150497       7.013386525           442
       3      -6.93345151      -0.011612177       2.385000843           507
       4      -7.09217074       0.158719229       0.571018473           579
       5      -7.10161165       0.009440908       0.172293346           603
       6      -7.09729255      -0.004319100       0.081975506           664
       7      -7.09640251      -0.000890036       0.035910111           719
       8      -7.09706833       0.000665822       0.017941740           738
       9      -7.09724809       0.000179756       0.011731370           758
      10      -7.09709170      -0.000156392       0.007844198           775
      11      -7.09706458      -0.000027118       0.003083592           793
      12      -7.09708909       0.000024514       0.001331574           811
      13      -7.09709885       0.000009752       0.000498376           828
      14      -7.09709761      -0.000001239       0.000177747           884
      15      -7.09709542      -0.000002190       0.000061032           903
      16      -7.09709586       0.000000444       0.000030799           921
      17      -7.09709605       0.000000192       0.000013425           943
      18      -7.09709603      -0.000000021       0.000004993           961
      19      -7.09709598      -0.000000050       0.000001749           982
      20      -7.09709598      -0.000000002       0.000000623          1001

    CHF Iterations converged

    Ind20,r (A<-B)      =    -0.000043946632 [Eh]
    Ind20,r (B<-A)      =    -0.007097095979 [Eh]
    Ind20,r             =    -0.007141042611 [Eh]
    Exch-Ind20,r (A<-B) =     0.000030252638 [Eh]
    Exch-Ind20,r (B<-A) =     0.000039343351 [Eh]
    Exch-Ind20,r        =     0.000069595988 [Eh]
    Disp20              =    -0.002741136715 [Eh]
    Disp20 (SS)         =    -0.001370568358 [Eh]
    Disp20 (OS)         =    -0.001370568358 [Eh]
    Exch-Disp20         =     0.000089591684 [Eh]
    Exch-Disp20 (SS)    =     0.000056938091 [Eh]
    Exch-Disp20 (OS)    =     0.000032653594 [Eh]

    SAPT Results 
  --------------------------------------------------------------------------------------------------------
    Electrostatics                 10.95045141 [mEh]       6.87151200 [kcal/mol]      28.75040622 [kJ/mol]
      Elst10,r                     10.95045141 [mEh]       6.87151200 [kcal/mol]      28.75040622 [kJ/mol]

    Exchange                        0.45670929 [mEh]       0.28658940 [kcal/mol]       1.19909007 [kJ/mol]
      Exch10                        0.45670929 [mEh]       0.28658940 [kcal/mol]       1.19909007 [kJ/mol]
      Exch10(S^2)                   0.45675818 [mEh]       0.28662008 [kcal/mol]       1.19921843 [kJ/mol]

    Induction                      -7.02432068 [mEh]      -4.40782777 [kcal/mol]     -18.44235140 [kJ/mol]
      Ind20,r                      -7.14104261 [mEh]      -4.48107189 [kcal/mol]     -18.74880479 [kJ/mol]
      Exch-Ind20,r                  0.06959599 [mEh]       0.04367214 [kcal/mol]       0.18272424 [kJ/mol]
      delta HF,r (2)                0.04712595 [mEh]       0.02957198 [kcal/mol]       0.12372915 [kJ/mol]

    Dispersion                     -2.65154503 [mEh]      -1.66386963 [kcal/mol]      -6.96163052 [kJ/mol]
      Disp20                       -2.74113672 [mEh]      -1.72008926 [kcal/mol]      -7.19685345 [kJ/mol]
      Exch-Disp20                   0.08959168 [mEh]       0.05621963 [kcal/mol]       0.23522294 [kJ/mol]
      Disp20 (SS)                  -1.37056836 [mEh]      -0.86004463 [kcal/mol]      -3.59842673 [kJ/mol]
      Disp20 (OS)                  -1.37056836 [mEh]      -0.86004463 [kcal/mol]      -3.59842673 [kJ/mol]
      Exch-Disp20 (SS)              0.05693809 [mEh]       0.03572919 [kcal/mol]       0.14949094 [kJ/mol]
      Exch-Disp20 (OS)              0.03265359 [mEh]       0.02049044 [kcal/mol]       0.08573200 [kJ/mol]

  Total HF                          4.38284002 [mEh]       2.75027364 [kcal/mol]      11.50714489 [kJ/mol]
  Total SAPT0                       1.73129499 [mEh]       1.08640401 [kcal/mol]       4.54551437 [kJ/mol]

  Special recipe for scaled SAPT0 (see Manual):
    Electrostatics sSAPT0          10.95045141 [mEh]       6.87151200 [kcal/mol]      28.75040622 [kJ/mol]
    Exchange sSAPT0                 0.45670929 [mEh]       0.28658940 [kcal/mol]       1.19909007 [kJ/mol]
    Induction sSAPT0               -7.02434302 [mEh]      -4.40784179 [kcal/mol]     -18.44241007 [kJ/mol]
    Dispersion sSAPT0              -2.65157380 [mEh]      -1.66388768 [kcal/mol]      -6.96170605 [kJ/mol]
  Total sSAPT0                      1.73124388 [mEh]       1.08637193 [kcal/mol]       4.54538018 [kJ/mol]
  --------------------------------------------------------------------------------------------------------

*** tstop() called on d-3-8-3 at Mon Jan 22 10:34:34 2024
Module time:
	user time   =    6479.32 seconds =     107.99 minutes
	system time =     768.52 seconds =      12.81 minutes
	total time  =       3673 seconds =      61.22 minutes
Total time:
	user time   =   13061.39 seconds =     217.69 minutes
	system time =     943.23 seconds =      15.72 minutes
	total time  =       4578 seconds =      76.30 minutes

    Psi4 stopped on: Monday, 22 January 2024 10:34AM
    Psi4 wall time for execution: 1:16:19.65

*** Psi4 exiting successfully. Buy a developer a beer!
