
    -----------------------------------------------------------------------
          Psi4: An Open-Source Ab Initio Electronic Structure Package
                               Psi4 1.9 release

                         Git: Rev {} zzzzzzz 


    D. G. A. Smith, L. A. Burns, A. C. Simmonett, R. M. Parrish,
    M. C. Schieber, R. Galvelis, P. Kraus, H. Kruse, R. Di Remigio,
    A. Alenaizan, A. M. James, S. Lehtola, J. P. Misiewicz, M. Scheurer,
    R. A. Shaw, J. B. Schriber, Y. Xie, Z. L. Glick, D. A. Sirianni,
    J. S. O'Brien, J. M. Waldrop, A. Kumar, E. G. Hohenstein,
    B. P. Pritchard, B. R. Brooks, H. F. Schaefer III, A. Yu. Sokolov,
    K. Patkowski, A. E. DePrince III, U. Bozkaya, R. A. King,
    F. A. Evangelista, J. M. Turney, T. D. Crawford, C. D. Sherrill,
    J. Chem. Phys. 152(18) 184108 (2020). https://doi.org/10.1063/5.0006002

                            Additional Code Authors
    E. T. Seidl, C. L. Janssen, E. F. Valeev, M. L. Leininger,
    J. F. Gonthier, R. M. Richard, H. R. McAlexander, M. Saitow, X. Wang,
    P. Verma, M. H. Lechner, A. Jiang, S. Behnle, A. G. Heide,
    M. F. Herbst, and D. L. Poole

             Previous Authors, Complete List of Code Contributors,
                       and Citations for Specific Modules
    https://github.com/psi4/psi4/blob/master/codemeta.json
    https://github.com/psi4/psi4/graphs/contributors
    http://psicode.org/psi4manual/master/introduction.html#citing-psifour

    -----------------------------------------------------------------------


    Psi4 started on: Monday, 22 January 2024 10:16PM

    Process ID: 893121
    Host:       d-16-13-4
    PSIDATADIR: /home/gridsan/tfroembgen/.conda/envs/psi4test/share/psi4
    Memory:     500.0 MiB
    Threads:    12
    
  ==> Input File <==

--------------------------------------------------------------------------
memory 32 GB # how much memory is available ! Depends on the nodes/cores !

molecule dimer {
# monomer A
+1 1    # Charge and multiplicity
C  0.680067 1.417258 -8.015929
C -0.680504 1.419286 -8.015545
N -1.085635 1.420284 -6.697221
C  0.000108 1.423560 -5.915820
C -2.477365 1.469690 -6.229242
N  1.085222 1.420284 -6.697221
H  1.385146 1.409430 -8.833368
H -1.385302 1.419096 -8.833214
H -0.000009 1.425307 -4.834731
C  2.478117 1.403392 -6.232123
H  2.490592 1.430737 -5.141870
H  2.967028 0.489946 -6.579299
H  3.001428 2.278875 -6.623595
H -2.857359 2.491761 -6.309201
H -3.082679 0.799606 -6.842306
H -2.518128 1.142706 -5.189294
--
# monomer B
0 1     # Charge and multiplicity
C   1.22531237526482      0.70753866091955      0.00613762728373
C   1.22532433589282     -0.70753852257020     -0.00619318228664
C   -0.00000567409046      1.41496628609039     -0.00672680580738
C   2.45644923379077      1.41832825917820      0.00902448468363
C   0.00001130712078     -1.41497612663474      0.00347275151708
C   -1.22530046906674      0.70754574598412      0.00838914760619
C   2.45643823516184     -1.41832293188077     -0.00843833914343
C   -0.00000085313587      2.83680140328112     -0.00913035594137
C   3.68182717731192      0.70931832800114     -0.00808954934571
C   2.45512052870677      2.83422403348893     -0.00819210630633
C   3.68182158506039     -0.70933346742900      0.00798293467272
C   -1.22531311884624     -0.70752714354401     -0.00512042085974
C   1.22670006104402      3.54346985599427      0.00816696660346
C   0.00000526469929     -2.83678176723568      0.00832091913869
C   -2.45643555300670      1.41831729028492      0.00842454345199
C   2.45512389762097     -2.83422965658853      0.00783102630520
C   -1.22671388474763      3.54346943575023      0.00827029982280
C   4.91451777504333      1.42717324448953     -0.00160886631602
C   3.69315067131765      3.54279566454522     -0.00155906667985
C   -2.45643712022637     -1.41831290883911     -0.00846337726810
C   1.22670532178455     -3.54347386990643     -0.00780316414624
C   -2.45512491866593      2.83421703463423     -0.00818572995999
C   4.91452486062398     -1.42718653794377      0.00136387641845
C   1.22142509354026      4.97013443726031      0.00150231067809
C   4.89300870916237      2.82518837202648     -0.00039219795739
C   -1.22669652864725     -3.54347062507680     -0.00753595973677
C   -3.68181849668397      0.70932533873199     -0.00807686886569
C   3.69314758099218     -3.54280096939050      0.00148176697923
C   -1.22143177215231      4.97012866986289      0.00168580605083
C   6.13477145276790      0.68054831910577     -0.00083909176631
C   3.65678936045204      4.97295361556775     -0.00065042889723
C   -2.45512642789169     -2.83421472106065      0.00758666850712
C   -3.68181869921921     -0.70932533146830      0.00810055625144
C   4.89301309775526     -2.82519973363176      0.00021895393805
C   -0.00000059327114      5.65044773803267      0.00045449734393
C   6.13477559217374     -0.68055448207492      0.00042622874941
C   2.47813196269732      5.65357712333155      0.00063835075260
C   1.22142288457925     -4.97012668293268     -0.00129718634452
C   -3.69316190412301      3.54279732619245     -0.00139355922051
C   -1.22142804110313     -4.97011793159564     -0.00140994817719
C   -4.91452132810043      1.42717581899491     -0.00153192130862
C   3.65678749952045     -4.97295485423912      0.00080007163680
C   -2.47813805026426      5.65357479452875      0.00092287576113
C   -3.69314125872231     -3.54278984697859      0.00136564082345
C   -4.91451200321153     -1.42718062802730      0.00139857359209
C   -0.00000552908399     -5.65043791501335      0.00005899322272
C   -4.89302000425900      2.82518897091939     -0.00040227981744
C   2.47812647313991     -5.65357317188818     -0.00029052915548
C   -3.65679823041642      4.97295655404175     -0.00047374852278
C   -4.89299899901461     -2.82519139505969      0.00006491824035
C   -2.47812801824129     -5.65356579800621     -0.00056571680280
C   -6.13477002348955      0.68054913825639     -0.00086464346868
C   -3.65678835334731     -4.97294365097028      0.00058578382008
C   -6.13476456307132     -0.68055354348201      0.00040575295444
H   5.83528897565761      3.36927626695423      0.00396712770529
H   7.07385965258860      1.22821762089947     -0.00037744837300
H   4.60066374401555      5.51238117445323     -0.00014522814529
H   5.83528386714679     -3.36930568472863     -0.00423551337640
H   -0.00001167146422      6.73853104613662     -0.00389474766392
H   7.07386165167227     -1.22822657074368     -0.00008250934481
H   2.47331421164041      6.74068466339473      0.00017162982210
H   4.60066897122302     -5.51237575717576      0.00039007446835
H   -2.47331820069565      6.74068209160650      0.00047297644710
H   -0.00000978838621     -6.73852780445195      0.00458867820736
H   -5.83530143450167      3.36927132229595      0.00410314985360
H   2.47330840367253     -6.74068500242887      0.00027980126949
H   -4.60067436136587      5.51237839860371      0.00002010017831
H   -5.83527902699321     -3.36928859177951     -0.00451481925734
H   -2.47329986759855     -6.74067870613986     -0.00016951527498
H   -7.07385728692578      1.22822084484047     -0.00046143985387
H   -4.60067330624313     -5.51236229778631      0.00021776644566
H   -7.07385645456741     -1.22822025997701     -0.00017736581114

    units angstrom      # Angstroms are the default
    no_reorient         # Geometry fixed, default
    symmetry c1         # C1 symmetry, default
}

set {
    scf_type DF         # Density fitting, faster than exact integrals
    freeze_core True    # Freeze core electrons
    basis jun-cc-pVDZ   # Jun-cc-pVDZ basis set, recommended for sSAPT0 in https://doi.org/10.1063/1.4867135
}

energy('ssapt0')        # Compute sSAPT0 energy, includes also SAPT0
--------------------------------------------------------------------------

  Memory set to  29.802 GiB by Python driver.

Scratch directory: /state/partition1/slurm_tmp/24798307.4294967291.0/
   => Loading Basis Set <=

    Name: JUN-CC-PVDZ
    Role: ORBITAL
    Keyword: BASIS
    atoms 1-2, 4-5, 10, 17-70 entry C          line   164 file /home/gridsan/tfroembgen/.conda/envs/psi4test/share/psi4/basis/jun-cc-pvdz.gbs 
    atoms 3, 6                entry N          line   198 file /home/gridsan/tfroembgen/.conda/envs/psi4test/share/psi4/basis/jun-cc-pvdz.gbs 
    atoms 7-9, 11-16, 71-88   entry H          line    36 file /home/gridsan/tfroembgen/.conda/envs/psi4test/share/psi4/basis/jun-cc-pvdz.gbs 

   => Loading Basis Set <=

    Name: JUN-CC-PVDZ
    Role: ORBITAL
    Keyword: BASIS
    atoms 1-2, 4-5, 10, 17-70 entry C          line   164 file /home/gridsan/tfroembgen/.conda/envs/psi4test/share/psi4/basis/jun-cc-pvdz.gbs 
    atoms 3, 6                entry N          line   198 file /home/gridsan/tfroembgen/.conda/envs/psi4test/share/psi4/basis/jun-cc-pvdz.gbs 
    atoms 7-9, 11-16, 71-88   entry H          line    36 file /home/gridsan/tfroembgen/.conda/envs/psi4test/share/psi4/basis/jun-cc-pvdz.gbs 


  //>>>>>>>>>>>>>>>>>>>>>>>>>>>>>>>>>>>//
  //              Dimer HF             //
  //<<<<<<<<<<<<<<<<<<<<<<<<<<<<<<<<<<<//

   => Libint2 <=

    Primary   basis highest AM E, G, H:  7, 7, 4
    Auxiliary basis highest AM E, G, H:  7, 7, 5
    Onebody   basis highest AM E, G, H:  7, 7, 5
    Solid Harmonics ordering:            gaussian

*** tstart() called on d-16-13-4
*** at Mon Jan 22 22:16:19 2024

   => Loading Basis Set <=

    Name: JUN-CC-PVDZ
    Role: ORBITAL
    Keyword: BASIS
    atoms 1-2, 4-5, 10, 17-70 entry C          line   164 file /home/gridsan/tfroembgen/.conda/envs/psi4test/share/psi4/basis/jun-cc-pvdz.gbs 
    atoms 3, 6                entry N          line   198 file /home/gridsan/tfroembgen/.conda/envs/psi4test/share/psi4/basis/jun-cc-pvdz.gbs 
    atoms 7-9, 11-16, 71-88   entry H          line    36 file /home/gridsan/tfroembgen/.conda/envs/psi4test/share/psi4/basis/jun-cc-pvdz.gbs 


         ---------------------------------------------------------
                                   SCF
               by Justin Turney, Rob Parrish, Andy Simmonett
                          and Daniel G. A. Smith
                              RHF Reference
                       12 Threads,  30517 MiB Core
         ---------------------------------------------------------

  ==> Geometry <==

    Molecular point group: c1
    Full point group: C1

    Geometry (in Angstrom), charge = 1, multiplicity = 1:

       Center              X                  Y                   Z               Mass       
    ------------   -----------------  -----------------  -----------------  -----------------
         C            0.680066520158     1.235968212970    -7.151012993311    12.000000000000
         C           -0.680504479842     1.237996212970    -7.150628993311    12.000000000000
         N           -1.085635479842     1.238994212970    -5.832304993311    14.003074004430
         C            0.000107520158     1.242270212970    -5.050903993311    12.000000000000
         C           -2.477365479842     1.288400212970    -5.364325993311    12.000000000000
         N            1.085221520158     1.238994212970    -5.832304993311    14.003074004430
         H            1.385145520158     1.228140212970    -7.968451993311     1.007825032230
         H           -1.385302479842     1.237806212970    -7.968297993311     1.007825032230
         H           -0.000009479842     1.244017212970    -3.969814993311     1.007825032230
         C            2.478116520158     1.222102212970    -5.367206993311    12.000000000000
         H            2.490591520158     1.249447212970    -4.276953993311     1.007825032230
         H            2.967027520158     0.308656212970    -5.714382993311     1.007825032230
         H            3.001427520158     2.097585212970    -5.758678993311     1.007825032230
         H           -2.857359479842     2.310471212970    -5.444284993311     1.007825032230
         H           -3.082679479842     0.618316212970    -5.977389993311     1.007825032230
         H           -2.518128479842     0.961416212970    -4.324377993311     1.007825032230
         C            1.225311895423     0.526248873889     0.871053633973    12.000000000000
         C            1.225323856051    -0.888828309601     0.858722824403    12.000000000000
         C           -0.000006153932     1.233676499060     0.858189200882    12.000000000000
         C            2.456448753949     1.237038472148     0.873940491373    12.000000000000
         C            0.000010827279    -1.596265913665     0.868388758206    12.000000000000
         C           -1.225300948908     0.526255958954     0.873305154296    12.000000000000
         C            2.456437755320    -1.599612718911     0.856477667546    12.000000000000
         C           -0.000001332978     2.655511616251     0.855785650748    12.000000000000
         C            3.681826697470     0.528028540971     0.856826457344    12.000000000000
         C            2.455120048865     2.652934246459     0.856723900383    12.000000000000
         C            3.681821105219    -0.890623254459     0.872898941362    12.000000000000
         C           -1.225313598688    -0.888816930574     0.859795585830    12.000000000000
         C            1.226699581202     3.362180068964     0.873082973293    12.000000000000
         C            0.000004784858    -3.018071554266     0.873236925828    12.000000000000
         C           -2.456436032848     1.237027503255     0.873340550141    12.000000000000
         C            2.455123417779    -3.015519443619     0.872747032995    12.000000000000
         C           -1.226714364589     3.362179648720     0.873186306512    12.000000000000
         C            4.914517295202     1.245883457459     0.863307140373    12.000000000000
         C            3.693150191476     3.361505877515     0.863356940010    12.000000000000
         C           -2.456437600068    -1.599602695869     0.856452629421    12.000000000000
         C            1.226704841943    -3.724763656937     0.857112842543    12.000000000000
         C           -2.455125398508     2.652927247604     0.856730276729    12.000000000000
         C            4.914524380782    -1.608476324974     0.866279883108    12.000000000000
         C            1.221424613699     4.788844650230     0.866418317367    12.000000000000
         C            4.893008229321     2.643898584996     0.864523808732    12.000000000000
         C           -1.226697008489    -3.724760412107     0.857380046953    12.000000000000
         C           -3.681818976526     0.528035551702     0.856839137824    12.000000000000
         C            3.693147101150    -3.724090756421     0.866397773669    12.000000000000
         C           -1.221432251994     4.788838882833     0.866601812740    12.000000000000
         C            6.134770972926     0.499258532075     0.864076914923    12.000000000000
         C            3.656788880610     4.791663828537     0.864265577792    12.000000000000
         C           -2.455126907733    -3.015504508091     0.872502675196    12.000000000000
         C           -3.681819179061    -0.890615118499     0.873016562941    12.000000000000
         C            4.893012617914    -3.006489520662     0.865134960627    12.000000000000
         C           -0.000001073113     5.469157951002     0.865370504033    12.000000000000
         C            6.134775112332    -0.861844269105     0.865342235439    12.000000000000
         C            2.478131482856     5.472287336301     0.865554357442    12.000000000000
         C            1.221422404738    -5.151416469963     0.863618820345    12.000000000000
         C           -3.693162383965     3.361507539162     0.863522447469    12.000000000000
         C           -1.221428520945    -5.151407718626     0.863506058512    12.000000000000
         C           -4.914521807942     1.245886031965     0.863384085381    12.000000000000
         C            3.656787019679    -5.154244641269     0.865716078326    12.000000000000
         C           -2.478138530106     5.472285007498     0.865838882450    12.000000000000
         C           -3.693141738564    -3.724079634009     0.866281647513    12.000000000000
         C           -4.914512483053    -1.608470415058     0.866314580281    12.000000000000
         C           -0.000006008926    -5.831727702044     0.864974999912    12.000000000000
         C           -4.893020484101     2.643899183889     0.864513726872    12.000000000000
         C            2.478125993298    -5.834862958919     0.864625477534    12.000000000000
         C           -3.656798710258     4.791666767011     0.864442258167    12.000000000000
         C           -4.892999478856    -3.006481182090     0.864980924930    12.000000000000
         C           -2.478128498083    -5.834855585037     0.864350289887    12.000000000000
         C           -6.134770503331     0.499259351226     0.864051363221    12.000000000000
         C           -3.656788833189    -5.154233438001     0.865501790509    12.000000000000
         C           -6.134765042913    -0.861843330512     0.865321759644    12.000000000000
         H            5.835288495816     3.187986479924     0.868883134395     1.007825032230
         H            7.073859172747     1.046927833869     0.864538558316     1.007825032230
         H            4.600663264174     5.331091387423     0.864770778544     1.007825032230
         H            5.835283387305    -3.550595471759     0.860680493313     1.007825032230
         H           -0.000012151306     6.557241259106     0.861021259025     1.007825032230
         H            7.073861171831    -1.409516357774     0.864833497345     1.007825032230
         H            2.473313731799     6.559394876364     0.865087636511     1.007825032230
         H            4.600668491381    -5.693665544206     0.865306081158     1.007825032230
         H           -2.473318680537     6.559392304576     0.865388983136     1.007825032230
         H           -0.000010268228    -6.919817591482     0.869504684897     1.007825032230
         H           -5.835301914343     3.187981535266     0.869019156543     1.007825032230
         H            2.473307923831    -6.921974789459     0.865195807959     1.007825032230
         H           -4.600674841208     5.331088611573     0.864936106868     1.007825032230
         H           -5.835279506835    -3.550578378810     0.860401187432     1.007825032230
         H           -2.473300347440    -6.921968493170     0.864746491414     1.007825032230
         H           -7.073857766768     1.046931057810     0.864454566835     1.007825032230
         H           -4.600673786085    -5.693652084817     0.865133773135     1.007825032230
         H           -7.073856934409    -1.409510047007     0.864738640878     1.007825032230

  Running in c1 symmetry.

  Rotational constants: A =      0.00145  B =      0.00143  C =      0.00107 [cm^-1]
  Rotational constants: A =     43.33157  B =     42.95167  C =     32.00183 [MHz]
  Nuclear repulsion = 7908.668483052654665

  Charge       = 1
  Multiplicity = 1
  Electrons    = 394
  Nalpha       = 197
  Nbeta        = 197

  ==> Algorithm <==

  SCF Algorithm Type is DF.
  DIIS enabled.
  MOM disabled.
  Fractional occupation disabled.
  Guess Type is SAD.
  Energy threshold   = 1.00e-08
  Density threshold  = 1.00e-08
  Integral threshold = 1.00e-12

  ==> Primary Basis <==

  Basis Set: JUN-CC-PVDZ
    Blend: JUN-CC-PVDZ
    Number of shells: 569
    Number of basis functions: 1233
    Number of Cartesian functions: 1294
    Spherical Harmonics?: true
    Max angular momentum: 2

   => Loading Basis Set <=

    Name: (JUN-CC-PVDZ AUX)
    Role: JKFIT
    Keyword: DF_BASIS_SCF
    atoms 1-2, 4-5, 10, 17-70 entry C          line   146 file /home/gridsan/tfroembgen/.conda/envs/psi4test/share/psi4/basis/jun-cc-pvdz-jkfit.gbs 
    atoms 3, 6                entry N          line   202 file /home/gridsan/tfroembgen/.conda/envs/psi4test/share/psi4/basis/jun-cc-pvdz-jkfit.gbs 
    atoms 7-9, 11-16, 71-88   entry H          line    70 file /home/gridsan/tfroembgen/.conda/envs/psi4test/share/psi4/basis/jun-cc-pvdz-jkfit.gbs 

  ==> Integral Setup <==

  ==> DiskDFJK: Density-Fitted J/K Matrices <==

    J tasked:                  Yes
    K tasked:                  Yes
    wK tasked:                  No
    OpenMP threads:             12
    Integrals threads:          12
    Memory [MiB]:            22888
    Algorithm:                Core
    Integral Cache:           SAVE
    Schwarz Cutoff:          1E-12
    Fitting Condition:       1E-10

   => Auxiliary Basis Set <=

  Basis Set: (JUN-CC-PVDZ AUX)
    Blend: JUN-CC-PVDZ-JKFIT
    Number of shells: 1890
    Number of basis functions: 5440
    Number of Cartesian functions: 6226
    Spherical Harmonics?: true
    Max angular momentum: 3

  Minimum eigenvalue in the overlap matrix is 8.3773575937E-10.
  Reciprocal condition number of the overlap matrix is 3.7407494945E-11.
    Using canonical orthogonalization.
  Overall, 14 of 1233 possible MOs eliminated.


  ==> Pre-Iterations <==

  SCF Guess: Superposition of Atomic Densities via on-the-fly atomic UHF (no occupation information).

   -------------------------
    Irrep   Nso     Nmo    
   -------------------------
     A       1233    1219 
   -------------------------
    Total    1233    1219
   -------------------------

  ==> Iterations <==

                           Total Energy        Delta E     RMS |[F,P]|

   @DF-RHF iter SAD: -2365.39617163208140   -2.36540e+03   0.00000e+00 
   @DF-RHF iter   1: -2358.19561238501637    7.20056e+00   9.46686e-04 DIIS/ADIIS
   @DF-RHF iter   2: -2359.09415882260600   -8.98546e-01   3.21954e-04 DIIS/ADIIS
   @DF-RHF iter   3: -2359.18536159568112   -9.12028e-02   1.17862e-04 DIIS/ADIIS
   @DF-RHF iter   4: -2359.19843872971569   -1.30771e-02   4.39414e-05 DIIS
   @DF-RHF iter   5: -2359.20031908532155   -1.88036e-03   9.70126e-06 DIIS
   @DF-RHF iter   6: -2359.20049182374896   -1.72738e-04   4.96292e-06 DIIS
   @DF-RHF iter   7: -2359.20055782541567   -6.60017e-05   2.22007e-06 DIIS
   @DF-RHF iter   8: -2359.20057771801066   -1.98926e-05   1.14163e-06 DIIS
   @DF-RHF iter   9: -2359.20058250634065   -4.78833e-06   2.63257e-07 DIIS
   @DF-RHF iter  10: -2359.20058274840949   -2.42069e-07   9.11403e-08 DIIS
   @DF-RHF iter  11: -2359.20058276698001   -1.85705e-08   3.59917e-08 DIIS
   @DF-RHF iter  12: -2359.20058277100770   -4.02770e-09   1.91065e-08 DIIS
   @DF-RHF iter  13: -2359.20058277178896   -7.81256e-10   8.43709e-09 DIIS
  Energy and wave function converged.


  ==> Post-Iterations <==

    Orbital Energies [Eh]
    ---------------------

    Doubly Occupied:                                                      

       1A    -15.821343     2A    -15.820829     3A    -11.515899  
       4A    -11.447977     5A    -11.446421     6A    -11.436115  
       7A    -11.436035     8A    -11.325351     9A    -11.324592  
      10A    -11.324290    11A    -11.323784    12A    -11.323445  
      13A    -11.323311    14A    -11.322819    15A    -11.322801  
      16A    -11.322374    17A    -11.321858    18A    -11.321706  
      19A    -11.321176    20A    -11.321151    21A    -11.320803  
      22A    -11.320793    23A    -11.320683    24A    -11.320660  
      25A    -11.320552    26A    -11.320544    27A    -11.320000  
      28A    -11.319975    29A    -11.319739    30A    -11.319656  
      31A    -11.319649    32A    -11.318886    33A    -11.318883  
      34A    -11.318360    35A    -11.318318    36A    -11.317961  
      37A    -11.317957    38A    -11.317598    39A    -11.317506  
      40A    -11.317087    41A    -11.317078    42A    -11.316359  
      43A    -11.316327    44A    -11.313839    45A    -11.313308  
      46A    -11.313300    47A    -11.313030    48A    -11.313020  
      49A    -11.311865    50A    -11.311858    51A    -11.311445  
      52A    -11.311437    53A    -11.310911    54A    -11.310907  
      55A    -11.309937    56A    -11.309930    57A    -11.309680  
      58A    -11.308892    59A    -11.308884    60A    -11.307447  
      61A    -11.307439    62A     -1.565182    63A     -1.420667  
      64A     -1.307528    65A     -1.282212    66A     -1.282018  
      67A     -1.251146    68A     -1.251140    69A     -1.243452  
      70A     -1.225919    71A     -1.218422    72A     -1.210416  
      73A     -1.197703    74A     -1.197569    75A     -1.176013  
      76A     -1.173954    77A     -1.173931    78A     -1.144241  
      79A     -1.144219    80A     -1.140440    81A     -1.126536  
      82A     -1.126507    83A     -1.105567    84A     -1.100421  
      85A     -1.086601    86A     -1.084155    87A     -1.084050  
      88A     -1.078343    89A     -1.073112    90A     -1.048558  
      91A     -1.048521    92A     -1.022605    93A     -1.022600  
      94A     -1.009825    95A     -0.983652    96A     -0.955281  
      97A     -0.955208    98A     -0.950247    99A     -0.948345  
     100A     -0.948238   101A     -0.942924   102A     -0.942905  
     103A     -0.922570   104A     -0.903835   105A     -0.897175  
     106A     -0.879208   107A     -0.878441   108A     -0.873545  
     109A     -0.873513   110A     -0.854976   111A     -0.854955  
     112A     -0.837431   113A     -0.808493   114A     -0.806472  
     115A     -0.803667   116A     -0.799360   117A     -0.795048  
     118A     -0.794952   119A     -0.792521   120A     -0.792423  
     121A     -0.777570   122A     -0.777347   123A     -0.773072  
     124A     -0.769527   125A     -0.759751   126A     -0.759627  
     127A     -0.754668   128A     -0.754552   129A     -0.721489  
     130A     -0.715981   131A     -0.714289   132A     -0.712776  
     133A     -0.712178   134A     -0.710368   135A     -0.710363  
     136A     -0.704027   137A     -0.699902   138A     -0.699879  
     139A     -0.690877   140A     -0.688675   141A     -0.688656  
     142A     -0.670590   143A     -0.664583   144A     -0.663088  
     145A     -0.660260   146A     -0.660142   147A     -0.655029  
     148A     -0.652934   149A     -0.652877   150A     -0.644765  
     151A     -0.639153   152A     -0.638853   153A     -0.627504  
     154A     -0.627409   155A     -0.627112   156A     -0.627017  
     157A     -0.620011   158A     -0.614913   159A     -0.614820  
     160A     -0.599946   161A     -0.599941   162A     -0.598801  
     163A     -0.598675   164A     -0.591046   165A     -0.590320  
     166A     -0.583569   167A     -0.583484   168A     -0.583456  
     169A     -0.560523   170A     -0.556403   171A     -0.553509  
     172A     -0.549283   173A     -0.546309   174A     -0.542590  
     175A     -0.542490   176A     -0.532873   177A     -0.532697  
     178A     -0.512868   179A     -0.512706   180A     -0.511604  
     181A     -0.499674   182A     -0.499642   183A     -0.466824  
     184A     -0.466816   185A     -0.465549   186A     -0.435710  
     187A     -0.435702   188A     -0.410328   189A     -0.400887  
     190A     -0.399854   191A     -0.399774   192A     -0.371937  
     193A     -0.357834   194A     -0.346577   195A     -0.346526  
     196A     -0.286037   197A     -0.285971  

    Virtual:                                                              

     198A     -0.055591   199A     -0.050372   200A     -0.047190  
     201A     -0.047060   202A     -0.043712   203A     -0.035231  
     204A     -0.021531   205A     -0.020069   206A     -0.018351  
     207A     -0.011301   208A     -0.005111   209A     -0.001461  
     210A      0.001641   211A      0.001865   212A      0.002637  
     213A      0.002821   214A      0.003250   215A      0.005551  
     216A      0.007959   217A      0.009374   218A      0.010315  
     219A      0.011515   220A      0.014851   221A      0.016949  
     222A      0.024382   223A      0.025073   224A      0.025239  
     225A      0.026585   226A      0.026750   227A      0.028439  
     228A      0.029448   229A      0.030314   230A      0.033189  
     231A      0.037693   232A      0.039341   233A      0.040808  
     234A      0.041184   235A      0.041328   236A      0.043750  
     237A      0.050756   238A      0.052340   239A      0.053382  
     240A      0.054176   241A      0.058553   242A      0.058633  
     243A      0.060751   244A      0.062064   245A      0.062129  
     246A      0.065620   247A      0.068588   248A      0.069523  
     249A      0.071357   250A      0.073278   251A      0.076098  
     252A      0.079481   253A      0.079651   254A      0.083616  
     255A      0.083995   256A      0.084366   257A      0.084985  
     258A      0.087898   259A      0.088352   260A      0.092150  
     261A      0.094515   262A      0.098263   263A      0.099084  
     264A      0.100279   265A      0.101032   266A      0.105114  
     267A      0.105828   268A      0.108542   269A      0.108909  
     270A      0.110323   271A      0.113778   272A      0.118635  
     273A      0.120231   274A      0.121270   275A      0.122920  
     276A      0.126275   277A      0.126749   278A      0.127720  
     279A      0.128841   280A      0.130091   281A      0.132150  
     282A      0.132565   283A      0.134412   284A      0.134939  
     285A      0.136398   286A      0.137259   287A      0.140225  
     288A      0.140942   289A      0.144394   290A      0.146626  
     291A      0.148305   292A      0.153105   293A      0.153490  
     294A      0.154813   295A      0.157427   296A      0.158600  
     297A      0.158905   298A      0.160089   299A      0.160230  
     300A      0.161172   301A      0.161923   302A      0.162522  
     303A      0.163550   304A      0.165491   305A      0.165676  
     306A      0.167539   307A      0.169113   308A      0.172059  
     309A      0.173301   310A      0.174059   311A      0.175261  
     312A      0.176255   313A      0.176570   314A      0.178244  
     315A      0.178400   316A      0.179431   317A      0.180651  
     318A      0.181430   319A      0.185000   320A      0.185976  
     321A      0.189517   322A      0.190379   323A      0.194562  
     324A      0.195250   325A      0.197282   326A      0.199017  
     327A      0.199937   328A      0.200193   329A      0.201271  
     330A      0.202379   331A      0.203115   332A      0.207311  
     333A      0.210050   334A      0.210468   335A      0.210727  
     336A      0.210820   337A      0.214711   338A      0.214861  
     339A      0.216561   340A      0.217447   341A      0.217613  
     342A      0.223963   343A      0.224336   344A      0.226050  
     345A      0.226457   346A      0.228128   347A      0.230112  
     348A      0.235651   349A      0.236607   350A      0.238414  
     351A      0.239822   352A      0.241660   353A      0.243590  
     354A      0.246094   355A      0.246688   356A      0.246963  
     357A      0.248780   358A      0.250505   359A      0.251651  
     360A      0.252426   361A      0.253598   362A      0.254889  
     363A      0.255249   364A      0.255869   365A      0.256244  
     366A      0.257943   367A      0.258401   368A      0.259109  
     369A      0.261091   370A      0.263339   371A      0.265037  
     372A      0.265222   373A      0.266613   374A      0.268188  
     375A      0.268678   376A      0.272225   377A      0.274466  
     378A      0.278668   379A      0.279574   380A      0.281311  
     381A      0.282008   382A      0.282968   383A      0.284513  
     384A      0.285612   385A      0.288078   386A      0.289484  
     387A      0.290969   388A      0.293735   389A      0.295103  
     390A      0.295468   391A      0.296331   392A      0.297269  
     393A      0.298107   394A      0.302373   395A      0.303300  
     396A      0.305164   397A      0.307874   398A      0.309726  
     399A      0.311653   400A      0.313189   401A      0.314622  
     402A      0.316059   403A      0.317746   404A      0.318591  
     405A      0.323495   406A      0.325755   407A      0.327591  
     408A      0.328753   409A      0.328886   410A      0.329815  
     411A      0.331473   412A      0.332151   413A      0.333539  
     414A      0.335977   415A      0.336085   416A      0.337797  
     417A      0.339092   418A      0.339620   419A      0.342743  
     420A      0.344609   421A      0.345028   422A      0.346698  
     423A      0.348233   424A      0.348494   425A      0.349002  
     426A      0.349988   427A      0.350603   428A      0.352415  
     429A      0.356159   430A      0.357401   431A      0.358587  
     432A      0.361047   433A      0.361450   434A      0.361873  
     435A      0.364585   436A      0.365899   437A      0.368781  
     438A      0.369306   439A      0.372338   440A      0.377852  
     441A      0.378772   442A      0.380950   443A      0.382758  
     444A      0.384958   445A      0.385095   446A      0.386765  
     447A      0.386866   448A      0.392309   449A      0.393129  
     450A      0.395121   451A      0.396654   452A      0.398325  
     453A      0.399578   454A      0.400361   455A      0.400508  
     456A      0.401460   457A      0.402981   458A      0.404714  
     459A      0.407806   460A      0.411245   461A      0.413605  
     462A      0.414570   463A      0.415952   464A      0.418202  
     465A      0.420963   466A      0.421988   467A      0.422973  
     468A      0.425108   469A      0.431278   470A      0.434602  
     471A      0.434955   472A      0.436977   473A      0.437047  
     474A      0.438569   475A      0.438745   476A      0.441602  
     477A      0.442137   478A      0.447502   479A      0.447814  
     480A      0.452654   481A      0.453417   482A      0.454086  
     483A      0.455391   484A      0.458575   485A      0.460078  
     486A      0.461690   487A      0.466245   488A      0.467655  
     489A      0.470218   490A      0.478498   491A      0.479045  
     492A      0.479584   493A      0.482557   494A      0.483706  
     495A      0.486958   496A      0.489042   497A      0.489348  
     498A      0.489915   499A      0.491464   500A      0.491678  
     501A      0.494448   502A      0.496816   503A      0.497202  
     504A      0.499929   505A      0.502054   506A      0.502574  
     507A      0.509717   508A      0.511698   509A      0.512380  
     510A      0.526239   511A      0.526712   512A      0.529463  
     513A      0.536672   514A      0.536965   515A      0.537913  
     516A      0.543474   517A      0.553906   518A      0.553982  
     519A      0.559133   520A      0.561112   521A      0.566912  
     522A      0.567139   523A      0.583306   524A      0.586088  
     525A      0.590388   526A      0.593727   527A      0.596237  
     528A      0.606513   529A      0.606852   530A      0.609589  
     531A      0.616985   532A      0.617391   533A      0.620910  
     534A      0.639487   535A      0.649464   536A      0.656028  
     537A      0.656134   538A      0.670521   539A      0.673024  
     540A      0.673991   541A      0.680273   542A      0.681061  
     543A      0.683800   544A      0.684023   545A      0.684569  
     546A      0.687662   547A      0.697024   548A      0.697399  
     549A      0.700379   550A      0.702152   551A      0.709193  
     552A      0.713003   553A      0.715781   554A      0.720090  
     555A      0.729803   556A      0.731120   557A      0.733580  
     558A      0.736845   559A      0.740036   560A      0.746477  
     561A      0.748166   562A      0.750296   563A      0.755853  
     564A      0.756233   565A      0.762057   566A      0.764690  
     567A      0.764856   568A      0.767786   569A      0.768294  
     570A      0.772035   571A      0.776228   572A      0.779800  
     573A      0.781585   574A      0.783174   575A      0.788707  
     576A      0.792077   577A      0.793856   578A      0.798708  
     579A      0.800598   580A      0.803911   581A      0.805375  
     582A      0.807147   583A      0.811989   584A      0.813028  
     585A      0.816274   586A      0.817628   587A      0.818544  
     588A      0.818861   589A      0.819338   590A      0.829083  
     591A      0.830437   592A      0.833378   593A      0.837147  
     594A      0.840059   595A      0.840397   596A      0.842553  
     597A      0.843049   598A      0.847486   599A      0.849097  
     600A      0.850744   601A      0.852117   602A      0.854208  
     603A      0.856198   604A      0.858654   605A      0.860521  
     606A      0.862526   607A      0.863925   608A      0.866210  
     609A      0.867900   610A      0.869680   611A      0.872876  
     612A      0.874992   613A      0.876533   614A      0.877198  
     615A      0.879356   616A      0.883836   617A      0.885053  
     618A      0.886048   619A      0.887649   620A      0.890206  
     621A      0.893259   622A      0.897042   623A      0.899529  
     624A      0.900957   625A      0.910688   626A      0.911516  
     627A      0.912244   628A      0.912816   629A      0.914009  
     630A      0.914224   631A      0.917130   632A      0.919579  
     633A      0.920617   634A      0.923328   635A      0.925263  
     636A      0.928082   637A      0.931162   638A      0.935222  
     639A      0.940659   640A      0.941486   641A      0.945739  
     642A      0.956507   643A      0.956774   644A      0.957849  
     645A      0.959984   646A      0.960082   647A      0.966985  
     648A      0.971581   649A      0.972914   650A      0.973800  
     651A      0.976357   652A      0.978567   653A      0.980116  
     654A      0.980707   655A      0.981436   656A      0.981616  
     657A      0.983935   658A      0.985205   659A      0.985690  
     660A      0.986947   661A      0.987382   662A      0.989112  
     663A      0.990864   664A      0.992851   665A      0.994812  
     666A      0.996684   667A      0.998848   668A      1.001676  
     669A      1.003819   670A      1.005357   671A      1.008631  
     672A      1.011134   673A      1.011958   674A      1.014165  
     675A      1.017130   676A      1.018944   677A      1.022776  
     678A      1.023877   679A      1.025570   680A      1.027571  
     681A      1.028516   682A      1.029644   683A      1.034294  
     684A      1.036839   685A      1.044310   686A      1.044838  
     687A      1.048452   688A      1.049688   689A      1.052151  
     690A      1.054600   691A      1.056172   692A      1.056569  
     693A      1.058933   694A      1.060223   695A      1.060504  
     696A      1.061218   697A      1.066492   698A      1.066847  
     699A      1.071712   700A      1.074687   701A      1.077220  
     702A      1.079282   703A      1.079455   704A      1.079634  
     705A      1.080672   706A      1.083033   707A      1.084341  
     708A      1.094045   709A      1.102427   710A      1.107500  
     711A      1.113187   712A      1.114720   713A      1.116864  
     714A      1.117843   715A      1.118264   716A      1.122202  
     717A      1.122609   718A      1.124435   719A      1.135612  
     720A      1.137134   721A      1.138787   722A      1.140633  
     723A      1.141050   724A      1.145601   725A      1.152889  
     726A      1.156009   727A      1.158237   728A      1.158525  
     729A      1.160597   730A      1.163089   731A      1.163178  
     732A      1.164280   733A      1.179168   734A      1.180976  
     735A      1.182019   736A      1.188267   737A      1.199278  
     738A      1.200946   739A      1.202526   740A      1.202929  
     741A      1.203212   742A      1.205041   743A      1.207609  
     744A      1.207936   745A      1.208406   746A      1.218364  
     747A      1.226409   748A      1.234879   749A      1.236218  
     750A      1.236884   751A      1.238310   752A      1.243121  
     753A      1.244089   754A      1.249985   755A      1.250112  
     756A      1.251605   757A      1.251757   758A      1.259387  
     759A      1.260728   760A      1.262364   761A      1.263107  
     762A      1.269364   763A      1.269479   764A      1.274020  
     765A      1.281894   766A      1.283929   767A      1.285572  
     768A      1.286705   769A      1.287723   770A      1.293179  
     771A      1.293202   772A      1.295109   773A      1.296607  
     774A      1.299365   775A      1.302752   776A      1.304475  
     777A      1.309492   778A      1.316689   779A      1.319613  
     780A      1.321404   781A      1.330912   782A      1.340162  
     783A      1.344749   784A      1.346258   785A      1.347116  
     786A      1.347985   787A      1.351779   788A      1.352865  
     789A      1.353582   790A      1.358706   791A      1.363793  
     792A      1.365584   793A      1.366802   794A      1.368323  
     795A      1.371440   796A      1.373746   797A      1.377843  
     798A      1.378696   799A      1.379180   800A      1.380590  
     801A      1.381299   802A      1.384309   803A      1.390316  
     804A      1.390876   805A      1.392077   806A      1.402927  
     807A      1.403455   808A      1.413981   809A      1.414498  
     810A      1.443330   811A      1.456094   812A      1.457004  
     813A      1.460014   814A      1.460062   815A      1.473523  
     816A      1.483538   817A      1.490759   818A      1.493911  
     819A      1.515539   820A      1.518452   821A      1.534033  
     822A      1.538198   823A      1.538661   824A      1.538878  
     825A      1.546339   826A      1.546828   827A      1.547832  
     828A      1.549586   829A      1.550025   830A      1.554701  
     831A      1.560683   832A      1.561073   833A      1.568304  
     834A      1.568743   835A      1.577856   836A      1.579188  
     837A      1.581324   838A      1.581695   839A      1.582152  
     840A      1.582690   841A      1.583902   842A      1.589681  
     843A      1.600302   844A      1.600383   845A      1.606651  
     846A      1.613586   847A      1.613851   848A      1.615236  
     849A      1.616465   850A      1.616786   851A      1.621641  
     852A      1.624073   853A      1.625403   854A      1.625631  
     855A      1.635140   856A      1.635616   857A      1.636807  
     858A      1.638897   859A      1.639084   860A      1.640338  
     861A      1.642349   862A      1.642413   863A      1.655800  
     864A      1.655886   865A      1.680231   866A      1.680773  
     867A      1.685527   868A      1.689659   869A      1.698970  
     870A      1.699853   871A      1.701068   872A      1.701243  
     873A      1.703524   874A      1.715618   875A      1.716121  
     876A      1.719753   877A      1.730921   878A      1.731020  
     879A      1.749886   880A      1.755664   881A      1.756294  
     882A      1.756900   883A      1.759517   884A      1.762604  
     885A      1.762866   886A      1.763985   887A      1.767166  
     888A      1.770413   889A      1.771165   890A      1.773844  
     891A      1.778179   892A      1.780677   893A      1.781194  
     894A      1.800394   895A      1.801220   896A      1.801835  
     897A      1.803300   898A      1.804417   899A      1.806200  
     900A      1.808375   901A      1.812076   902A      1.818483  
     903A      1.818600   904A      1.826027   905A      1.829343  
     906A      1.835479   907A      1.835524   908A      1.836111  
     909A      1.840289   910A      1.843755   911A      1.844369  
     912A      1.847570   913A      1.847915   914A      1.854628  
     915A      1.855188   916A      1.856558   917A      1.856991  
     918A      1.857965   919A      1.860453   920A      1.860973  
     921A      1.863656   922A      1.876259   923A      1.880574  
     924A      1.882418   925A      1.882907   926A      1.883741  
     927A      1.887578   928A      1.888982   929A      1.891084  
     930A      1.893666   931A      1.893784   932A      1.894496  
     933A      1.895071   934A      1.896999   935A      1.910795  
     936A      1.914218   937A      1.916516   938A      1.922161  
     939A      1.922976   940A      1.931127   941A      1.936523  
     942A      1.938749   943A      1.939433   944A      1.945704  
     945A      1.949197   946A      1.952630   947A      1.953267  
     948A      1.966319   949A      1.967666   950A      1.969233  
     951A      1.970332   952A      1.970709   953A      1.970974  
     954A      1.971436   955A      1.973422   956A      1.986059  
     957A      1.988434   958A      1.992506   959A      1.992859  
     960A      1.997348   961A      1.997936   962A      2.000657  
     963A      2.001980   964A      2.007389   965A      2.010109  
     966A      2.010811   967A      2.011093   968A      2.016236  
     969A      2.016699   970A      2.020243   971A      2.021824  
     972A      2.027136   973A      2.028170   974A      2.033101  
     975A      2.034755   976A      2.036642   977A      2.038388  
     978A      2.040224   979A      2.041582   980A      2.047920  
     981A      2.048261   982A      2.048672   983A      2.049610  
     984A      2.049942   985A      2.050734   986A      2.055064  
     987A      2.058102   988A      2.058928   989A      2.060098  
     990A      2.060408   991A      2.060701   992A      2.066806  
     993A      2.067037   994A      2.072941   995A      2.073955  
     996A      2.075916   997A      2.076383   998A      2.082923  
     999A      2.083054  1000A      2.083411  1001A      2.095857  
    1002A      2.098104  1003A      2.098559  1004A      2.101935  
    1005A      2.102073  1006A      2.109424  1007A      2.118295  
    1008A      2.118456  1009A      2.120335  1010A      2.130934  
    1011A      2.131244  1012A      2.131856  1013A      2.133097  
    1014A      2.133128  1015A      2.135388  1016A      2.137915  
    1017A      2.151877  1018A      2.158352  1019A      2.158529  
    1020A      2.158907  1021A      2.163730  1022A      2.166002  
    1023A      2.167134  1024A      2.168402  1025A      2.171597  
    1026A      2.175359  1027A      2.184091  1028A      2.184426  
    1029A      2.185513  1030A      2.185722  1031A      2.188593  
    1032A      2.201069  1033A      2.201147  1034A      2.209842  
    1035A      2.209903  1036A      2.211934  1037A      2.212461  
    1038A      2.212918  1039A      2.222582  1040A      2.238199  
    1041A      2.240463  1042A      2.246532  1043A      2.249756  
    1044A      2.251384  1045A      2.260090  1046A      2.260963  
    1047A      2.265413  1048A      2.268495  1049A      2.268598  
    1050A      2.269991  1051A      2.272201  1052A      2.289480  
    1053A      2.290086  1054A      2.291810  1055A      2.292077  
    1056A      2.304994  1057A      2.305171  1058A      2.309210  
    1059A      2.312680  1060A      2.319822  1061A      2.343390  
    1062A      2.352369  1063A      2.356375  1064A      2.362870  
    1065A      2.363749  1066A      2.363765  1067A      2.376402  
    1068A      2.379819  1069A      2.380038  1070A      2.409162  
    1071A      2.412812  1072A      2.413537  1073A      2.425302  
    1074A      2.425371  1075A      2.441534  1076A      2.459080  
    1077A      2.459735  1078A      2.468942  1079A      2.469781  
    1080A      2.477451  1081A      2.484263  1082A      2.485499  
    1083A      2.486704  1084A      2.492617  1085A      2.495774  
    1086A      2.495803  1087A      2.499260  1088A      2.499319  
    1089A      2.510160  1090A      2.512009  1091A      2.512039  
    1092A      2.515773  1093A      2.516159  1094A      2.525604  
    1095A      2.526269  1096A      2.526701  1097A      2.529337  
    1098A      2.532555  1099A      2.546560  1100A      2.563968  
    1101A      2.564060  1102A      2.564652  1103A      2.570354  
    1104A      2.570919  1105A      2.581472  1106A      2.581557  
    1107A      2.587574  1108A      2.591507  1109A      2.592117  
    1110A      2.597015  1111A      2.617747  1112A      2.621052  
    1113A      2.622437  1114A      2.623740  1115A      2.628277  
    1116A      2.639647  1117A      2.640082  1118A      2.651386  
    1119A      2.651487  1120A      2.652849  1121A      2.657356  
    1122A      2.657475  1123A      2.662120  1124A      2.662300  
    1125A      2.675784  1126A      2.676630  1127A      2.692511  
    1128A      2.692982  1129A      2.697094  1130A      2.701918  
    1131A      2.707101  1132A      2.715621  1133A      2.719993  
    1134A      2.733458  1135A      2.734478  1136A      2.748711  
    1137A      2.755967  1138A      2.759714  1139A      2.765778  
    1140A      2.768255  1141A      2.791885  1142A      2.791945  
    1143A      2.793402  1144A      2.795748  1145A      2.798547  
    1146A      2.799215  1147A      2.807096  1148A      2.814601  
    1149A      2.858161  1150A      2.858457  1151A      2.864023  
    1152A      2.874216  1153A      2.874239  1154A      2.889404  
    1155A      2.889618  1156A      2.903193  1157A      2.928032  
    1158A      2.946761  1159A      2.947670  1160A      2.952815  
    1161A      2.970044  1162A      2.987475  1163A      3.002232  
    1164A      3.002834  1165A      3.009886  1166A      3.009979  
    1167A      3.049647  1168A      3.050224  1169A      3.059870  
    1170A      3.069240  1171A      3.069681  1172A      3.070053  
    1173A      3.075778  1174A      3.077370  1175A      3.085683  
    1176A      3.086538  1177A      3.087833  1178A      3.089508  
    1179A      3.089753  1180A      3.098550  1181A      3.098951  
    1182A      3.106231  1183A      3.106758  1184A      3.132356  
    1185A      3.151864  1186A      3.157714  1187A      3.177545  
    1188A      3.212220  1189A      3.215735  1190A      3.215981  
    1191A      3.221715  1192A      3.222210  1193A      3.354781  
    1194A      3.355394  1195A      3.377860  1196A      3.419676  
    1197A      3.421995  1198A      3.450640  1199A      3.487147  
    1200A      3.514731  1201A      3.516634  1202A      3.531452  
    1203A      3.539582  1204A      3.565437  1205A      3.567593  
    1206A      3.602133  1207A      3.608916  1208A      3.707723  
    1209A      3.720680  1210A      3.721926  1211A      3.810570  
    1212A      3.810633  1213A      3.852602  1214A      3.852771  
    1215A      3.915023  1216A      3.948840  1217A      3.969661  
    1218A      3.984375  1219A      4.017624  

    Final Occupation by Irrep:
              A 
    DOCC [   197 ]
    NA   [   197 ]
    NB   [   197 ]

  @DF-RHF Final Energy: -2359.20058277178896

   => Energetics <=

    Nuclear Repulsion Energy =           7908.6684830526546648
    One-Electron Energy =              -18921.7579292060690932
    Two-Electron Energy =                8653.8888633816259244
    Total Energy =                      -2359.2005827717894135

Computation Completed


Properties will be evaluated at   0.000000,   0.000000,   0.000000 [a0]

Properties computed using the SCF density matrix


 Multipole Moments:

 ------------------------------------------------------------------------------------
     Multipole            Electronic (a.u.)      Nuclear  (a.u.)        Total (a.u.)
 ------------------------------------------------------------------------------------

 L = 1.  Multiply by 2.5417464519 to convert [e a0] to [Debye]
 Dipole X            :         -0.0017053            0.0006313           -0.0010740
 Dipole Y            :         -5.6448641            7.4856329            1.8407688
 Dipole Z            :         23.7326483          -33.5593948           -9.8267465
 Magnitude           :                                                    9.9976686

 ------------------------------------------------------------------------------------

*** tstop() called on d-16-13-4 at Mon Jan 22 22:24:38 2024
Module time:
	user time   =    4631.48 seconds =      77.19 minutes
	system time =     147.29 seconds =       2.45 minutes
	total time  =        499 seconds =       8.32 minutes
Total time:
	user time   =    4631.48 seconds =      77.19 minutes
	system time =     147.29 seconds =       2.45 minutes
	total time  =        499 seconds =       8.32 minutes

  //>>>>>>>>>>>>>>>>>>>>>>>>>>>>>>>>>>>//
  //            Monomer A HF           //
  //<<<<<<<<<<<<<<<<<<<<<<<<<<<<<<<<<<<//

   => Libint2 <=

    Primary   basis highest AM E, G, H:  7, 7, 4
    Auxiliary basis highest AM E, G, H:  7, 7, 5
    Onebody   basis highest AM E, G, H:  7, 7, 5
    Solid Harmonics ordering:            gaussian

*** tstart() called on d-16-13-4
*** at Mon Jan 22 22:24:38 2024

   => Loading Basis Set <=

    Name: JUN-CC-PVDZ
    Role: ORBITAL
    Keyword: BASIS
    atoms 1-2, 4-5, 10, 17-70 entry C          line   164 file /home/gridsan/tfroembgen/.conda/envs/psi4test/share/psi4/basis/jun-cc-pvdz.gbs 
    atoms 3, 6                entry N          line   198 file /home/gridsan/tfroembgen/.conda/envs/psi4test/share/psi4/basis/jun-cc-pvdz.gbs 
    atoms 7-9, 11-16, 71-88   entry H          line    36 file /home/gridsan/tfroembgen/.conda/envs/psi4test/share/psi4/basis/jun-cc-pvdz.gbs 


         ---------------------------------------------------------
                                   SCF
               by Justin Turney, Rob Parrish, Andy Simmonett
                          and Daniel G. A. Smith
                              RHF Reference
                       12 Threads,  30517 MiB Core
         ---------------------------------------------------------

  ==> Geometry <==

    Molecular point group: c1
    Full point group: C1

    Geometry (in Angstrom), charge = 1, multiplicity = 1:

       Center              X                  Y                   Z               Mass       
    ------------   -----------------  -----------------  -----------------  -----------------
         C            0.680066520158     1.235968212970    -7.151012993311    12.000000000000
         C           -0.680504479842     1.237996212970    -7.150628993311    12.000000000000
         N           -1.085635479842     1.238994212970    -5.832304993311    14.003074004430
         C            0.000107520158     1.242270212970    -5.050903993311    12.000000000000
         C           -2.477365479842     1.288400212970    -5.364325993311    12.000000000000
         N            1.085221520158     1.238994212970    -5.832304993311    14.003074004430
         H            1.385145520158     1.228140212970    -7.968451993311     1.007825032230
         H           -1.385302479842     1.237806212970    -7.968297993311     1.007825032230
         H           -0.000009479842     1.244017212970    -3.969814993311     1.007825032230
         C            2.478116520158     1.222102212970    -5.367206993311    12.000000000000
         H            2.490591520158     1.249447212970    -4.276953993311     1.007825032230
         H            2.967027520158     0.308656212970    -5.714382993311     1.007825032230
         H            3.001427520158     2.097585212970    -5.758678993311     1.007825032230
         H           -2.857359479842     2.310471212970    -5.444284993311     1.007825032230
         H           -3.082679479842     0.618316212970    -5.977389993311     1.007825032230
         H           -2.518128479842     0.961416212970    -4.324377993311     1.007825032230
      Gh(C)           1.225311895423     0.526248873889     0.871053633973    12.000000000000
      Gh(C)           1.225323856051    -0.888828309601     0.858722824403    12.000000000000
      Gh(C)          -0.000006153932     1.233676499060     0.858189200882    12.000000000000
      Gh(C)           2.456448753949     1.237038472148     0.873940491373    12.000000000000
      Gh(C)           0.000010827279    -1.596265913665     0.868388758206    12.000000000000
      Gh(C)          -1.225300948908     0.526255958954     0.873305154296    12.000000000000
      Gh(C)           2.456437755320    -1.599612718911     0.856477667546    12.000000000000
      Gh(C)          -0.000001332978     2.655511616251     0.855785650748    12.000000000000
      Gh(C)           3.681826697470     0.528028540971     0.856826457344    12.000000000000
      Gh(C)           2.455120048865     2.652934246459     0.856723900383    12.000000000000
      Gh(C)           3.681821105219    -0.890623254459     0.872898941362    12.000000000000
      Gh(C)          -1.225313598688    -0.888816930574     0.859795585830    12.000000000000
      Gh(C)           1.226699581202     3.362180068964     0.873082973293    12.000000000000
      Gh(C)           0.000004784858    -3.018071554266     0.873236925828    12.000000000000
      Gh(C)          -2.456436032848     1.237027503255     0.873340550141    12.000000000000
      Gh(C)           2.455123417779    -3.015519443619     0.872747032995    12.000000000000
      Gh(C)          -1.226714364589     3.362179648720     0.873186306512    12.000000000000
      Gh(C)           4.914517295202     1.245883457459     0.863307140373    12.000000000000
      Gh(C)           3.693150191476     3.361505877515     0.863356940010    12.000000000000
      Gh(C)          -2.456437600068    -1.599602695869     0.856452629421    12.000000000000
      Gh(C)           1.226704841943    -3.724763656937     0.857112842543    12.000000000000
      Gh(C)          -2.455125398508     2.652927247604     0.856730276729    12.000000000000
      Gh(C)           4.914524380782    -1.608476324974     0.866279883108    12.000000000000
      Gh(C)           1.221424613699     4.788844650230     0.866418317367    12.000000000000
      Gh(C)           4.893008229321     2.643898584996     0.864523808732    12.000000000000
      Gh(C)          -1.226697008489    -3.724760412107     0.857380046953    12.000000000000
      Gh(C)          -3.681818976526     0.528035551702     0.856839137824    12.000000000000
      Gh(C)           3.693147101150    -3.724090756421     0.866397773669    12.000000000000
      Gh(C)          -1.221432251994     4.788838882833     0.866601812740    12.000000000000
      Gh(C)           6.134770972926     0.499258532075     0.864076914923    12.000000000000
      Gh(C)           3.656788880610     4.791663828537     0.864265577792    12.000000000000
      Gh(C)          -2.455126907733    -3.015504508091     0.872502675196    12.000000000000
      Gh(C)          -3.681819179061    -0.890615118499     0.873016562941    12.000000000000
      Gh(C)           4.893012617914    -3.006489520662     0.865134960627    12.000000000000
      Gh(C)          -0.000001073113     5.469157951002     0.865370504033    12.000000000000
      Gh(C)           6.134775112332    -0.861844269105     0.865342235439    12.000000000000
      Gh(C)           2.478131482856     5.472287336301     0.865554357442    12.000000000000
      Gh(C)           1.221422404738    -5.151416469963     0.863618820345    12.000000000000
      Gh(C)          -3.693162383965     3.361507539162     0.863522447469    12.000000000000
      Gh(C)          -1.221428520945    -5.151407718626     0.863506058512    12.000000000000
      Gh(C)          -4.914521807942     1.245886031965     0.863384085381    12.000000000000
      Gh(C)           3.656787019679    -5.154244641269     0.865716078326    12.000000000000
      Gh(C)          -2.478138530106     5.472285007498     0.865838882450    12.000000000000
      Gh(C)          -3.693141738564    -3.724079634009     0.866281647513    12.000000000000
      Gh(C)          -4.914512483053    -1.608470415058     0.866314580281    12.000000000000
      Gh(C)          -0.000006008926    -5.831727702044     0.864974999912    12.000000000000
      Gh(C)          -4.893020484101     2.643899183889     0.864513726872    12.000000000000
      Gh(C)           2.478125993298    -5.834862958919     0.864625477534    12.000000000000
      Gh(C)          -3.656798710258     4.791666767011     0.864442258167    12.000000000000
      Gh(C)          -4.892999478856    -3.006481182090     0.864980924930    12.000000000000
      Gh(C)          -2.478128498083    -5.834855585037     0.864350289887    12.000000000000
      Gh(C)          -6.134770503331     0.499259351226     0.864051363221    12.000000000000
      Gh(C)          -3.656788833189    -5.154233438001     0.865501790509    12.000000000000
      Gh(C)          -6.134765042913    -0.861843330512     0.865321759644    12.000000000000
      Gh(H)           5.835288495816     3.187986479924     0.868883134395     1.007825032230
      Gh(H)           7.073859172747     1.046927833869     0.864538558316     1.007825032230
      Gh(H)           4.600663264174     5.331091387423     0.864770778544     1.007825032230
      Gh(H)           5.835283387305    -3.550595471759     0.860680493313     1.007825032230
      Gh(H)          -0.000012151306     6.557241259106     0.861021259025     1.007825032230
      Gh(H)           7.073861171831    -1.409516357774     0.864833497345     1.007825032230
      Gh(H)           2.473313731799     6.559394876364     0.865087636511     1.007825032230
      Gh(H)           4.600668491381    -5.693665544206     0.865306081158     1.007825032230
      Gh(H)          -2.473318680537     6.559392304576     0.865388983136     1.007825032230
      Gh(H)          -0.000010268228    -6.919817591482     0.869504684897     1.007825032230
      Gh(H)          -5.835301914343     3.187981535266     0.869019156543     1.007825032230
      Gh(H)           2.473307923831    -6.921974789459     0.865195807959     1.007825032230
      Gh(H)          -4.600674841208     5.331088611573     0.864936106868     1.007825032230
      Gh(H)          -5.835279506835    -3.550578378810     0.860401187432     1.007825032230
      Gh(H)          -2.473300347440    -6.921968493170     0.864746491414     1.007825032230
      Gh(H)          -7.073857766768     1.046931057810     0.864454566835     1.007825032230
      Gh(H)          -4.600673786085    -5.693652084817     0.865133773135     1.007825032230
      Gh(H)          -7.073856934409    -1.409510047007     0.864738640878     1.007825032230

  Running in c1 symmetry.

  Rotational constants: A =      0.00145  B =      0.00143  C =      0.00107 [cm^-1]
  Rotational constants: A =     43.33157  B =     42.95167  C =     32.00183 [MHz]
  Nuclear repulsion =  306.774908447733083

  Charge       = 1
  Multiplicity = 1
  Electrons    = 52
  Nalpha       = 26
  Nbeta        = 26

  ==> Algorithm <==

  SCF Algorithm Type is DF.
  DIIS enabled.
  MOM disabled.
  Fractional occupation disabled.
  Guess Type is SAD.
  Energy threshold   = 1.00e-08
  Density threshold  = 1.00e-08
  Integral threshold = 1.00e-12

  ==> Primary Basis <==

  Basis Set: JUN-CC-PVDZ
    Blend: JUN-CC-PVDZ
    Number of shells: 569
    Number of basis functions: 1233
    Number of Cartesian functions: 1294
    Spherical Harmonics?: true
    Max angular momentum: 2

   => Loading Basis Set <=

    Name: (JUN-CC-PVDZ AUX)
    Role: JKFIT
    Keyword: DF_BASIS_SCF
    atoms 1-2, 4-5, 10, 17-70 entry C          line   146 file /home/gridsan/tfroembgen/.conda/envs/psi4test/share/psi4/basis/jun-cc-pvdz-jkfit.gbs 
    atoms 3, 6                entry N          line   202 file /home/gridsan/tfroembgen/.conda/envs/psi4test/share/psi4/basis/jun-cc-pvdz-jkfit.gbs 
    atoms 7-9, 11-16, 71-88   entry H          line    70 file /home/gridsan/tfroembgen/.conda/envs/psi4test/share/psi4/basis/jun-cc-pvdz-jkfit.gbs 

  ==> Integral Setup <==

  ==> DiskDFJK: Density-Fitted J/K Matrices <==

    J tasked:                  Yes
    K tasked:                  Yes
    wK tasked:                  No
    OpenMP threads:             12
    Integrals threads:          12
    Memory [MiB]:            22888
    Algorithm:                Core
    Integral Cache:           LOAD
    Schwarz Cutoff:          1E-12
    Fitting Condition:       1E-10

   => Auxiliary Basis Set <=

  Basis Set: (JUN-CC-PVDZ AUX)
    Blend: JUN-CC-PVDZ-JKFIT
    Number of shells: 1890
    Number of basis functions: 5440
    Number of Cartesian functions: 6226
    Spherical Harmonics?: true
    Max angular momentum: 3

  Minimum eigenvalue in the overlap matrix is 8.3773575937E-10.
  Reciprocal condition number of the overlap matrix is 3.7407494945E-11.
    Using canonical orthogonalization.
  Overall, 14 of 1233 possible MOs eliminated.


  ==> Pre-Iterations <==

  SCF Guess: Superposition of Atomic Densities via on-the-fly atomic UHF (no occupation information).

   -------------------------
    Irrep   Nso     Nmo    
   -------------------------
     A       1233    1219 
   -------------------------
    Total    1233    1219
   -------------------------

  ==> Iterations <==

                           Total Energy        Delta E     RMS |[F,P]|

   @DF-RHF iter SAD:  -303.36534237799498   -3.03365e+02   0.00000e+00 
   @DF-RHF iter   1:  -303.16947670449423    1.95866e-01   3.44128e-04 DIIS/ADIIS
   @DF-RHF iter   2:  -303.28381734231016   -1.14341e-01   1.15881e-04 DIIS/ADIIS
   @DF-RHF iter   3:  -303.29526897228618   -1.14516e-02   4.53356e-05 DIIS
   @DF-RHF iter   4:  -303.29717223005918   -1.90326e-03   9.89630e-06 DIIS
   @DF-RHF iter   5:  -303.29727787479169   -1.05645e-04   2.41306e-06 DIIS
   @DF-RHF iter   6:  -303.29728714110581   -9.26631e-06   6.54372e-07 DIIS
   @DF-RHF iter   7:  -303.29728821409464   -1.07299e-06   3.32365e-07 DIIS
   @DF-RHF iter   8:  -303.29728846696702   -2.52872e-07   1.33757e-07 DIIS
   @DF-RHF iter   9:  -303.29728851551738   -4.85504e-08   3.37167e-08 DIIS
   @DF-RHF iter  10:  -303.29728851834420   -2.82682e-09   1.26536e-08 DIIS
   @DF-RHF iter  11:  -303.29728851859113   -2.46928e-10   2.97726e-09 DIIS
  Energy and wave function converged.


  ==> Post-Iterations <==

    Orbital Energies [Eh]
    ---------------------

    Doubly Occupied:                                                      

       1A    -15.834653     2A    -15.834122     3A    -11.529526  
       4A    -11.459850     5A    -11.458294     6A    -11.449657  
       7A    -11.449545     8A     -1.578193     9A     -1.433788  
      10A     -1.238630    11A     -1.189282    12A     -1.118843  
      13A     -1.022501    14A     -0.996926    15A     -0.917016  
      16A     -0.850501    17A     -0.816227    18A     -0.813164  
      19A     -0.790095    20A     -0.786208    21A     -0.781737  
      22A     -0.729683    23A     -0.725763    24A     -0.717083  
      25A     -0.596274    26A     -0.523828  

    Virtual:                                                              

      27A     -0.075285    28A     -0.071350    29A     -0.059098  
      30A     -0.051135    31A     -0.038346    32A     -0.036205  
      33A     -0.035810    34A     -0.033156    35A     -0.032543  
      36A     -0.024580    37A     -0.023524    38A     -0.016931  
      39A     -0.015625    40A     -0.013110    41A     -0.011490  
      42A     -0.006956    43A     -0.006462    44A     -0.003764  
      45A     -0.002841    46A      0.001966    47A      0.003866  
      48A      0.007554    49A      0.010292    50A      0.015039  
      51A      0.015911    52A      0.016985    53A      0.017288  
      54A      0.022077    55A      0.024723    56A      0.026825  
      57A      0.028640    58A      0.031184    59A      0.034282  
      60A      0.035069    61A      0.037419    62A      0.037512  
      63A      0.042084    64A      0.042669    65A      0.046933  
      66A      0.047335    67A      0.049728    68A      0.051466  
      69A      0.054575    70A      0.054764    71A      0.060285  
      72A      0.060632    73A      0.062010    74A      0.062209  
      75A      0.068094    76A      0.068976    77A      0.069419  
      78A      0.070624    79A      0.071586    80A      0.073223  
      81A      0.077267    82A      0.078662    83A      0.078831  
      84A      0.080315    85A      0.081453    86A      0.083250  
      87A      0.085999    88A      0.088776    89A      0.088962  
      90A      0.089038    91A      0.090109    92A      0.090112  
      93A      0.094007    94A      0.097183    95A      0.097363  
      96A      0.097877    97A      0.099252    98A      0.103689  
      99A      0.103937   100A      0.104955   101A      0.106939  
     102A      0.109817   103A      0.113334   104A      0.113393  
     105A      0.114035   106A      0.115432   107A      0.118468  
     108A      0.118870   109A      0.120748   110A      0.121599  
     111A      0.122546   112A      0.123678   113A      0.124739  
     114A      0.127621   115A      0.128578   116A      0.129651  
     117A      0.133063   118A      0.134172   119A      0.137291  
     120A      0.138305   121A      0.138995   122A      0.139252  
     123A      0.142172   124A      0.145185   125A      0.145583  
     126A      0.146077   127A      0.146820   128A      0.148817  
     129A      0.150944   130A      0.151984   131A      0.152925  
     132A      0.154264   133A      0.154885   134A      0.155391  
     135A      0.156926   136A      0.158856   137A      0.162135  
     138A      0.162739   139A      0.165762   140A      0.166718  
     141A      0.167640   142A      0.167886   143A      0.168581  
     144A      0.171841   145A      0.173745   146A      0.176021  
     147A      0.179394   148A      0.180479   149A      0.181018  
     150A      0.181836   151A      0.183006   152A      0.183965  
     153A      0.186152   154A      0.186314   155A      0.186547  
     156A      0.189658   157A      0.192693   158A      0.192959  
     159A      0.194411   160A      0.194939   161A      0.195282  
     162A      0.200113   163A      0.203404   164A      0.205710  
     165A      0.211932   166A      0.212441   167A      0.214039  
     168A      0.215872   169A      0.217628   170A      0.218930  
     171A      0.219325   172A      0.220594   173A      0.220775  
     174A      0.220987   175A      0.221223   176A      0.224589  
     177A      0.226133   178A      0.226625   179A      0.229727  
     180A      0.230344   181A      0.230536   182A      0.231541  
     183A      0.231989   184A      0.232761   185A      0.236832  
     186A      0.239585   187A      0.240228   188A      0.241165  
     189A      0.245953   190A      0.246330   191A      0.247336  
     192A      0.250581   193A      0.251759   194A      0.253113  
     195A      0.256491   196A      0.257611   197A      0.264842  
     198A      0.265069   199A      0.268213   200A      0.269387  
     201A      0.272375   202A      0.273236   203A      0.274279  
     204A      0.275771   205A      0.281392   206A      0.283638  
     207A      0.284212   208A      0.284256   209A      0.287383  
     210A      0.288174   211A      0.289003   212A      0.290705  
     213A      0.293314   214A      0.295458   215A      0.295570  
     216A      0.296369   217A      0.298804   218A      0.300817  
     219A      0.303746   220A      0.304409   221A      0.305816  
     222A      0.307482   223A      0.308835   224A      0.309910  
     225A      0.312490   226A      0.314368   227A      0.315322  
     228A      0.318392   229A      0.321741   230A      0.322434  
     231A      0.325951   232A      0.331380   233A      0.332280  
     234A      0.336622   235A      0.338034   236A      0.338212  
     237A      0.339694   238A      0.345735   239A      0.349662  
     240A      0.350158   241A      0.354760   242A      0.355728  
     243A      0.356365   244A      0.359680   245A      0.362899  
     246A      0.365920   247A      0.367470   248A      0.369480  
     249A      0.369877   250A      0.370022   251A      0.370153  
     252A      0.373841   253A      0.374762   254A      0.376990  
     255A      0.378461   256A      0.384257   257A      0.385470  
     258A      0.385894   259A      0.386402   260A      0.388557  
     261A      0.390338   262A      0.391440   263A      0.394712  
     264A      0.395036   265A      0.397518   266A      0.398467  
     267A      0.399267   268A      0.401648   269A      0.402727  
     270A      0.404793   271A      0.408559   272A      0.409505  
     273A      0.409819   274A      0.411355   275A      0.413505  
     276A      0.414292   277A      0.416316   278A      0.416986  
     279A      0.419167   280A      0.422712   281A      0.422970  
     282A      0.425395   283A      0.425556   284A      0.430834  
     285A      0.431669   286A      0.434198   287A      0.435370  
     288A      0.435730   289A      0.437911   290A      0.438940  
     291A      0.440990   292A      0.446592   293A      0.449500  
     294A      0.450348   295A      0.450447   296A      0.458651  
     297A      0.459641   298A      0.462310   299A      0.464763  
     300A      0.466491   301A      0.468080   302A      0.468219  
     303A      0.470404   304A      0.471107   305A      0.472124  
     306A      0.473552   307A      0.479468   308A      0.482269  
     309A      0.484155   310A      0.485506   311A      0.486192  
     312A      0.490220   313A      0.490700   314A      0.494471  
     315A      0.496891   316A      0.502936   317A      0.505632  
     318A      0.506468   319A      0.510713   320A      0.512191  
     321A      0.513427   322A      0.514182   323A      0.515102  
     324A      0.516524   325A      0.518094   326A      0.523436  
     327A      0.525296   328A      0.526096   329A      0.529934  
     330A      0.537100   331A      0.537319   332A      0.538235  
     333A      0.541556   334A      0.542631   335A      0.543963  
     336A      0.548752   337A      0.550277   338A      0.553035  
     339A      0.554539   340A      0.556473   341A      0.556813  
     342A      0.560274   343A      0.563676   344A      0.568265  
     345A      0.570898   346A      0.572460   347A      0.577410  
     348A      0.578885   349A      0.584164   350A      0.584524  
     351A      0.586050   352A      0.586802   353A      0.591571  
     354A      0.595331   355A      0.600215   356A      0.604261  
     357A      0.607398   358A      0.613776   359A      0.614891  
     360A      0.615622   361A      0.619177   362A      0.619424  
     363A      0.620330   364A      0.624533   365A      0.625255  
     366A      0.628379   367A      0.629040   368A      0.634864  
     369A      0.636420   370A      0.637539   371A      0.638303  
     372A      0.640387   373A      0.642357   374A      0.643808  
     375A      0.644600   376A      0.646226   377A      0.649196  
     378A      0.654784   379A      0.659785   380A      0.661346  
     381A      0.661832   382A      0.663051   383A      0.672434  
     384A      0.674043   385A      0.677823   386A      0.682950  
     387A      0.686942   388A      0.690542   389A      0.693952  
     390A      0.698786   391A      0.699131   392A      0.700402  
     393A      0.702037   394A      0.702949   395A      0.704039  
     396A      0.705194   397A      0.705604   398A      0.707872  
     399A      0.708570   400A      0.711356   401A      0.711599  
     402A      0.713180   403A      0.713916   404A      0.715591  
     405A      0.717911   406A      0.723654   407A      0.724028  
     408A      0.725674   409A      0.728164   410A      0.729000  
     411A      0.732606   412A      0.733451   413A      0.735308  
     414A      0.737462   415A      0.740747   416A      0.742816  
     417A      0.744983   418A      0.746460   419A      0.748848  
     420A      0.755065   421A      0.756695   422A      0.767708  
     423A      0.772363   424A      0.783972   425A      0.784306  
     426A      0.788219   427A      0.788236   428A      0.795051  
     429A      0.796164   430A      0.806356   431A      0.809122  
     432A      0.813417   433A      0.818414   434A      0.818456  
     435A      0.823012   436A      0.823347   437A      0.828610  
     438A      0.829578   439A      0.831184   440A      0.836430  
     441A      0.836772   442A      0.841377   443A      0.843853  
     444A      0.857434   445A      0.860759   446A      0.861160  
     447A      0.868771   448A      0.885646   449A      0.897523  
     450A      0.897794   451A      0.901970   452A      0.905966  
     453A      0.906566   454A      0.908155   455A      0.915469  
     456A      0.929653   457A      0.938535   458A      0.939043  
     459A      0.942011   460A      0.946479   461A      0.963097  
     462A      0.963774   463A      0.969543   464A      0.973403  
     465A      0.978181   466A      0.978653   467A      0.982663  
     468A      0.993001   469A      0.996808   470A      1.003003  
     471A      1.003146   472A      1.005824   473A      1.005897  
     474A      1.035000   475A      1.037106   476A      1.040762  
     477A      1.041298   478A      1.042977   479A      1.065889  
     480A      1.076066   481A      1.091268   482A      1.091351  
     483A      1.098433   484A      1.098546   485A      1.102674  
     486A      1.112580   487A      1.115755   488A      1.115956  
     489A      1.120851   490A      1.120899   491A      1.127782  
     492A      1.133831   493A      1.134012   494A      1.136776  
     495A      1.142424   496A      1.151330   497A      1.157331  
     498A      1.157338   499A      1.165741   500A      1.165998  
     501A      1.171312   502A      1.224187   503A      1.232501  
     504A      1.232574   505A      1.241001   506A      1.242923  
     507A      1.243177   508A      1.259441   509A      1.259586  
     510A      1.263904   511A      1.265819   512A      1.287080  
     513A      1.290072   514A      1.301945   515A      1.307108  
     516A      1.307263   517A      1.333727   518A      1.354018  
     519A      1.358095   520A      1.379312   521A      1.379685  
     522A      1.396560   523A      1.398290   524A      1.400942  
     525A      1.402603   526A      1.403299   527A      1.405458  
     528A      1.419712   529A      1.419889   530A      1.426660  
     531A      1.466697   532A      1.478295   533A      1.480871  
     534A      1.491141   535A      1.491909   536A      1.494245  
     537A      1.495334   538A      1.504184   539A      1.505505  
     540A      1.520344   541A      1.561335   542A      1.566379  
     543A      1.571571   544A      1.574690   545A      1.583830  
     546A      1.587057   547A      1.596070   548A      1.598656  
     549A      1.599760   550A      1.608559   551A      1.619266  
     552A      1.619879   553A      1.622191   554A      1.628459  
     555A      1.629287   556A      1.640057   557A      1.664121  
     558A      1.670951   559A      1.681542   560A      1.682449  
     561A      1.683889   562A      1.685013   563A      1.686531  
     564A      1.688461   565A      1.689102   566A      1.696212  
     567A      1.699461   568A      1.700237   569A      1.703203  
     570A      1.713933   571A      1.721484   572A      1.727774  
     573A      1.729605   574A      1.730053   575A      1.731028  
     576A      1.737492   577A      1.743732   578A      1.746090  
     579A      1.746492   580A      1.748760   581A      1.750368  
     582A      1.755688   583A      1.758087   584A      1.762428  
     585A      1.763016   586A      1.765561   587A      1.767970  
     588A      1.769383   589A      1.771055   590A      1.771958  
     591A      1.781720   592A      1.783054   593A      1.784387  
     594A      1.786166   595A      1.791324   596A      1.793118  
     597A      1.797396   598A      1.798355   599A      1.798868  
     600A      1.811738   601A      1.813058   602A      1.817957  
     603A      1.820044   604A      1.820970   605A      1.821617  
     606A      1.822467   607A      1.823958   608A      1.825654  
     609A      1.826867   610A      1.835518   611A      1.837416  
     612A      1.842444   613A      1.843738   614A      1.844053  
[...]
     802A      1.677085   803A      1.677336   804A      1.683553  
     805A      1.686845   806A      1.686898   807A      1.696146  
     808A      1.697799   809A      1.699110   810A      1.699447  
     811A      1.701045   812A      1.704825   813A      1.704923  
     814A      1.715888   815A      1.716384   816A      1.722659  
     817A      1.741767   818A      1.751486   819A      1.759455  
     820A      1.760656   821A      1.760874   822A      1.761195  
     823A      1.761844   824A      1.776860   825A      1.776985  
     826A      1.791694   827A      1.791699   828A      1.799387  
     829A      1.814700   830A      1.815772   831A      1.816398  
     832A      1.817033   833A      1.819428   834A      1.824725  
     835A      1.824910   836A      1.828453   837A      1.831129  
     838A      1.834093   839A      1.838073   840A      1.842447  
     841A      1.842690   842A      1.846757   843A      1.852138  
     844A      1.860908   845A      1.861773   846A      1.862456  
     847A      1.863806   848A      1.864351   849A      1.869143  
     850A      1.872555   851A      1.876095   852A      1.880380  
     853A      1.880446   854A      1.896001   855A      1.896657  
     856A      1.900249   857A      1.902128   858A      1.903225  
     859A      1.903291   860A      1.905467   861A      1.909070  
     862A      1.909675   863A      1.915843   864A      1.916516  
     865A      1.917873   866A      1.918020   867A      1.918270  
     868A      1.920377   869A      1.922311   870A      1.922573  
     871A      1.941342   872A      1.941999   873A      1.942732  
     874A      1.943985   875A      1.945462   876A      1.947515  
     877A      1.947827   878A      1.955087   879A      1.955538  
     880A      1.956269   881A      1.957055   882A      1.958097  
     883A      1.970754   884A      1.983639   885A      1.984329  
     886A      1.991787   887A      1.997294   888A      1.998556  
     889A      1.999046   890A      2.003675   891A      2.008240  
     892A      2.009689   893A      2.012816   894A      2.013475  
     895A      2.022532   896A      2.027966   897A      2.029359  
     898A      2.029829   899A      2.030816   900A      2.030996  
     901A      2.031558   902A      2.032397   903A      2.041753  
     904A      2.046710   905A      2.048650   906A      2.052837  
     907A      2.053031   908A      2.054118   909A      2.058843  
     910A      2.059480   911A      2.061363   912A      2.062635  
     913A      2.065269   914A      2.071197   915A      2.071756  
     916A      2.072607   917A      2.072755   918A      2.077339  
     919A      2.078623   920A      2.082126   921A      2.085054  
     922A      2.087996   923A      2.091158   924A      2.094072  
     925A      2.095246   926A      2.097197   927A      2.098068  
     928A      2.098155   929A      2.101035   930A      2.102757  
     931A      2.108750   932A      2.109178   933A      2.109560  
     934A      2.111462   935A      2.112032   936A      2.114034  
     937A      2.115668   938A      2.119404   939A      2.119615  
     940A      2.120361   941A      2.121053   942A      2.123608  
     943A      2.126143   944A      2.127575   945A      2.130649  
     946A      2.133906   947A      2.135126   948A      2.135937  
     949A      2.136084   950A      2.143110   951A      2.143314  
     952A      2.146910   953A      2.155913   954A      2.158750  
     955A      2.160560   956A      2.161406   957A      2.163102  
     958A      2.166749   959A      2.171656   960A      2.178739  
     961A      2.179115   962A      2.189772   963A      2.191077  
     964A      2.191478   965A      2.192556   966A      2.194036  
     967A      2.195802   968A      2.195986   969A      2.197433  
     970A      2.203653   971A      2.209317   972A      2.219715  
     973A      2.219879   974A      2.220462   975A      2.221229  
     976A      2.228406   977A      2.228984   978A      2.229061  
     979A      2.231139   980A      2.243394   981A      2.243813  
     982A      2.244438   983A      2.244790   984A      2.247345  
     985A      2.257120   986A      2.260396   987A      2.260520  
     988A      2.270249   989A      2.270329   990A      2.272289  
     991A      2.272372   992A      2.274959   993A      2.281235  
     994A      2.284939   995A      2.300462   996A      2.306212  
     997A      2.306729   998A      2.311333   999A      2.312719  
    1000A      2.321972  1001A      2.323248  1002A      2.328936  
    1003A      2.331088  1004A      2.331214  1005A      2.332188  
    1006A      2.334334  1007A      2.350804  1008A      2.351290  
    1009A      2.352020  1010A      2.352620  1011A      2.353793  
    1012A      2.359521  1013A      2.366869  1014A      2.367138  
    1015A      2.375783  1016A      2.380793  1017A      2.397419  
    1018A      2.416059  1019A      2.424075  1020A      2.424488  
    1021A      2.424530  1022A      2.436500  1023A      2.441193  
    1024A      2.441359  1025A      2.453235  1026A      2.456685  
    1027A      2.463968  1028A      2.470626  1029A      2.472884  
    1030A      2.474178  1031A      2.476462  1032A      2.481892  
    1033A      2.485891  1034A      2.486135  1035A      2.502381  
    1036A      2.519708  1037A      2.522186  1038A      2.529993  
    1039A      2.530662  1040A      2.543784  1041A      2.545682  
    1042A      2.546315  1043A      2.554872  1044A      2.554934  
    1045A      2.555345  1046A      2.559948  1047A      2.560005  
    1048A      2.573067  1049A      2.573100  1050A      2.575029  
    1051A      2.575531  1052A      2.583695  1053A      2.586391  
    1054A      2.587234  1055A      2.587577  1056A      2.589993  
    1057A      2.591515  1058A      2.606555  1059A      2.623822  
    1060A      2.623884  1061A      2.625174  1062A      2.631882  
    1063A      2.632427  1064A      2.639385  1065A      2.641421  
    1066A      2.641625  1067A      2.650198  1068A      2.651301  
    1069A      2.653127  1070A      2.655895  1071A      2.658333  
    1072A      2.665597  1073A      2.680083  1074A      2.683048  
    1075A      2.683743  1076A      2.684176  1077A      2.687508  
    1078A      2.702216  1079A      2.702655  1080A      2.713099  
    1081A      2.713110  1082A      2.718820  1083A      2.718854  
    1084A      2.723062  1085A      2.723389  1086A      2.737698  
    1087A      2.743713  1088A      2.750862  1089A      2.753214  
    1090A      2.754750  1091A      2.770425  1092A      2.777637  
    1093A      2.795059  1094A      2.795510  1095A      2.816390  
    1096A      2.818394  1097A      2.827246  1098A      2.828310  
    1099A      2.843764  1100A      2.853003  1101A      2.853186  
    1102A      2.856111  1103A      2.858402  1104A      2.859855  
    1105A      2.861029  1106A      2.868330  1107A      2.885320  
    1108A      2.896583  1109A      2.914856  1110A      2.917715  
    1111A      2.920716  1112A      2.924173  1113A      2.927351  
    1114A      2.933854  1115A      2.934295  1116A      2.949923  
    1117A      2.950047  1118A      2.957217  1119A      2.963169  
    1120A      2.978641  1121A      3.008025  1122A      3.008522  
    1123A      3.009367  1124A      3.011939  1125A      3.022234  
    1126A      3.029726  1127A      3.049110  1128A      3.064361  
    1129A      3.064590  1130A      3.071183  1131A      3.071258  
    1132A      3.109926  1133A      3.110478  1134A      3.129099  
    1135A      3.129858  1136A      3.130505  1137A      3.137519  
    1138A      3.144704  1139A      3.146794  1140A      3.147115  
    1141A      3.147360  1142A      3.149643  1143A      3.150171  
    1144A      3.158790  1145A      3.159282  1146A      3.166385  
    1147A      3.166777  1148A      3.191850  1149A      3.211302  
    1150A      3.219302  1151A      3.238104  1152A      3.274317  
    1153A      3.277118  1154A      3.277485  1155A      3.282398  
    1156A      3.282691  1157A      3.287809  1158A      3.313955  
    1159A      3.327879  1160A      3.416048  1161A      3.416915  
    1162A      3.417670  1163A      3.443387  1164A      3.482059  
    1165A      3.484391  1166A      3.525779  1167A      3.549936  
    1168A      3.574214  1169A      3.577675  1170A      3.580048  
    1171A      3.594094  1172A      3.626644  1173A      3.628830  
    1174A      3.645538  1175A      3.663169  1176A      3.669976  
    1177A      3.758001  1178A      3.769314  1179A      3.782873  
    1180A      3.784303  1181A      3.816635  1182A      3.868761  
    1183A      3.870869  1184A      3.871013  1185A      3.913420  
    1186A      3.913561  1187A      3.965901  1188A      3.976984  
    1189A      4.010967  1190A      4.033621  1191A      4.048807  
    1192A      4.081705  1193A      4.208152  1194A      4.212053  
    1195A      4.355198  1196A      4.364100  1197A      4.490263  
    1198A      4.743686  1199A      4.782120  1200A      4.832669  
    1201A      4.848129  1202A      4.937826  1203A      5.054128  
    1204A      5.059012  1205A      5.068242  1206A      5.112502  
    1207A      5.143656  1208A      5.394202  1209A      5.423539  
    1210A      5.734349  1211A      5.760729  1212A      6.068167  
    1213A     18.198773  1214A     18.457193  1215A     18.473991  
    1216A     18.561990  1217A     18.832125  1218A     25.340015  
    1219A     25.375934  

    Final Occupation by Irrep:
              A 
    DOCC [   171 ]
    NA   [   171 ]
    NB   [   171 ]

  @DF-RHF Final Energy: -2055.89222762110421

   => Energetics <=

    Nuclear Repulsion Energy =           6452.5568002797781446
    One-Electron Energy =              -15636.4456205348760705
    Two-Electron Energy =                7127.9965926339946236
    Total Energy =                      -2055.8922276211042117

Computation Completed


Properties will be evaluated at   0.000000,   0.000000,   0.000000 [a0]

Properties computed using the SCF density matrix


 Multipole Moments:

 ------------------------------------------------------------------------------------
     Multipole            Electronic (a.u.)      Nuclear  (a.u.)        Total (a.u.)
 ------------------------------------------------------------------------------------

 L = 1.  Multiply by 2.5417464519 to convert [e a0] to [Debye]
 Dipole X            :          0.0001379           -0.0000085            0.0001294
 Dipole Y            :        117.1666470         -117.1648546            0.0017924
 Dipole Z            :       -558.9753543          558.9819530            0.0065987
 Magnitude           :                                                    0.0068391

 ------------------------------------------------------------------------------------

*** tstop() called on d-16-13-4 at Mon Jan 22 22:36:36 2024
Module time:
	user time   =    3107.35 seconds =      51.79 minutes
	system time =      89.69 seconds =       1.49 minutes
	total time  =        376 seconds =       6.27 minutes
Total time:
	user time   =    9950.37 seconds =     165.84 minutes
	system time =     329.88 seconds =       5.50 minutes
	total time  =       1217 seconds =      20.28 minutes
  Constructing Basis Sets for SAPT...

   => Loading Basis Set <=

    Name: (JUN-CC-PVDZ AUX)
    Role: RIFIT
    Keyword: DF_BASIS_SAPT
    atoms 1-2, 4-5, 10, 17-70 entry C          line   100 file /home/gridsan/tfroembgen/.conda/envs/psi4test/share/psi4/basis/jun-cc-pvdz-ri.gbs 
    atoms 3, 6                entry N          line   144 file /home/gridsan/tfroembgen/.conda/envs/psi4test/share/psi4/basis/jun-cc-pvdz-ri.gbs 
    atoms 7-9, 11-16, 71-88   entry H          line    30 file /home/gridsan/tfroembgen/.conda/envs/psi4test/share/psi4/basis/jun-cc-pvdz-ri.gbs 

   => Loading Basis Set <=

    Name: (JUN-CC-PVDZ AUX)
    Role: JKFIT
    Keyword: DF_BASIS_ELST
    atoms 1-2, 4-5, 10, 17-70 entry C          line   146 file /home/gridsan/tfroembgen/.conda/envs/psi4test/share/psi4/basis/jun-cc-pvdz-jkfit.gbs 
    atoms 3, 6                entry N          line   202 file /home/gridsan/tfroembgen/.conda/envs/psi4test/share/psi4/basis/jun-cc-pvdz-jkfit.gbs 
    atoms 7-9, 11-16, 71-88   entry H          line    70 file /home/gridsan/tfroembgen/.conda/envs/psi4test/share/psi4/basis/jun-cc-pvdz-jkfit.gbs 


  //>>>>>>>>>>>>>>>>>>>>>>>>>>>>>>>>>>>//
  //               SSAPT0              //
  //<<<<<<<<<<<<<<<<<<<<<<<<<<<<<<<<<<<//


*** tstart() called on d-16-13-4
*** at Mon Jan 22 22:36:38 2024

        SAPT0  
    Ed Hohenstein
     6 June 2009

      Orbital Information
  --------------------------
    NSO        =      1233
    NMO        =      1219
    NRI        =      4343
    NRI (Elst) =      5440
    NOCC A     =        26
    NOCC B     =       171
    FOCC A     =         7
    FOCC B     =        54
    NVIR A     =      1193
    NVIR B     =      1048

    Elst10,r            =    -0.008020277382 [Eh]
    Exch10              =     0.000001653172 [Eh]
    Exch10 (S^2)        =     0.000001653170 [Eh]

    Iter     Energy [mEh]          dE [mEh]         Residual      Time [s]
       1      -0.02539266       0.025392662       1.496175899           671
       2      -0.02412584      -0.001266821       0.395499361          1060
       3      -0.02654938       0.002423540       0.110667362          1475
       4      -0.02670347       0.000154084       0.050235705          1831
       5      -0.02659156      -0.000111905       0.016019522          2111
       6      -0.02658921      -0.000002352       0.004980832          2425
       7      -0.02659675       0.000007539       0.001663572          2691
       8      -0.02659841       0.000001660       0.000422008          3048
       9      -0.02659811      -0.000000296       0.000149550          3378
      10      -0.02659794      -0.000000176       0.000039074          3718
      11      -0.02659795       0.000000012       0.000010829          4062
      12      -0.02659796       0.000000010       0.000003617          4426
      13      -0.02659796       0.000000001       0.000001212          4783
      14      -0.02659796      -0.000000001       0.000000257          4982

    CHF Iterations converged


    Iter     Energy [mEh]          dE [mEh]         Residual      Time [s]
       1      -4.19875670       4.198756705      33.508649909            81
       2      -2.87143832      -1.327318380       4.311545963           208
       3      -2.87374635       0.002308028       1.566269160           245
       4      -2.94345855       0.069712199       0.397347753           277
       5      -2.94736645       0.003907896       0.142470825           311
       6      -2.94516428      -0.002202168       0.084916421           337
       7      -2.94449683      -0.000667454       0.042635816           363
       8      -2.94498329       0.000486462       0.028012756           388
       9      -2.94519737       0.000214078       0.017254512           422
      10      -2.94508866      -0.000108704       0.011336046           446
      11      -2.94501521      -0.000073450       0.004435652           466
      12      -2.94503134       0.000016132       0.001890131           485
      13      -2.94504125       0.000009907       0.000795609           523
      14      -2.94504118      -0.000000074       0.000370542           601
      15      -2.94503887      -0.000002304       0.000199802           634
      16      -2.94503830      -0.000000571       0.000088153           654
      17      -2.94503902       0.000000714       0.000037701           735
      18      -2.94503907       0.000000054       0.000018270           756
      19      -2.94503897      -0.000000104       0.000009269           780
      20      -2.94503895      -0.000000019       0.000003329           806
      21      -2.94503896       0.000000013       0.000001387           834
      22      -2.94503897       0.000000006       0.000000525           861

    CHF Iterations converged

    Ind20,r (A<-B)      =    -0.000026597957 [Eh]
    Ind20,r (B<-A)      =    -0.002945038966 [Eh]
    Ind20,r             =    -0.002971636923 [Eh]
    Exch-Ind20,r (A<-B) =     0.000000095472 [Eh]
    Exch-Ind20,r (B<-A) =     0.000001236381 [Eh]
    Exch-Ind20,r        =     0.000001331853 [Eh]
    Disp20              =    -0.001782658613 [Eh]
    Disp20 (SS)         =    -0.000891329307 [Eh]
    Disp20 (OS)         =    -0.000891329307 [Eh]
    Exch-Disp20         =     0.000000565542 [Eh]
    Exch-Disp20 (SS)    =     0.000000410648 [Eh]
    Exch-Disp20 (OS)    =     0.000000154894 [Eh]

    SAPT Results 
  --------------------------------------------------------------------------------------------------------
    Electrostatics                 -8.02027738 [mEh]      -5.03280004 [kcal/mol]     -21.05723537 [kJ/mol]
      Elst10,r                     -8.02027738 [mEh]      -5.03280004 [kcal/mol]     -21.05723537 [kJ/mol]

    Exchange                        0.00165317 [mEh]       0.00103738 [kcal/mol]       0.00434040 [kJ/mol]
      Exch10                        0.00165317 [mEh]       0.00103738 [kcal/mol]       0.00434040 [kJ/mol]
      Exch10(S^2)                   0.00165317 [mEh]       0.00103738 [kcal/mol]       0.00434040 [kJ/mol]

    Induction                      -3.04800788 [mEh]      -1.91265382 [kcal/mol]      -8.00254360 [kJ/mol]
      Ind20,r                      -2.97163692 [mEh]      -1.86473032 [kcal/mol]      -7.80203167 [kJ/mol]
      Exch-Ind20,r                  0.00133185 [mEh]       0.00083575 [kcal/mol]       0.00349678 [kJ/mol]
      delta HF,r (2)               -0.07770281 [mEh]      -0.04875925 [kcal/mol]      -0.20400871 [kJ/mol]

    Dispersion                     -1.78209307 [mEh]      -1.11828029 [kcal/mol]      -4.67888471 [kJ/mol]
      Disp20                       -1.78265861 [mEh]      -1.11863517 [kcal/mol]      -4.68036954 [kJ/mol]
      Exch-Disp20                   0.00056554 [mEh]       0.00035488 [kcal/mol]       0.00148483 [kJ/mol]
      Disp20 (SS)                  -0.89132931 [mEh]      -0.55931758 [kcal/mol]      -2.34018477 [kJ/mol]
      Disp20 (OS)                  -0.89132931 [mEh]      -0.55931758 [kcal/mol]      -2.34018477 [kJ/mol]
      Exch-Disp20 (SS)              0.00041065 [mEh]       0.00025769 [kcal/mol]       0.00107816 [kJ/mol]
      Exch-Disp20 (OS)              0.00015489 [mEh]       0.00009720 [kcal/mol]       0.00040667 [kJ/mol]

  Total HF                        -11.06663209 [mEh]      -6.94441648 [kcal/mol]     -29.05543856 [kJ/mol]
  Total SAPT0                     -12.84872516 [mEh]      -8.06269677 [kcal/mol]     -33.73432327 [kJ/mol]

  Special recipe for scaled SAPT0 (see Manual):
    Electrostatics sSAPT0          -8.02027738 [mEh]      -5.03280004 [kcal/mol]     -21.05723537 [kJ/mol]
    Exchange sSAPT0                 0.00165317 [mEh]       0.00103738 [kcal/mol]       0.00434040 [kJ/mol]
    Induction sSAPT0               -3.04800788 [mEh]      -1.91265382 [kcal/mol]      -8.00254360 [kJ/mol]
    Dispersion sSAPT0              -1.78209307 [mEh]      -1.11828029 [kcal/mol]      -4.67888471 [kJ/mol]
  Total sSAPT0                    -12.84872516 [mEh]      -8.06269677 [kcal/mol]     -33.73432327 [kJ/mol]
  --------------------------------------------------------------------------------------------------------

*** tstop() called on d-16-13-4 at Tue Jan 23 00:46:43 2024
Module time:
	user time   =    8888.73 seconds =     148.15 minutes
	system time =    1056.25 seconds =      17.60 minutes
	total time  =       7805 seconds =     130.08 minutes
Total time:
	user time   =   18840.13 seconds =     314.00 minutes
	system time =    1386.17 seconds =      23.10 minutes
	total time  =       9024 seconds =     150.40 minutes

    Psi4 stopped on: Tuesday, 23 January 2024 12:46AM
    Psi4 wall time for execution: 2:30:24.81

*** Psi4 exiting successfully. Buy a developer a beer!
