
    -----------------------------------------------------------------------
          Psi4: An Open-Source Ab Initio Electronic Structure Package
                               Psi4 1.9 release

                         Git: Rev {} zzzzzzz 


    D. G. A. Smith, L. A. Burns, A. C. Simmonett, R. M. Parrish,
    M. C. Schieber, R. Galvelis, P. Kraus, H. Kruse, R. Di Remigio,
    A. Alenaizan, A. M. James, S. Lehtola, J. P. Misiewicz, M. Scheurer,
    R. A. Shaw, J. B. Schriber, Y. Xie, Z. L. Glick, D. A. Sirianni,
    J. S. O'Brien, J. M. Waldrop, A. Kumar, E. G. Hohenstein,
    B. P. Pritchard, B. R. Brooks, H. F. Schaefer III, A. Yu. Sokolov,
    K. Patkowski, A. E. DePrince III, U. Bozkaya, R. A. King,
    F. A. Evangelista, J. M. Turney, T. D. Crawford, C. D. Sherrill,
    J. Chem. Phys. 152(18) 184108 (2020). https://doi.org/10.1063/5.0006002

                            Additional Code Authors
    E. T. Seidl, C. L. Janssen, E. F. Valeev, M. L. Leininger,
    J. F. Gonthier, R. M. Richard, H. R. McAlexander, M. Saitow, X. Wang,
    P. Verma, M. H. Lechner, A. Jiang, S. Behnle, A. G. Heide,
    M. F. Herbst, and D. L. Poole

             Previous Authors, Complete List of Code Contributors,
                       and Citations for Specific Modules
    https://github.com/psi4/psi4/blob/master/codemeta.json
    https://github.com/psi4/psi4/graphs/contributors
    http://psicode.org/psi4manual/master/introduction.html#citing-psifour

    -----------------------------------------------------------------------


    Psi4 started on: Monday, 22 January 2024 08:09PM

    Process ID: 1882384
    Host:       d-16-7-4
    PSIDATADIR: /home/gridsan/tfroembgen/.conda/envs/psi4test/share/psi4
    Memory:     500.0 MiB
    Threads:    12
    
  ==> Input File <==

--------------------------------------------------------------------------
memory 32 GB # how much memory is available ! Depends on the nodes/cores !

molecule dimer {
# monomer A
+1 1    # Charge and multiplicity
C  0.680067 -0.008042 -11.015929
C -0.680504 -0.006014 -11.015545
N -1.085635 -0.005016  -9.697221
C  0.000108 -0.001740  -8.915820
C -2.477365  0.044390  -9.229242
N  1.085222 -0.005016  -9.697221
H  1.385146 -0.015870 -11.833368
H -1.385302 -0.006204 -11.833214
H -0.000009  0.000007  -7.834731
C  2.478117 -0.021908  -9.232123
H  2.490592  0.005437  -8.141870
H  2.967028 -0.935354  -9.579299
H  3.001428  0.853575  -9.623595
H -2.857359  1.066461  -9.309201
H -3.082679 -0.625694  -9.842306
H -2.518128 -0.282594  -8.189294
--
# monomer B
0 1     # Charge and multiplicity
C   1.22531237526482      0.70753866091955      0.00613762728373
C   1.22532433589282     -0.70753852257020     -0.00619318228664
C   -0.00000567409046      1.41496628609039     -0.00672680580738
C   2.45644923379077      1.41832825917820      0.00902448468363
C   0.00001130712078     -1.41497612663474      0.00347275151708
C   -1.22530046906674      0.70754574598412      0.00838914760619
C   2.45643823516184     -1.41832293188077     -0.00843833914343
C   -0.00000085313587      2.83680140328112     -0.00913035594137
C   3.68182717731192      0.70931832800114     -0.00808954934571
C   2.45512052870677      2.83422403348893     -0.00819210630633
C   3.68182158506039     -0.70933346742900      0.00798293467272
C   -1.22531311884624     -0.70752714354401     -0.00512042085974
C   1.22670006104402      3.54346985599427      0.00816696660346
C   0.00000526469929     -2.83678176723568      0.00832091913869
C   -2.45643555300670      1.41831729028492      0.00842454345199
C   2.45512389762097     -2.83422965658853      0.00783102630520
C   -1.22671388474763      3.54346943575023      0.00827029982280
C   4.91451777504333      1.42717324448953     -0.00160886631602
C   3.69315067131765      3.54279566454522     -0.00155906667985
C   -2.45643712022637     -1.41831290883911     -0.00846337726810
C   1.22670532178455     -3.54347386990643     -0.00780316414624
C   -2.45512491866593      2.83421703463423     -0.00818572995999
C   4.91452486062398     -1.42718653794377      0.00136387641845
C   1.22142509354026      4.97013443726031      0.00150231067809
C   4.89300870916237      2.82518837202648     -0.00039219795739
C   -1.22669652864725     -3.54347062507680     -0.00753595973677
C   -3.68181849668397      0.70932533873199     -0.00807686886569
C   3.69314758099218     -3.54280096939050      0.00148176697923
C   -1.22143177215231      4.97012866986289      0.00168580605083
C   6.13477145276790      0.68054831910577     -0.00083909176631
C   3.65678936045204      4.97295361556775     -0.00065042889723
C   -2.45512642789169     -2.83421472106065      0.00758666850712
C   -3.68181869921921     -0.70932533146830      0.00810055625144
C   4.89301309775526     -2.82519973363176      0.00021895393805
C   -0.00000059327114      5.65044773803267      0.00045449734393
C   6.13477559217374     -0.68055448207492      0.00042622874941
C   2.47813196269732      5.65357712333155      0.00063835075260
C   1.22142288457925     -4.97012668293268     -0.00129718634452
C   -3.69316190412301      3.54279732619245     -0.00139355922051
C   -1.22142804110313     -4.97011793159564     -0.00140994817719
C   -4.91452132810043      1.42717581899491     -0.00153192130862
C   3.65678749952045     -4.97295485423912      0.00080007163680
C   -2.47813805026426      5.65357479452875      0.00092287576113
C   -3.69314125872231     -3.54278984697859      0.00136564082345
C   -4.91451200321153     -1.42718062802730      0.00139857359209
C   -0.00000552908399     -5.65043791501335      0.00005899322272
C   -4.89302000425900      2.82518897091939     -0.00040227981744
C   2.47812647313991     -5.65357317188818     -0.00029052915548
C   -3.65679823041642      4.97295655404175     -0.00047374852278
C   -4.89299899901461     -2.82519139505969      0.00006491824035
C   -2.47812801824129     -5.65356579800621     -0.00056571680280
C   -6.13477002348955      0.68054913825639     -0.00086464346868
C   -3.65678835334731     -4.97294365097028      0.00058578382008
C   -6.13476456307132     -0.68055354348201      0.00040575295444
H   5.83528897565761      3.36927626695423      0.00396712770529
H   7.07385965258860      1.22821762089947     -0.00037744837300
H   4.60066374401555      5.51238117445323     -0.00014522814529
H   5.83528386714679     -3.36930568472863     -0.00423551337640
H   -0.00001167146422      6.73853104613662     -0.00389474766392
H   7.07386165167227     -1.22822657074368     -0.00008250934481
H   2.47331421164041      6.74068466339473      0.00017162982210
H   4.60066897122302     -5.51237575717576      0.00039007446835
H   -2.47331820069565      6.74068209160650      0.00047297644710
H   -0.00000978838621     -6.73852780445195      0.00458867820736
H   -5.83530143450167      3.36927132229595      0.00410314985360
H   2.47330840367253     -6.74068500242887      0.00027980126949
H   -4.60067436136587      5.51237839860371      0.00002010017831
H   -5.83527902699321     -3.36928859177951     -0.00451481925734
H   -2.47329986759855     -6.74067870613986     -0.00016951527498
H   -7.07385728692578      1.22822084484047     -0.00046143985387
H   -4.60067330624313     -5.51236229778631      0.00021776644566
H   -7.07385645456741     -1.22822025997701     -0.00017736581114

    units angstrom      # Angstroms are the default
    no_reorient         # Geometry fixed, default
    symmetry c1         # C1 symmetry, default
}

set {
    scf_type DF         # Density fitting, faster than exact integrals
    freeze_core True    # Freeze core electrons
    basis jun-cc-pVDZ   # Jun-cc-pVDZ basis set, recommended for sSAPT0 in https://doi.org/10.1063/1.4867135
}

energy('ssapt0')        # Compute sSAPT0 energy, includes also SAPT0
--------------------------------------------------------------------------

  Memory set to  29.802 GiB by Python driver.

Scratch directory: /state/partition1/slurm_tmp/24798291.4294967291.0/
   => Loading Basis Set <=

    Name: JUN-CC-PVDZ
    Role: ORBITAL
    Keyword: BASIS
    atoms 1-2, 4-5, 10, 17-70 entry C          line   164 file /home/gridsan/tfroembgen/.conda/envs/psi4test/share/psi4/basis/jun-cc-pvdz.gbs 
    atoms 3, 6                entry N          line   198 file /home/gridsan/tfroembgen/.conda/envs/psi4test/share/psi4/basis/jun-cc-pvdz.gbs 
    atoms 7-9, 11-16, 71-88   entry H          line    36 file /home/gridsan/tfroembgen/.conda/envs/psi4test/share/psi4/basis/jun-cc-pvdz.gbs 

   => Loading Basis Set <=

    Name: JUN-CC-PVDZ
    Role: ORBITAL
    Keyword: BASIS
    atoms 1-2, 4-5, 10, 17-70 entry C          line   164 file /home/gridsan/tfroembgen/.conda/envs/psi4test/share/psi4/basis/jun-cc-pvdz.gbs 
    atoms 3, 6                entry N          line   198 file /home/gridsan/tfroembgen/.conda/envs/psi4test/share/psi4/basis/jun-cc-pvdz.gbs 
    atoms 7-9, 11-16, 71-88   entry H          line    36 file /home/gridsan/tfroembgen/.conda/envs/psi4test/share/psi4/basis/jun-cc-pvdz.gbs 


  //>>>>>>>>>>>>>>>>>>>>>>>>>>>>>>>>>>>//
  //              Dimer HF             //
  //<<<<<<<<<<<<<<<<<<<<<<<<<<<<<<<<<<<//

   => Libint2 <=

    Primary   basis highest AM E, G, H:  7, 7, 4
    Auxiliary basis highest AM E, G, H:  7, 7, 5
    Onebody   basis highest AM E, G, H:  7, 7, 5
    Solid Harmonics ordering:            gaussian

*** tstart() called on d-16-7-4
*** at Mon Jan 22 20:09:30 2024

   => Loading Basis Set <=

    Name: JUN-CC-PVDZ
    Role: ORBITAL
    Keyword: BASIS
    atoms 1-2, 4-5, 10, 17-70 entry C          line   164 file /home/gridsan/tfroembgen/.conda/envs/psi4test/share/psi4/basis/jun-cc-pvdz.gbs 
    atoms 3, 6                entry N          line   198 file /home/gridsan/tfroembgen/.conda/envs/psi4test/share/psi4/basis/jun-cc-pvdz.gbs 
    atoms 7-9, 11-16, 71-88   entry H          line    36 file /home/gridsan/tfroembgen/.conda/envs/psi4test/share/psi4/basis/jun-cc-pvdz.gbs 


         ---------------------------------------------------------
                                   SCF
               by Justin Turney, Rob Parrish, Andy Simmonett
                          and Daniel G. A. Smith
                              RHF Reference
                       12 Threads,  30517 MiB Core
         ---------------------------------------------------------

  ==> Geometry <==

    Molecular point group: c1
    Full point group: C1

    Geometry (in Angstrom), charge = 1, multiplicity = 1:

       Center              X                  Y                   Z               Mass       
    ------------   -----------------  -----------------  -----------------  -----------------
         C            0.680066520158    -0.008042372515    -9.769431400982    12.000000000000
         C           -0.680504479842    -0.006014372515    -9.769047400982    12.000000000000
         N           -1.085635479842    -0.005016372515    -8.450723400982    14.003074004430
         C            0.000107520158    -0.001740372515    -7.669322400982    12.000000000000
         C           -2.477365479842     0.044389627485    -7.982744400982    12.000000000000
         N            1.085221520158    -0.005016372515    -8.450723400982    14.003074004430
         H            1.385145520158    -0.015870372515   -10.586870400982     1.007825032230
         H           -1.385302479842    -0.006204372515   -10.586716400982     1.007825032230
         H           -0.000009479842     0.000006627485    -6.588233400982     1.007825032230
         C            2.478116520158    -0.021908372515    -7.985625400982    12.000000000000
         H            2.490591520158     0.005436627485    -6.895372400982     1.007825032230
         H            2.967027520158    -0.935354372515    -8.332801400982     1.007825032230
         H            3.001427520158     0.853574627485    -8.377097400982     1.007825032230
         H           -2.857359479842     1.066460627485    -8.062703400982     1.007825032230
         H           -3.082679479842    -0.625694372515    -8.595808400982     1.007825032230
         H           -2.518128479842    -0.282594372515    -6.942796400982     1.007825032230
         C            1.225311895423     0.707538288405     1.252635226302    12.000000000000
         C            1.225323856051    -0.707538895085     1.240304416731    12.000000000000
         C           -0.000006153932     1.414965913575     1.239770793211    12.000000000000
         C            2.456448753949     1.418327886663     1.255522083702    12.000000000000
         C            0.000010827279    -1.414976499150     1.249970350535    12.000000000000
         C           -1.225300948908     0.707545373469     1.254886746624    12.000000000000
         C            2.456437755320    -1.418323304396     1.238059259875    12.000000000000
         C           -0.000001332978     2.836801030766     1.237367243077    12.000000000000
         C            3.681826697470     0.709317955486     1.238408049672    12.000000000000
         C            2.455120048865     2.834223660974     1.238305492712    12.000000000000
         C            3.681821105219    -0.709333839944     1.254480533691    12.000000000000
         C           -1.225313598688    -0.707527516059     1.241377178158    12.000000000000
         C            1.226699581202     3.543469483479     1.254664565622    12.000000000000
         C            0.000004784858    -2.836782139751     1.254818518157    12.000000000000
         C           -2.456436032848     1.418316917770     1.254922142470    12.000000000000
         C            2.455123417779    -2.834230029103     1.254328625323    12.000000000000
         C           -1.226714364589     3.543469063235     1.254767898841    12.000000000000
         C            4.914517295202     1.427172871975     1.244888732702    12.000000000000
         C            3.693150191476     3.542795292030     1.244938532338    12.000000000000
         C           -2.456437600068    -1.418313281354     1.238034221750    12.000000000000
         C            1.226704841943    -3.543474242421     1.238694434872    12.000000000000
         C           -2.455125398508     2.834216662119     1.238311869058    12.000000000000
         C            4.914524380782    -1.427186910459     1.247861475437    12.000000000000
         C            1.221424613699     4.970134064745     1.247999909696    12.000000000000
         C            4.893008229321     2.825187999512     1.246105401061    12.000000000000
         C           -1.226697008489    -3.543470997592     1.238961639281    12.000000000000
         C           -3.681818976526     0.709324966217     1.238420730152    12.000000000000
         C            3.693147101150    -3.542801341905     1.247979365997    12.000000000000
         C           -1.221432251994     4.970128297348     1.248183405069    12.000000000000
         C            6.134770972926     0.680547946591     1.245658507252    12.000000000000
         C            3.656788880610     4.972953243053     1.245847170121    12.000000000000
         C           -2.455126907733    -2.834215093576     1.254084267525    12.000000000000
         C           -3.681819179061    -0.709325703983     1.254598155270    12.000000000000
         C            4.893012617914    -2.825200106147     1.246716552956    12.000000000000
         C           -0.000001073113     5.650447365518     1.246952096362    12.000000000000
         C            6.134775112332    -0.680554854590     1.246923827767    12.000000000000
         C            2.478131482856     5.653576750817     1.247135949771    12.000000000000
         C            1.221422404738    -4.970127055448     1.245200412674    12.000000000000
         C           -3.693162383965     3.542796953677     1.245104039798    12.000000000000
         C           -1.221428520945    -4.970118304111     1.245087650841    12.000000000000
         C           -4.914521807942     1.427175446480     1.244965677709    12.000000000000
         C            3.656787019679    -4.972955226754     1.247297670655    12.000000000000
         C           -2.478138530106     5.653574422014     1.247420474779    12.000000000000
         C           -3.693141738564    -3.542790219494     1.247863239842    12.000000000000
         C           -4.914512483053    -1.427181000542     1.247896172610    12.000000000000
         C           -0.000006008926    -5.650438287528     1.246556592241    12.000000000000
         C           -4.893020484101     2.825188598404     1.246095319201    12.000000000000
         C            2.478125993298    -5.653573544403     1.246207069863    12.000000000000
         C           -3.656798710258     4.972956181527     1.246023850495    12.000000000000
         C           -4.892999478856    -2.825191767575     1.246562517258    12.000000000000
         C           -2.478128498083    -5.653566170521     1.245931882215    12.000000000000
         C           -6.134770503331     0.680548765741     1.245632955549    12.000000000000
         C           -3.656788833189    -4.972944023485     1.247083382838    12.000000000000
         C           -6.134765042913    -0.680553915997     1.246903351973    12.000000000000
         H            5.835288495816     3.369275894439     1.250464726723     1.007825032230
         H            7.073859172747     1.228217248385     1.246120150645     1.007825032230
         H            4.600663264174     5.512380801938     1.246352370873     1.007825032230
         H            5.835283387305    -3.369306057244     1.242262085642     1.007825032230
         H           -0.000012151306     6.738530673622     1.242602851354     1.007825032230
         H            7.073861171831    -1.228226943259     1.246415089673     1.007825032230
         H            2.473313731799     6.740684290880     1.246669228840     1.007825032230
         H            4.600668491381    -5.512376129691     1.246887673486     1.007825032230
         H           -2.473318680537     6.740681719092     1.246970575465     1.007825032230
         H           -0.000010268228    -6.738528176967     1.251086277225     1.007825032230
         H           -5.835301914343     3.369270949781     1.250600748872     1.007825032230
         H            2.473307923831    -6.740685374944     1.246777400288     1.007825032230
         H           -4.600674841208     5.512378026089     1.246517699196     1.007825032230
         H           -5.835279506835    -3.369288964294     1.241982779761     1.007825032230
         H           -2.473300347440    -6.740679078655     1.246328083743     1.007825032230
         H           -7.073857766768     1.228220472326     1.246036159164     1.007825032230
         H           -4.600673786085    -5.512362670301     1.246715365464     1.007825032230
         H           -7.073856934409    -1.228220632492     1.246320233207     1.007825032230

  Running in c1 symmetry.

  Rotational constants: A =      0.00109  B =      0.00107  C =      0.00105 [cm^-1]
  Rotational constants: A =     32.71081  B =     31.95872  C =     31.48229 [MHz]
  Nuclear repulsion = 7638.283826645209956

  Charge       = 1
  Multiplicity = 1
  Electrons    = 394
  Nalpha       = 197
  Nbeta        = 197

  ==> Algorithm <==

  SCF Algorithm Type is DF.
  DIIS enabled.
  MOM disabled.
  Fractional occupation disabled.
  Guess Type is SAD.
  Energy threshold   = 1.00e-08
  Density threshold  = 1.00e-08
  Integral threshold = 1.00e-12

  ==> Primary Basis <==

  Basis Set: JUN-CC-PVDZ
    Blend: JUN-CC-PVDZ
    Number of shells: 569
    Number of basis functions: 1233
    Number of Cartesian functions: 1294
    Spherical Harmonics?: true
    Max angular momentum: 2

   => Loading Basis Set <=

    Name: (JUN-CC-PVDZ AUX)
    Role: JKFIT
    Keyword: DF_BASIS_SCF
    atoms 1-2, 4-5, 10, 17-70 entry C          line   146 file /home/gridsan/tfroembgen/.conda/envs/psi4test/share/psi4/basis/jun-cc-pvdz-jkfit.gbs 
    atoms 3, 6                entry N          line   202 file /home/gridsan/tfroembgen/.conda/envs/psi4test/share/psi4/basis/jun-cc-pvdz-jkfit.gbs 
    atoms 7-9, 11-16, 71-88   entry H          line    70 file /home/gridsan/tfroembgen/.conda/envs/psi4test/share/psi4/basis/jun-cc-pvdz-jkfit.gbs 

  ==> Integral Setup <==

  ==> DiskDFJK: Density-Fitted J/K Matrices <==

    J tasked:                  Yes
    K tasked:                  Yes
    wK tasked:                  No
    OpenMP threads:             12
    Integrals threads:          12
    Memory [MiB]:            22888
    Algorithm:                Core
    Integral Cache:           SAVE
    Schwarz Cutoff:          1E-12
    Fitting Condition:       1E-10

   => Auxiliary Basis Set <=

  Basis Set: (JUN-CC-PVDZ AUX)
    Blend: JUN-CC-PVDZ-JKFIT
    Number of shells: 1890
    Number of basis functions: 5440
    Number of Cartesian functions: 6226
    Spherical Harmonics?: true
    Max angular momentum: 3

  Minimum eigenvalue in the overlap matrix is 8.3998395262E-10.
  Reciprocal condition number of the overlap matrix is 3.7579838344E-11.
    Using canonical orthogonalization.
  Overall, 14 of 1233 possible MOs eliminated.


  ==> Pre-Iterations <==

  SCF Guess: Superposition of Atomic Densities via on-the-fly atomic UHF (no occupation information).

   -------------------------
    Irrep   Nso     Nmo    
   -------------------------
     A       1233    1219 
   -------------------------
    Total    1233    1219
   -------------------------

  ==> Iterations <==

                           Total Energy        Delta E     RMS |[F,P]|

   @DF-RHF iter SAD: -2365.39381989626236   -2.36539e+03   0.00000e+00 
   @DF-RHF iter   1: -2358.18171439466732    7.21211e+00   9.49757e-04 ADIIS/DIIS
   @DF-RHF iter   2: -2359.08447362916422   -9.02759e-01   3.26263e-04 ADIIS/DIIS
   @DF-RHF iter   3: -2359.17807127303695   -9.35976e-02   1.20359e-04 ADIIS/DIIS
   @DF-RHF iter   4: -2359.19161639145932   -1.35451e-02   4.62254e-05 DIIS
   @DF-RHF iter   5: -2359.19369713439437   -2.08074e-03   1.08059e-05 DIIS
   @DF-RHF iter   6: -2359.19388443004436   -1.87296e-04   5.31902e-06 DIIS
   @DF-RHF iter   7: -2359.19395770724668   -7.32772e-05   2.27122e-06 DIIS
   @DF-RHF iter   8: -2359.19397873959497   -2.10323e-05   1.12514e-06 DIIS
   @DF-RHF iter   9: -2359.19398397603209   -5.23644e-06   2.58351e-07 DIIS
   @DF-RHF iter  10: -2359.19398421821779   -2.42186e-07   8.48238e-08 DIIS
   @DF-RHF iter  11: -2359.19398423565735   -1.74396e-08   3.12705e-08 DIIS
   @DF-RHF iter  12: -2359.19398423916573   -3.50838e-09   1.05895e-08 DIIS
   @DF-RHF iter  13: -2359.19398423946996   -3.04226e-10   4.14355e-09 DIIS
  Energy and wave function converged.


  ==> Post-Iterations <==

    Orbital Energies [Eh]
    ---------------------

    Doubly Occupied:                                                      

       1A    -15.828876     2A    -15.828350     3A    -11.523657  
       4A    -11.454625     5A    -11.453071     6A    -11.443771  
       7A    -11.443661     8A    -11.309594     9A    -11.309128  
      10A    -11.309116    11A    -11.308223    12A    -11.308202  
      13A    -11.307899    14A    -11.307429    15A    -11.307399  
      16A    -11.307351    17A    -11.307168    18A    -11.307130  
      19A    -11.306899    20A    -11.306330    21A    -11.306309  
      22A    -11.306236    23A    -11.306201    24A    -11.306174  
      25A    -11.306156    26A    -11.306115    27A    -11.306113  
      28A    -11.306014    29A    -11.306009    30A    -11.306002  
      31A    -11.305994    32A    -11.305315    33A    -11.305310  
      34A    -11.305233    35A    -11.305204    36A    -11.305180  
      37A    -11.305152    38A    -11.304547    39A    -11.304519  
      40A    -11.304459    41A    -11.304416    42A    -11.304367  
      43A    -11.304348    44A    -11.299035    45A    -11.299033  
      46A    -11.298854    47A    -11.298850    48A    -11.298844  
      49A    -11.298835    50A    -11.298793    51A    -11.298783  
      52A    -11.298779    53A    -11.298771    54A    -11.298677  
      55A    -11.298655    56A    -11.297590    57A    -11.297587  
      58A    -11.297376    59A    -11.297373    60A    -11.297373  
      61A    -11.297370    62A     -1.572563    63A     -1.428107  
      64A     -1.292804    65A     -1.268105    66A     -1.268026  
      67A     -1.237479    68A     -1.237474    69A     -1.233112  
      70A     -1.229275    71A     -1.205149    72A     -1.196843  
      73A     -1.183686    74A     -1.183612    75A     -1.183527  
      76A     -1.160738    77A     -1.160719    78A     -1.130442  
      79A     -1.130439    80A     -1.126615    81A     -1.113424  
      82A     -1.113413    83A     -1.113075    84A     -1.087048  
      85A     -1.072550    86A     -1.070008    87A     -1.069996  
      88A     -1.065231    89A     -1.060114    90A     -1.034907  
      91A     -1.034902    92A     -1.016993    93A     -1.009404  
      94A     -1.009384    95A     -0.991205    96A     -0.941863  
      97A     -0.941815    98A     -0.936153    99A     -0.934412  
     100A     -0.934313   101A     -0.929349   102A     -0.929278  
     103A     -0.911301   104A     -0.909390   105A     -0.884451  
     106A     -0.865800   107A     -0.864646   108A     -0.860006  
     109A     -0.859952   110A     -0.844816   111A     -0.841981  
     112A     -0.841974   113A     -0.810757   114A     -0.807247  
     115A     -0.794669   116A     -0.792771   117A     -0.784556  
     118A     -0.781316   119A     -0.781244   120A     -0.780478  
     121A     -0.779521   122A     -0.779462   123A     -0.776410  
     124A     -0.764171   125A     -0.746491   126A     -0.746432  
     127A     -0.741260   128A     -0.741201   129A     -0.723761  
     130A     -0.719881   131A     -0.711377   132A     -0.708476  
     133A     -0.700786   134A     -0.699077   135A     -0.697464  
     136A     -0.697436   137A     -0.686783   138A     -0.686758  
     139A     -0.677423   140A     -0.675214   141A     -0.675200  
     142A     -0.655306   143A     -0.652325   144A     -0.649528  
     145A     -0.647089   146A     -0.647020   147A     -0.641440  
     148A     -0.639284   149A     -0.639233   150A     -0.632134  
     151A     -0.624724   152A     -0.624622   153A     -0.614449  
     154A     -0.614427   155A     -0.613775   156A     -0.613701  
     157A     -0.606478   158A     -0.602030   159A     -0.601943  
     160A     -0.590688   161A     -0.586174   162A     -0.586161  
     163A     -0.585805   164A     -0.585787   165A     -0.577217  
     166A     -0.576527   167A     -0.570391   168A     -0.570320  
     169A     -0.547633   170A     -0.543158   171A     -0.540503  
     172A     -0.535693   173A     -0.532857   174A     -0.529313  
     175A     -0.529284   176A     -0.518592   177A     -0.518504  
     178A     -0.518494   179A     -0.499100   180A     -0.498980  
     181A     -0.486539   182A     -0.486518   183A     -0.452849  
     184A     -0.452841   185A     -0.451483   186A     -0.422751  
     187A     -0.422748   188A     -0.396847   189A     -0.386251  
     190A     -0.385144   191A     -0.385136   192A     -0.358720  
     193A     -0.345146   194A     -0.332517   195A     -0.332513  
     196A     -0.272594   197A     -0.272590  

    Virtual:                                                              

     198A     -0.062870   199A     -0.055555   200A     -0.049028  
     201A     -0.043302   202A     -0.033745   203A     -0.033621  
     204A     -0.026478   205A     -0.023623   206A     -0.021384  
     207A     -0.019885   208A      0.000031   209A      0.004753  
     210A      0.006100   211A      0.006185   212A      0.007039  
     213A      0.007430   214A      0.009623   215A      0.010793  
     216A      0.010921   217A      0.014600   218A      0.016613  
     219A      0.016720   220A      0.017894   221A      0.022457  
     222A      0.024313   223A      0.024582   224A      0.033718  
     225A      0.033744   226A      0.035973   227A      0.037242  
     228A      0.038329   229A      0.038519   230A      0.040907  
     231A      0.041085   232A      0.042248   233A      0.042720  
     234A      0.049083   235A      0.049154   236A      0.050166  
     237A      0.050491   238A      0.052271   239A      0.057645  
     240A      0.057719   241A      0.059997   242A      0.063216  
     243A      0.068517   244A      0.068825   245A      0.070120  
     246A      0.070131   247A      0.073664   248A      0.076581  
     249A      0.077654   250A      0.077759   251A      0.081505  
     252A      0.083346   253A      0.084081   254A      0.088664  
     255A      0.088910   256A      0.089429   257A      0.090258  
     258A      0.090800   259A      0.092153   260A      0.092284  
     261A      0.094128   262A      0.096420   263A      0.098716  
     264A      0.104743   265A      0.109138   266A      0.109470  
     267A      0.110269   268A      0.111444   269A      0.111875  
     270A      0.115724   271A      0.115897   272A      0.120068  
     273A      0.120699   274A      0.126630   275A      0.126686  
     276A      0.127563   277A      0.127839   278A      0.133984  
     279A      0.135800   280A      0.135823   281A      0.136354  
     282A      0.137111   283A      0.140157   284A      0.140820  
     285A      0.140880   286A      0.142765   287A      0.143012  
     288A      0.145315   289A      0.146412   290A      0.146541  
     291A      0.146843   292A      0.147737   293A      0.153968  
     294A      0.159369   295A      0.160688   296A      0.161832  
     297A      0.162388   298A      0.164375   299A      0.165842  
     300A      0.167168   301A      0.167225   302A      0.168314  
     303A      0.168436   304A      0.168620   305A      0.170155  
     306A      0.172384   307A      0.172813   308A      0.173705  
     309A      0.179017   310A      0.180705   311A      0.181799  
     312A      0.183783   313A      0.184059   314A      0.185639  
     315A      0.185979   316A      0.186617   317A      0.187185  
     318A      0.187363   319A      0.187781   320A      0.189293  
     321A      0.189504   322A      0.193991   323A      0.195207  
     324A      0.196153   325A      0.198916   326A      0.202314  
     327A      0.202484   328A      0.203681   329A      0.206477  
     330A      0.206578   331A      0.209047   332A      0.211048  
     333A      0.211166   334A      0.212771   335A      0.213160  
     336A      0.215361   337A      0.217320   338A      0.222043  
     339A      0.222119   340A      0.222651   341A      0.222981  
     342A      0.223011   343A      0.223229   344A      0.223544  
     345A      0.223705   346A      0.228890   347A      0.229067  
     348A      0.229860   349A      0.237647   350A      0.239456  
     351A      0.240565   352A      0.241165   353A      0.243386  
     354A      0.243732   355A      0.250661   356A      0.252606  
     357A      0.252855   358A      0.255816   359A      0.257667  
     360A      0.257705   361A      0.260265   362A      0.263029  
     363A      0.263903   364A      0.264028   365A      0.264059  
     366A      0.265961   367A      0.266074   368A      0.267494  
     369A      0.269162   370A      0.269511   371A      0.271067  
     372A      0.272864   373A      0.273424   374A      0.275461  
     375A      0.276209   376A      0.276295   377A      0.276652  
     378A      0.277481   379A      0.278573   380A      0.280345  
     381A      0.282399   382A      0.283042   383A      0.283537  
     384A      0.288942   385A      0.290586   386A      0.294429  
     387A      0.298470   388A      0.299723   389A      0.299810  
     390A      0.300627   391A      0.300631   392A      0.301646  
     393A      0.304645   394A      0.304726   395A      0.306630  
     396A      0.311014   397A      0.311068   398A      0.314665  
     399A      0.315070   400A      0.321066   401A      0.323325  
     402A      0.325745   403A      0.326629   404A      0.327073  
     405A      0.327130   406A      0.328619   407A      0.330892  
     408A      0.330976   409A      0.338512   410A      0.339030  
     411A      0.339236   412A      0.344536   413A      0.345376  
     414A      0.345586   415A      0.345608   416A      0.346054  
     417A      0.346212   418A      0.349164   419A      0.349798  
     420A      0.350993   421A      0.352797   422A      0.352970  
     423A      0.355792   424A      0.355941   425A      0.358295  
     426A      0.358609   427A      0.358618   428A      0.359908  
     429A      0.361817   430A      0.361835   431A      0.364043  
     432A      0.364059   433A      0.364353   434A      0.374228  
     435A      0.374259   436A      0.374539   437A      0.376879  
     438A      0.376976   439A      0.381319   440A      0.386385  
     441A      0.389841   442A      0.389979   443A      0.392709  
     444A      0.393534   445A      0.396868   446A      0.397166  
     447A      0.397265   448A      0.398795   449A      0.398817  
     450A      0.404023   451A      0.404203   452A      0.404690  
     453A      0.408782   454A      0.412618   455A      0.412782  
     456A      0.413661   457A      0.413669   458A      0.413832  
     459A      0.416231   460A      0.418145   461A      0.418317  
     462A      0.421544   463A      0.424822   464A      0.424834  
     465A      0.431521   466A      0.435197   467A      0.435655  
     468A      0.435951   469A      0.436351   470A      0.436434  
     471A      0.444714   472A      0.445399   473A      0.446354  
     474A      0.446440   475A      0.448145   476A      0.448292  
     477A      0.451353   478A      0.455523   479A      0.455600  
     480A      0.459012   481A      0.459814   482A      0.466001  
     483A      0.466024   484A      0.467363   485A      0.467414  
     486A      0.472205   487A      0.472750   488A      0.476620  
     489A      0.479209   490A      0.479294   491A      0.479346  
     492A      0.491698   493A      0.492564   494A      0.493153  
     495A      0.497480   496A      0.500800   497A      0.500879  
     498A      0.501214   499A      0.505862   500A      0.506665  
     501A      0.506769   502A      0.507547   503A      0.508085  
     504A      0.508262   505A      0.509906   506A      0.514360  
     507A      0.514635   508A      0.514821   509A      0.522427  
     510A      0.522470   511A      0.539449   512A      0.539676  
     513A      0.549195   514A      0.550074   515A      0.550571  
     516A      0.558542   517A      0.565779   518A      0.567091  
     519A      0.567180   520A      0.574628   521A      0.574819  
     522A      0.579474   523A      0.579527   524A      0.597655  
     525A      0.602347   526A      0.602468   527A      0.606811  
     528A      0.607431   529A      0.620303   530A      0.620308  
     531A      0.622599   532A      0.629218   533A      0.630365  
     534A      0.630398   535A      0.630826   536A      0.649197  
     537A      0.653993   538A      0.664289   539A      0.668831  
     540A      0.668934   541A      0.673137   542A      0.685560  
     543A      0.687470   544A      0.693546   545A      0.694410  
     546A      0.695660   547A      0.695881   548A      0.695935  
     549A      0.696678   550A      0.701081   551A      0.710030  
     552A      0.710115   553A      0.713747   554A      0.715165  
     555A      0.717972   556A      0.722781   557A      0.740255  
     558A      0.744044   559A      0.744973   560A      0.749116  
     561A      0.749407   562A      0.752534   563A      0.757698  
     564A      0.758201   565A      0.759094   566A      0.759941  
     567A      0.765005   568A      0.767210   569A      0.776444  
     570A      0.776951   571A      0.779490   572A      0.780425  
     573A      0.780984   574A      0.781270   575A      0.782673  
     576A      0.787834   577A      0.790593   578A      0.792079  
     579A      0.796731   580A      0.807499   581A      0.807578  
     582A      0.811993   583A      0.817469   584A      0.817776  
     585A      0.818026   586A      0.821198   587A      0.824897  
     588A      0.825393   589A      0.825830   590A      0.826494  
     591A      0.830215   592A      0.830725   593A      0.830867  
     594A      0.839719   595A      0.841630   596A      0.841787  
     597A      0.848384   598A      0.850548   599A      0.850797  
     600A      0.851467   601A      0.854336   602A      0.860636  
     603A      0.861007   604A      0.862152   605A      0.862847  
     606A      0.864413   607A      0.866615   608A      0.868165  
     609A      0.871038   610A      0.874795   611A      0.874914  
     612A      0.881061   613A      0.884093   614A      0.884536  
     615A      0.884795   616A      0.887763   617A      0.888621  
     618A      0.888785   619A      0.894949   620A      0.895098  
     621A      0.898268   622A      0.898362   623A      0.905931  
     624A      0.907558   625A      0.910009   626A      0.910136  
     627A      0.923109   628A      0.923183   629A      0.924520  
     630A      0.924874   631A      0.926122   632A      0.926194  
     633A      0.929821   634A      0.931491   635A      0.933510  
     636A      0.940745   637A      0.940789   638A      0.945433  
     639A      0.946466   640A      0.951255   641A      0.951321  
     642A      0.953295   643A      0.958197   644A      0.967925  
     645A      0.968025   646A      0.968195   647A      0.970233  
     648A      0.971432   649A      0.971507   650A      0.977568  
     651A      0.983827   652A      0.983946   653A      0.987451  
     654A      0.987690   655A      0.989642   656A      0.989698  
     657A      0.992805   658A      0.992859   659A      0.993753  
     660A      0.997324   661A      0.997326   662A      0.998395  
     663A      0.999319   664A      0.999585   665A      1.001984  
     666A      1.005663   667A      1.005975   668A      1.009721  
     669A      1.012636   670A      1.013555   671A      1.014054  
     672A      1.014779   673A      1.020732   674A      1.020876  
     675A      1.022540   676A      1.025264   677A      1.025282  
     678A      1.026213   679A      1.027818   680A      1.031320  
     681A      1.032574   682A      1.035077   683A      1.035782  
     684A      1.035797   685A      1.038646   686A      1.039108  
     687A      1.040749   688A      1.052965   689A      1.056165  
     690A      1.056889   691A      1.056943   692A      1.068609  
     693A      1.068811   694A      1.069243   695A      1.069367  
     696A      1.070313   697A      1.073266   698A      1.074725  
     699A      1.078740   700A      1.078919   701A      1.083782  
     702A      1.087664   703A      1.087741   704A      1.093692  
     705A      1.093743   706A      1.094142   707A      1.096285  
     708A      1.096548   709A      1.101111   710A      1.107073  
     711A      1.108360   712A      1.118494   713A      1.119714  
     714A      1.126958   715A      1.130112   716A      1.130299  
     717A      1.130958   718A      1.135590   719A      1.135653  
     720A      1.136756   721A      1.143910   722A      1.147279  
     723A      1.148192   724A      1.151910   725A      1.151989  
     726A      1.154875   727A      1.163100   728A      1.167092  
     729A      1.170721   730A      1.170733   731A      1.173590  
     732A      1.175717   733A      1.175793   734A      1.188457  
     735A      1.191725   736A      1.191806   737A      1.208091  
     738A      1.209266   739A      1.214703   740A      1.214847  
     741A      1.215628   742A      1.215851   743A      1.217531  
     744A      1.217635   745A      1.221587   746A      1.224749  
     747A      1.229849   748A      1.247104   749A      1.247608  
     750A      1.247854   751A      1.248952   752A      1.249975  
     753A      1.251321   754A      1.259927   755A      1.260151  
     756A      1.262177   757A      1.262642   758A      1.266219  
     759A      1.271061   760A      1.271720   761A      1.273526  
     762A      1.273612   763A      1.275697   764A      1.282417  
     765A      1.282522   766A      1.285365   767A      1.291164  
     768A      1.292248   769A      1.293346   770A      1.294850  
     771A      1.296736   772A      1.306901   773A      1.306904  
     774A      1.310152   775A      1.310211   776A      1.311196  
     777A      1.311433   778A      1.317356   779A      1.317366  
     780A      1.322239   781A      1.333450   782A      1.343872  
     783A      1.349033   784A      1.351274   785A      1.356117  
     786A      1.356240   787A      1.359931   788A      1.360022  
     789A      1.365007   790A      1.365109   791A      1.372202  
     792A      1.372865   793A      1.377259   794A      1.377338  
     795A      1.379712   796A      1.381237   797A      1.381456  
     798A      1.389224   799A      1.389273   800A      1.391979  
     801A      1.392330   802A      1.392536   803A      1.400505  
     804A      1.400539   805A      1.403055   806A      1.415123  
     807A      1.415174   808A      1.424192   809A      1.424400  
     810A      1.427067   811A      1.468439   812A      1.469220  
     813A      1.469262   814A      1.473365   815A      1.473392  
     816A      1.481607   817A      1.483157   818A      1.504510  
     819A      1.508537   820A      1.521639   821A      1.524670  
     822A      1.549565   823A      1.551606   824A      1.552173  
     825A      1.560314   826A      1.560348   827A      1.561227  
     828A      1.564081   829A      1.564268   830A      1.567257  
     831A      1.567948   832A      1.573743   833A      1.573939  
     834A      1.581529   835A      1.581895   836A      1.592333  
     837A      1.592387   838A      1.595496   839A      1.595586  
     840A      1.595686   841A      1.595712   842A      1.602167  
     843A      1.609263   844A      1.613372   845A      1.613415  
     846A      1.619862   847A      1.623972   848A      1.627970  
     849A      1.628003   850A      1.629075   851A      1.629429  
     852A      1.629464   853A      1.634204   854A      1.638831  
     855A      1.638884   856A      1.648601   857A      1.649661  
     858A      1.652020   859A      1.652133   860A      1.652694  
     861A      1.656475   862A      1.656566   863A      1.665663  
     864A      1.668481   865A      1.668538   866A      1.674509  
     867A      1.685044   868A      1.692047   869A      1.694079  
     870A      1.703473   871A      1.713352   872A      1.713498  
     873A      1.714394   874A      1.714562   875A      1.729277  
     876A      1.729299   877A      1.735270   878A      1.744024  
     879A      1.744064   880A      1.750262   881A      1.753429  
     882A      1.760977   883A      1.768822   884A      1.769429  
     885A      1.769595   886A      1.770947   887A      1.776690  
     888A      1.776766   889A      1.782589   890A      1.783187  
     891A      1.783485   892A      1.789436   893A      1.794507  
     894A      1.794723   895A      1.808879   896A      1.812686  
     897A      1.813168   898A      1.813669   899A      1.813738  
     900A      1.813893   901A      1.816861   902A      1.821232  
     903A      1.821367   904A      1.824594   905A      1.832296  
     906A      1.832339   907A      1.847848   908A      1.848613  
     909A      1.848806   910A      1.852606   911A      1.856213  
     912A      1.856303   913A      1.860570   914A      1.860762  
     915A      1.860922   916A      1.866490   917A      1.866696  
     918A      1.870014   919A      1.870152   920A      1.871514  
     921A      1.872052   922A      1.874355   923A      1.874441  
     924A      1.892675   925A      1.894032   926A      1.894468  
     927A      1.894619   928A      1.898383   929A      1.899880  
     930A      1.900023   931A      1.901198   932A      1.905982  
     933A      1.906084   934A      1.906400   935A      1.906569  
     936A      1.910404   937A      1.922981   938A      1.934687  
     939A      1.934761   940A      1.941913   941A      1.948138  
     942A      1.949656   943A      1.951313   944A      1.951326  
     945A      1.956738   946A      1.961306   947A      1.964997  
     948A      1.965134   949A      1.970256   950A      1.978617  
     951A      1.979972   952A      1.982407   953A      1.982503  
     954A      1.982931   955A      1.983718   956A      1.983874  
     957A      2.000402   958A      2.004295   959A      2.004654  
     960A      2.008300   961A      2.009671   962A      2.010522  
     963A      2.011002   964A      2.011851   965A      2.020375  
     966A      2.022095   967A      2.023329   968A      2.023695  
     969A      2.027249   970A      2.027351   971A      2.031828  
     972A      2.036088   973A      2.036216   974A      2.044471  
     975A      2.045504   976A      2.045954   977A      2.048650  
     978A      2.049700   979A      2.052992   980A      2.053117  
     981A      2.057898   982A      2.060665   983A      2.060758  
     984A      2.060957   985A      2.060972   986A      2.061923  
     987A      2.066763   988A      2.070306   989A      2.071993  
     990A      2.072041   991A      2.072407   992A      2.072467  
     993A      2.078760   994A      2.078795   995A      2.085875  
     996A      2.087114   997A      2.088196   998A      2.088700  
     999A      2.088882  1000A      2.095975  1001A      2.095997  
    1002A      2.108042  1003A      2.111456  1004A      2.111510  
    1005A      2.115040  1006A      2.115132  1007A      2.123088  
    1008A      2.130844  1009A      2.130913  1010A      2.139865  
    1011A      2.143682  1012A      2.143983  1013A      2.144008  
    1014A      2.144703  1015A      2.147191  1016A      2.147416  
    1017A      2.147550  1018A      2.150068  1019A      2.160805  
    1020A      2.172229  1021A      2.172268  1022A      2.172283  
    1023A      2.179344  1024A      2.180504  1025A      2.180719  
    1026A      2.181183  1027A      2.196676  1028A      2.197055  
    1029A      2.197162  1030A      2.197397  1031A      2.200345  
    1032A      2.203779  1033A      2.213347  1034A      2.213425  
    1035A      2.222844  1036A      2.222870  1037A      2.225030  
    1038A      2.225078  1039A      2.227572  1040A      2.234630  
    1041A      2.250833  1042A      2.253175  1043A      2.259543  
    1044A      2.262449  1045A      2.264286  1046A      2.271527  
    1047A      2.274406  1048A      2.282706  1049A      2.282792  
    1050A      2.283113  1051A      2.285852  1052A      2.297948  
    1053A      2.302800  1054A      2.303450  1055A      2.304967  
    1056A      2.304993  1057A      2.318360  1058A      2.318477  
    1059A      2.323802  1060A      2.326203  1061A      2.331978  
    1062A      2.336432  1063A      2.368787  1064A      2.376417  
    1065A      2.376926  1066A      2.377004  1067A      2.389348  
    1068A      2.393297  1069A      2.393346  1070A      2.422231  
    1071A      2.425259  1072A      2.425514  1073A      2.437962  
    1074A      2.438064  1075A      2.443336  1076A      2.454866  
    1077A      2.460711  1078A      2.471966  1079A      2.482183  
    1080A      2.482267  1081A      2.496278  1082A      2.498130  
    1083A      2.498231  1084A      2.500457  1085A      2.506732  
    1086A      2.507535  1087A      2.507577  1088A      2.512380  
    1089A      2.512417  1090A      2.525394  1091A      2.525430  
    1092A      2.528000  1093A      2.528530  1094A      2.539046  
    1095A      2.539154  1096A      2.539512  1097A      2.542355  
    1098A      2.544900  1099A      2.558794  1100A      2.573931  
    1101A      2.576367  1102A      2.576479  1103A      2.577281  
    1104A      2.583511  1105A      2.584047  1106A      2.594150  
    1107A      2.594218  1108A      2.603909  1109A      2.604239  
    1110A      2.605987  1111A      2.609691  1112A      2.633998  
    1113A      2.635164  1114A      2.636475  1115A      2.636792  
    1116A      2.640095  1117A      2.653686  1118A      2.653996  
    1119A      2.661672  1120A      2.665138  1121A      2.665223  
    1122A      2.670894  1123A      2.670990  1124A      2.673211  
    1125A      2.674952  1126A      2.675188  1127A      2.678324  
    1128A      2.688239  1129A      2.689082  1130A      2.704846  
    1131A      2.705195  1132A      2.706461  1133A      2.728785  
    1134A      2.738106  1135A      2.746470  1136A      2.746675  
    1137A      2.748659  1138A      2.767172  1139A      2.779130  
    1140A      2.779874  1141A      2.787352  1142A      2.803540  
    1143A      2.803735  1144A      2.807710  1145A      2.810029  
    1146A      2.811365  1147A      2.811445  1148A      2.819550  
    1149A      2.869648  1150A      2.869720  1151A      2.876387  
    1152A      2.886446  1153A      2.886501  1154A      2.902278  
    1155A      2.902294  1156A      2.915649  1157A      2.918332  
    1158A      2.958437  1159A      2.958685  1160A      2.965228  
    1161A      2.976943  1162A      2.982362  1163A      3.016066  
    1164A      3.016091  1165A      3.022732  1166A      3.022776  
    1167A      3.046525  1168A      3.062237  1169A      3.063002  
    1170A      3.065478  1171A      3.080100  1172A      3.082151  
    1173A      3.082337  1174A      3.090288  1175A      3.098666  
    1176A      3.098977  1177A      3.099028  1178A      3.101758  
    1179A      3.101788  1180A      3.110349  1181A      3.110776  
    1182A      3.118247  1183A      3.118754  1184A      3.144752  
    1185A      3.164318  1186A      3.170374  1187A      3.189817  
    1188A      3.223409  1189A      3.229308  1190A      3.229419  
    1191A      3.234005  1192A      3.234248  1193A      3.368179  
    1194A      3.368651  1195A      3.393192  1196A      3.433068  
    1197A      3.435662  1198A      3.440319  1199A      3.500617  
    1200A      3.528256  1201A      3.528655  1202A      3.530592  
    1203A      3.545537  1204A      3.578809  1205A      3.580824  
    1206A      3.615078  1207A      3.619093  1208A      3.721411  
    1209A      3.734553  1210A      3.735463  1211A      3.823439  
    1212A      3.823505  1213A      3.865567  1214A      3.865719  
    1215A      3.928926  1216A      3.962824  1217A      3.983779  
    1218A      3.995652  1219A      4.031636  

    Final Occupation by Irrep:
              A 
    DOCC [   197 ]
    NA   [   197 ]
    NB   [   197 ]

  @DF-RHF Final Energy: -2359.19398423946996

   => Energetics <=

    Nuclear Repulsion Energy =           7638.2838266452099560
    One-Electron Energy =              -18385.2211941769346595
    Two-Electron Energy =                8387.7433832922561123
    Total Energy =                      -2359.1939842394695006

Computation Completed


Properties will be evaluated at   0.000000,   0.000000,   0.000000 [a0]

Properties computed using the SCF density matrix


 Multipole Moments:

 ------------------------------------------------------------------------------------
     Multipole            Electronic (a.u.)      Nuclear  (a.u.)        Total (a.u.)
 ------------------------------------------------------------------------------------

 L = 1.  Multiply by 2.5417464519 to convert [e a0] to [Debye]
 Dipole X            :         -0.0009334            0.0006313           -0.0003022
 Dipole Y            :         -0.0477825            0.0560211            0.0082386
 Dipole Z            :         34.0473265          -49.1973907          -15.1500642
 Magnitude           :                                                   15.1500664

 ------------------------------------------------------------------------------------

*** tstop() called on d-16-7-4 at Mon Jan 22 20:16:42 2024
Module time:
	user time   =    4168.23 seconds =      69.47 minutes
	system time =      90.07 seconds =       1.50 minutes
	total time  =        432 seconds =       7.20 minutes
Total time:
	user time   =    4168.23 seconds =      69.47 minutes
	system time =      90.07 seconds =       1.50 minutes
	total time  =        432 seconds =       7.20 minutes

  //>>>>>>>>>>>>>>>>>>>>>>>>>>>>>>>>>>>//
  //            Monomer A HF           //
  //<<<<<<<<<<<<<<<<<<<<<<<<<<<<<<<<<<<//

   => Libint2 <=

    Primary   basis highest AM E, G, H:  7, 7, 4
    Auxiliary basis highest AM E, G, H:  7, 7, 5
    Onebody   basis highest AM E, G, H:  7, 7, 5
    Solid Harmonics ordering:            gaussian

*** tstart() called on d-16-7-4
*** at Mon Jan 22 20:16:42 2024

   => Loading Basis Set <=

    Name: JUN-CC-PVDZ
    Role: ORBITAL
    Keyword: BASIS
    atoms 1-2, 4-5, 10, 17-70 entry C          line   164 file /home/gridsan/tfroembgen/.conda/envs/psi4test/share/psi4/basis/jun-cc-pvdz.gbs 
    atoms 3, 6                entry N          line   198 file /home/gridsan/tfroembgen/.conda/envs/psi4test/share/psi4/basis/jun-cc-pvdz.gbs 
    atoms 7-9, 11-16, 71-88   entry H          line    36 file /home/gridsan/tfroembgen/.conda/envs/psi4test/share/psi4/basis/jun-cc-pvdz.gbs 


         ---------------------------------------------------------
                                   SCF
               by Justin Turney, Rob Parrish, Andy Simmonett
                          and Daniel G. A. Smith
                              RHF Reference
                       12 Threads,  30517 MiB Core
         ---------------------------------------------------------

  ==> Geometry <==

    Molecular point group: c1
    Full point group: C1

    Geometry (in Angstrom), charge = 1, multiplicity = 1:

       Center              X                  Y                   Z               Mass       
    ------------   -----------------  -----------------  -----------------  -----------------
         C            0.680066520158    -0.008042372515    -9.769431400982    12.000000000000
         C           -0.680504479842    -0.006014372515    -9.769047400982    12.000000000000
         N           -1.085635479842    -0.005016372515    -8.450723400982    14.003074004430
         C            0.000107520158    -0.001740372515    -7.669322400982    12.000000000000
         C           -2.477365479842     0.044389627485    -7.982744400982    12.000000000000
         N            1.085221520158    -0.005016372515    -8.450723400982    14.003074004430
         H            1.385145520158    -0.015870372515   -10.586870400982     1.007825032230
         H           -1.385302479842    -0.006204372515   -10.586716400982     1.007825032230
         H           -0.000009479842     0.000006627485    -6.588233400982     1.007825032230
         C            2.478116520158    -0.021908372515    -7.985625400982    12.000000000000
         H            2.490591520158     0.005436627485    -6.895372400982     1.007825032230
         H            2.967027520158    -0.935354372515    -8.332801400982     1.007825032230
         H            3.001427520158     0.853574627485    -8.377097400982     1.007825032230
         H           -2.857359479842     1.066460627485    -8.062703400982     1.007825032230
         H           -3.082679479842    -0.625694372515    -8.595808400982     1.007825032230
         H           -2.518128479842    -0.282594372515    -6.942796400982     1.007825032230
      Gh(C)           1.225311895423     0.707538288405     1.252635226302    12.000000000000
      Gh(C)           1.225323856051    -0.707538895085     1.240304416731    12.000000000000
      Gh(C)          -0.000006153932     1.414965913575     1.239770793211    12.000000000000
      Gh(C)           2.456448753949     1.418327886663     1.255522083702    12.000000000000
      Gh(C)           0.000010827279    -1.414976499150     1.249970350535    12.000000000000
      Gh(C)          -1.225300948908     0.707545373469     1.254886746624    12.000000000000
      Gh(C)           2.456437755320    -1.418323304396     1.238059259875    12.000000000000
      Gh(C)          -0.000001332978     2.836801030766     1.237367243077    12.000000000000
      Gh(C)           3.681826697470     0.709317955486     1.238408049672    12.000000000000
      Gh(C)           2.455120048865     2.834223660974     1.238305492712    12.000000000000
      Gh(C)           3.681821105219    -0.709333839944     1.254480533691    12.000000000000
      Gh(C)          -1.225313598688    -0.707527516059     1.241377178158    12.000000000000
      Gh(C)           1.226699581202     3.543469483479     1.254664565622    12.000000000000
      Gh(C)           0.000004784858    -2.836782139751     1.254818518157    12.000000000000
      Gh(C)          -2.456436032848     1.418316917770     1.254922142470    12.000000000000
      Gh(C)           2.455123417779    -2.834230029103     1.254328625323    12.000000000000
      Gh(C)          -1.226714364589     3.543469063235     1.254767898841    12.000000000000
      Gh(C)           4.914517295202     1.427172871975     1.244888732702    12.000000000000
      Gh(C)           3.693150191476     3.542795292030     1.244938532338    12.000000000000
      Gh(C)          -2.456437600068    -1.418313281354     1.238034221750    12.000000000000
      Gh(C)           1.226704841943    -3.543474242421     1.238694434872    12.000000000000
      Gh(C)          -2.455125398508     2.834216662119     1.238311869058    12.000000000000
      Gh(C)           4.914524380782    -1.427186910459     1.247861475437    12.000000000000
      Gh(C)           1.221424613699     4.970134064745     1.247999909696    12.000000000000
      Gh(C)           4.893008229321     2.825187999512     1.246105401061    12.000000000000
      Gh(C)          -1.226697008489    -3.543470997592     1.238961639281    12.000000000000
      Gh(C)          -3.681818976526     0.709324966217     1.238420730152    12.000000000000
      Gh(C)           3.693147101150    -3.542801341905     1.247979365997    12.000000000000
      Gh(C)          -1.221432251994     4.970128297348     1.248183405069    12.000000000000
      Gh(C)           6.134770972926     0.680547946591     1.245658507252    12.000000000000
      Gh(C)           3.656788880610     4.972953243053     1.245847170121    12.000000000000
      Gh(C)          -2.455126907733    -2.834215093576     1.254084267525    12.000000000000
      Gh(C)          -3.681819179061    -0.709325703983     1.254598155270    12.000000000000
      Gh(C)           4.893012617914    -2.825200106147     1.246716552956    12.000000000000
      Gh(C)          -0.000001073113     5.650447365518     1.246952096362    12.000000000000
      Gh(C)           6.134775112332    -0.680554854590     1.246923827767    12.000000000000
      Gh(C)           2.478131482856     5.653576750817     1.247135949771    12.000000000000
      Gh(C)           1.221422404738    -4.970127055448     1.245200412674    12.000000000000
      Gh(C)          -3.693162383965     3.542796953677     1.245104039798    12.000000000000
      Gh(C)          -1.221428520945    -4.970118304111     1.245087650841    12.000000000000
      Gh(C)          -4.914521807942     1.427175446480     1.244965677709    12.000000000000
      Gh(C)           3.656787019679    -4.972955226754     1.247297670655    12.000000000000
      Gh(C)          -2.478138530106     5.653574422014     1.247420474779    12.000000000000
      Gh(C)          -3.693141738564    -3.542790219494     1.247863239842    12.000000000000
      Gh(C)          -4.914512483053    -1.427181000542     1.247896172610    12.000000000000
      Gh(C)          -0.000006008926    -5.650438287528     1.246556592241    12.000000000000
      Gh(C)          -4.893020484101     2.825188598404     1.246095319201    12.000000000000
      Gh(C)           2.478125993298    -5.653573544403     1.246207069863    12.000000000000
      Gh(C)          -3.656798710258     4.972956181527     1.246023850495    12.000000000000
      Gh(C)          -4.892999478856    -2.825191767575     1.246562517258    12.000000000000
      Gh(C)          -2.478128498083    -5.653566170521     1.245931882215    12.000000000000
      Gh(C)          -6.134770503331     0.680548765741     1.245632955549    12.000000000000
      Gh(C)          -3.656788833189    -4.972944023485     1.247083382838    12.000000000000
      Gh(C)          -6.134765042913    -0.680553915997     1.246903351973    12.000000000000
      Gh(H)           5.835288495816     3.369275894439     1.250464726723     1.007825032230
      Gh(H)           7.073859172747     1.228217248385     1.246120150645     1.007825032230
      Gh(H)           4.600663264174     5.512380801938     1.246352370873     1.007825032230
      Gh(H)           5.835283387305    -3.369306057244     1.242262085642     1.007825032230
      Gh(H)          -0.000012151306     6.738530673622     1.242602851354     1.007825032230
      Gh(H)           7.073861171831    -1.228226943259     1.246415089673     1.007825032230
      Gh(H)           2.473313731799     6.740684290880     1.246669228840     1.007825032230
      Gh(H)           4.600668491381    -5.512376129691     1.246887673486     1.007825032230
      Gh(H)          -2.473318680537     6.740681719092     1.246970575465     1.007825032230
      Gh(H)          -0.000010268228    -6.738528176967     1.251086277225     1.007825032230
      Gh(H)          -5.835301914343     3.369270949781     1.250600748872     1.007825032230
      Gh(H)           2.473307923831    -6.740685374944     1.246777400288     1.007825032230
      Gh(H)          -4.600674841208     5.512378026089     1.246517699196     1.007825032230
      Gh(H)          -5.835279506835    -3.369288964294     1.241982779761     1.007825032230
      Gh(H)          -2.473300347440    -6.740679078655     1.246328083743     1.007825032230
      Gh(H)          -7.073857766768     1.228220472326     1.246036159164     1.007825032230
      Gh(H)          -4.600673786085    -5.512362670301     1.246715365464     1.007825032230
      Gh(H)          -7.073856934409    -1.228220632492     1.246320233207     1.007825032230

  Running in c1 symmetry.

  Rotational constants: A =      0.00109  B =      0.00107  C =      0.00105 [cm^-1]
  Rotational constants: A =     32.71081  B =     31.95872  C =     31.48229 [MHz]
  Nuclear repulsion =  306.774908447733139

  Charge       = 1
  Multiplicity = 1
  Electrons    = 52
  Nalpha       = 26
  Nbeta        = 26

  ==> Algorithm <==

  SCF Algorithm Type is DF.
  DIIS enabled.
  MOM disabled.
  Fractional occupation disabled.
  Guess Type is SAD.
  Energy threshold   = 1.00e-08
  Density threshold  = 1.00e-08
  Integral threshold = 1.00e-12

  ==> Primary Basis <==

  Basis Set: JUN-CC-PVDZ
    Blend: JUN-CC-PVDZ
    Number of shells: 569
    Number of basis functions: 1233
    Number of Cartesian functions: 1294
    Spherical Harmonics?: true
    Max angular momentum: 2

   => Loading Basis Set <=

    Name: (JUN-CC-PVDZ AUX)
    Role: JKFIT
    Keyword: DF_BASIS_SCF
    atoms 1-2, 4-5, 10, 17-70 entry C          line   146 file /home/gridsan/tfroembgen/.conda/envs/psi4test/share/psi4/basis/jun-cc-pvdz-jkfit.gbs 
    atoms 3, 6                entry N          line   202 file /home/gridsan/tfroembgen/.conda/envs/psi4test/share/psi4/basis/jun-cc-pvdz-jkfit.gbs 
    atoms 7-9, 11-16, 71-88   entry H          line    70 file /home/gridsan/tfroembgen/.conda/envs/psi4test/share/psi4/basis/jun-cc-pvdz-jkfit.gbs 

  ==> Integral Setup <==

  ==> DiskDFJK: Density-Fitted J/K Matrices <==

    J tasked:                  Yes
    K tasked:                  Yes
    wK tasked:                  No
    OpenMP threads:             12
    Integrals threads:          12
    Memory [MiB]:            22888
    Algorithm:                Core
    Integral Cache:           LOAD
    Schwarz Cutoff:          1E-12
    Fitting Condition:       1E-10

   => Auxiliary Basis Set <=

  Basis Set: (JUN-CC-PVDZ AUX)
    Blend: JUN-CC-PVDZ-JKFIT
    Number of shells: 1890
    Number of basis functions: 5440
    Number of Cartesian functions: 6226
    Spherical Harmonics?: true
    Max angular momentum: 3

  Minimum eigenvalue in the overlap matrix is 8.3998395262E-10.
  Reciprocal condition number of the overlap matrix is 3.7579838344E-11.
    Using canonical orthogonalization.
  Overall, 14 of 1233 possible MOs eliminated.


  ==> Pre-Iterations <==

  SCF Guess: Superposition of Atomic Densities via on-the-fly atomic UHF (no occupation information).

   -------------------------
    Irrep   Nso     Nmo    
   -------------------------
     A       1233    1219 
   -------------------------
    Total    1233    1219
   -------------------------

  ==> Iterations <==

                           Total Energy        Delta E     RMS |[F,P]|

   @DF-RHF iter SAD:  -303.36533865833405   -3.03365e+02   0.00000e+00 
   @DF-RHF iter   1:  -303.16938743448816    1.95951e-01   3.43991e-04 ADIIS/DIIS
   @DF-RHF iter   2:  -303.28371056885436   -1.14323e-01   1.15844e-04 ADIIS/DIIS
   @DF-RHF iter   3:  -303.29515234227449   -1.14418e-02   4.53071e-05 DIIS
   @DF-RHF iter   4:  -303.29705242570617   -1.90008e-03   9.88543e-06 DIIS
   @DF-RHF iter   5:  -303.29715774402428   -1.05318e-04   2.40957e-06 DIIS
   @DF-RHF iter   6:  -303.29716698211018   -9.23809e-06   6.54124e-07 DIIS
   @DF-RHF iter   7:  -303.29716805392496   -1.07181e-06   3.31906e-07 DIIS
   @DF-RHF iter   8:  -303.29716830587779   -2.51953e-07   1.33505e-07 DIIS
   @DF-RHF iter   9:  -303.29716835420328   -4.83255e-08   3.37094e-08 DIIS
   @DF-RHF iter  10:  -303.29716835702715   -2.82387e-09   1.26810e-08 DIIS
   @DF-RHF iter  11:  -303.29716835727527   -2.48122e-10   2.99377e-09 DIIS
  Energy and wave function converged.


  ==> Post-Iterations <==

    Orbital Energies [Eh]
    ---------------------

    Doubly Occupied:                                                      

       1A    -15.834671     2A    -15.834139     3A    -11.529561  
       4A    -11.459860     5A    -11.458306     6A    -11.449669  
       7A    -11.449555     8A     -1.578244     9A     -1.433833  
      10A     -1.238675    11A     -1.189314    12A     -1.118870  
      13A     -1.022543    14A     -0.996975    15A     -0.917052  
      16A     -0.850527    17A     -0.816265    18A     -0.813213  
      19A     -0.790138    20A     -0.786230    21A     -0.781782  
      22A     -0.729707    23A     -0.725786    24A     -0.717098  
      25A     -0.596308    26A     -0.523865  

    Virtual:                                                              

      27A     -0.069230    28A     -0.064543    29A     -0.054900  
      30A     -0.049649    31A     -0.032731    32A     -0.031079  
      33A     -0.029137    34A     -0.028951    35A     -0.023595  
      36A     -0.022520    37A     -0.020158    38A     -0.009115  
      39A     -0.009053    40A     -0.005364    41A     -0.004980  
      42A     -0.001474    43A      0.001844    44A      0.003618  
      45A      0.006174    46A      0.007290    47A      0.007436  
      48A      0.010569    49A      0.012120    50A      0.014262  
      51A      0.020957    52A      0.025518    53A      0.025574  
      54A      0.026353    55A      0.029247    56A      0.032983  
      57A      0.033618    58A      0.034806    59A      0.037406  
      60A      0.042453    61A      0.042732    62A      0.045715  
      63A      0.045791    64A      0.046231    65A      0.053488  
      66A      0.056996    67A      0.057132    68A      0.061380  
      69A      0.063071    70A      0.064643    71A      0.064865  
      72A      0.068419    73A      0.069137    74A      0.070559  
      75A      0.071306    76A      0.072306    77A      0.074170  
      78A      0.074701    79A      0.077468    80A      0.078284  
      81A      0.081106    82A      0.081626    83A      0.083395  
      84A      0.088660    85A      0.089361    86A      0.089648  
      87A      0.091175    88A      0.092856    89A      0.092976  
      90A      0.094378    91A      0.096742    92A      0.096884  
      93A      0.099315    94A      0.102070    95A      0.102071  
      96A      0.103126    97A      0.105150    98A      0.108317  
      99A      0.108506   100A      0.108611   101A      0.110354  
     102A      0.113025   103A      0.114675   104A      0.117341  
     105A      0.123868   106A      0.124060   107A      0.126404  
     108A      0.126538   109A      0.128101   110A      0.128367  
     111A      0.130122   112A      0.131251   113A      0.132240  
     114A      0.133095   115A      0.133773   116A      0.134385  
     117A      0.134675   118A      0.134813   119A      0.138314  
     120A      0.140042   121A      0.140612   122A      0.142375  
     123A      0.149672   124A      0.149933   125A      0.150086  
     126A      0.151170   127A      0.151500   128A      0.154671  
     129A      0.155785   130A      0.158219   131A      0.158761  
     132A      0.159068   133A      0.159591   134A      0.161617  
     135A      0.161666   136A      0.162373   137A      0.165416  
     138A      0.173902   139A      0.176283   140A      0.176326  
     141A      0.177187   142A      0.177198   143A      0.179849  
     144A      0.179886   145A      0.180055   146A      0.181472  
     147A      0.185710   148A      0.187265   149A      0.188370  
     150A      0.189971   151A      0.190394   152A      0.191297  
     153A      0.192911   154A      0.193246   155A      0.193256  
     156A      0.193436   157A      0.194316   158A      0.195045  
     159A      0.195251   160A      0.200528   161A      0.201888  
     162A      0.202554   163A      0.204619   164A      0.207098  
     165A      0.207288   166A      0.208079   167A      0.221894  
     168A      0.222538   169A      0.222829   170A      0.225563  
     171A      0.228882   172A      0.228927   173A      0.229372  
     174A      0.229511   175A      0.231839   176A      0.231908  
     177A      0.233413   178A      0.233709   179A      0.235615  
     180A      0.236761   181A      0.239158   182A      0.239473  
     183A      0.239972   184A      0.240092   185A      0.241730  
     186A      0.241835   187A      0.249859   188A      0.251776  
     189A      0.252092   190A      0.252150   191A      0.254061  
     192A      0.257605   193A      0.259926   194A      0.264492  
     195A      0.264722   196A      0.267316   197A      0.269023  
     198A      0.269817   199A      0.269935   200A      0.273033  
     201A      0.279307   202A      0.279524   203A      0.280892  
     204A      0.281499   205A      0.282211   206A      0.282319  
     207A      0.285107   208A      0.299171   209A      0.299180  
     210A      0.299323   211A      0.299733   212A      0.299796  
     213A      0.300582   214A      0.303319   215A      0.306030  
     216A      0.306158   217A      0.309305   218A      0.309605  
     219A      0.313935   220A      0.314539   221A      0.316823  
     222A      0.316897   223A      0.319347   224A      0.320744  
     225A      0.320983   226A      0.322868   227A      0.323172  
     228A      0.326109   229A      0.326398   230A      0.327628  
     231A      0.327738   232A      0.331994   233A      0.332078  
     234A      0.338651   235A      0.339813   236A      0.340173  
     237A      0.345032   238A      0.352794   239A      0.353613  
     240A      0.354640   241A      0.355766   242A      0.356886  
     243A      0.357257   244A      0.363083   245A      0.372147  
     246A      0.373187   247A      0.373260   248A      0.374428  
     249A      0.375671   250A      0.376112   251A      0.381200  
     252A      0.381505   253A      0.383750   254A      0.383787  
     255A      0.384437   256A      0.385411   257A      0.386019  
     258A      0.386568   259A      0.388428   260A      0.394852  
     261A      0.398348   262A      0.398472   263A      0.399843  
     264A      0.400157   265A      0.406286   266A      0.406356  
     267A      0.407422   268A      0.407577   269A      0.408418  
     270A      0.410469   271A      0.411385   272A      0.416868  
     273A      0.419168   274A      0.420662   275A      0.420747  
     276A      0.424690   277A      0.426223   278A      0.426356  
     279A      0.429465   280A      0.429535   281A      0.430401  
     282A      0.436456   283A      0.437476   284A      0.438361  
     285A      0.439902   286A      0.440046   287A      0.440116  
     288A      0.440546   289A      0.443862   290A      0.444699  
     291A      0.446576   292A      0.446704   293A      0.452022  
     294A      0.458865   295A      0.459005   296A      0.459357  
     297A      0.461823   298A      0.469474   299A      0.469527  
     300A      0.474199   301A      0.476367   302A      0.478669  
     303A      0.478935   304A      0.479484   305A      0.482755  
     306A      0.482796   307A      0.483322   308A      0.486074  
     309A      0.494327   310A      0.494821   311A      0.495240  
     312A      0.496694   313A      0.498003   314A      0.498047  
     315A      0.499910   316A      0.504540   317A      0.508011  
     318A      0.516562   319A      0.516727   320A      0.519102  
     321A      0.525576   322A      0.525630   323A      0.528243  
     324A      0.528349   325A      0.529394   326A      0.530280  
     327A      0.532200   328A      0.532282   329A      0.537643  
     330A      0.550299   331A      0.550413   332A      0.551779  
     333A      0.551785   334A      0.552968   335A      0.553071  
     336A      0.559990   337A      0.562038   338A      0.562181  
     339A      0.568247   340A      0.568370   341A      0.569003  
     342A      0.571928   343A      0.572063   344A      0.573058  
     345A      0.584453   346A      0.584510   347A      0.585043  
     348A      0.592028   349A      0.592093   350A      0.597479  
     351A      0.597736   352A      0.597964   353A      0.598519  
     354A      0.603120   355A      0.609990   356A      0.613182  
     357A      0.614832   358A      0.623901   359A      0.624501  
     360A      0.627285   361A      0.630374   362A      0.630503  
     363A      0.631292   364A      0.631348   365A      0.635194  
     366A      0.642252   367A      0.642408   368A      0.643642  
     369A      0.643882   370A      0.644069   371A      0.647774  
     372A      0.649811   373A      0.653593   374A      0.655735  
     375A      0.656013   376A      0.656411   377A      0.659125  
     378A      0.659379   379A      0.659747   380A      0.659925  
     381A      0.661736   382A      0.670733   383A      0.674832  
     384A      0.675059   385A      0.676186   386A      0.676306  
     387A      0.682312   388A      0.689764   389A      0.692671  
     390A      0.695618   391A      0.699931   392A      0.700042  
     393A      0.708392   394A      0.712201   395A      0.712420  
     396A      0.714129   397A      0.717245   398A      0.717273  
     399A      0.717435   400A      0.718450   401A      0.718660  
     402A      0.720379   403A      0.720452   404A      0.725887  
     405A      0.726223   406A      0.726362   407A      0.728748  
     408A      0.729511   409A      0.729847   410A      0.735152  
     411A      0.740372   412A      0.740479   413A      0.741196  
     414A      0.742483   415A      0.747761   416A      0.747963  
     417A      0.747985   418A      0.748854   419A      0.756185  
     420A      0.757555   421A      0.757725   422A      0.758348  
     423A      0.767026   424A      0.775704   425A      0.779366  
     426A      0.795822   427A      0.795968   428A      0.800852  
     429A      0.800929   430A      0.811969   431A      0.813139  
     432A      0.813278   433A      0.816021   434A      0.822165  
     435A      0.832884   436A      0.832889   437A      0.838133  
     438A      0.838282   439A      0.840459   440A      0.843462  
     441A      0.845899   442A      0.850423   443A      0.850499  
     444A      0.857351   445A      0.869325   446A      0.877204  
     447A      0.877228   448A      0.882368   449A      0.899933  
     450A      0.900311   451A      0.911600   452A      0.911633  
     453A      0.920309   454A      0.920330   455A      0.929311  
     456A      0.940217   457A      0.941612   458A      0.947718  
     459A      0.950648   460A      0.950725   461A      0.954914  
     462A      0.961432   463A      0.964688   464A      0.972567  
     465A      0.980085   466A      0.980227   467A      0.995998  
     468A      0.996129   469A      1.010838   470A      1.014310  
     471A      1.017043   472A      1.017093   473A      1.020352  
     474A      1.020437   475A      1.029521   476A      1.048970  
     477A      1.054100   478A      1.054257   479A      1.057386  
     480A      1.064912   481A      1.095185   482A      1.102539  
     483A      1.106894   484A      1.106917   485A      1.113134  
     486A      1.113225   487A      1.125139   488A      1.126945  
     489A      1.127494   490A      1.134398   491A      1.134522  
     492A      1.138114   493A      1.148581   494A      1.148599  
     495A      1.149434   496A      1.155223   497A      1.161059  
     498A      1.171845   499A      1.171896   500A      1.179542  
     501A      1.181819   502A      1.240096   503A      1.247883  
     504A      1.247934   505A      1.253350   506A      1.258063  
     507A      1.258160   508A      1.260436   509A      1.269721  
     510A      1.273589   511A      1.273711   512A      1.279363  
     513A      1.281431   514A      1.315593   515A      1.316820  
     516A      1.322587   517A      1.322651   518A      1.344206  
     519A      1.372377   520A      1.394854   521A      1.395326  
     522A      1.413683   523A      1.413839   524A      1.415291  
     525A      1.419050   526A      1.419283   527A      1.421284  
     528A      1.422075   529A      1.434372   530A      1.435176  
     531A      1.462351   532A      1.477500   533A      1.495933  
     534A      1.502738   535A      1.506803   536A      1.507004  
     537A      1.509089   538A      1.510342   539A      1.515590  
     540A      1.520213   541A      1.561552   542A      1.573106  
     543A      1.587303   544A      1.590313   545A      1.599241  
     546A      1.602571   547A      1.603322   548A      1.611051  
     549A      1.612728   550A      1.613953   551A      1.618225  
     552A      1.633145   553A      1.634393   554A      1.635478  
     555A      1.643464   556A      1.650428   557A      1.659490  
     558A      1.668473   559A      1.679420   560A      1.685425  
     561A      1.697017   562A      1.698040   563A      1.698190  
     564A      1.699590   565A      1.700972   566A      1.704289  
     567A      1.709551   568A      1.710312   569A      1.712173  
     570A      1.714938   571A      1.717217   572A      1.728566  
     573A      1.738039   574A      1.741989   575A      1.742549  
     576A      1.744304   577A      1.745001   578A      1.746987  
     579A      1.749035   580A      1.749547   581A      1.753357  
     582A      1.755472   583A      1.762933   584A      1.775638  
     585A      1.776271   586A      1.778198   587A      1.781124  
     588A      1.781237   589A      1.781512   590A      1.784856  
     591A      1.785288   592A      1.791796   593A      1.792236  
     594A      1.792432   595A      1.792530   596A      1.793714  
     597A      1.803968   598A      1.807446   599A      1.808317  
     600A      1.812409   601A      1.812847   602A      1.816034  
     603A      1.825990   604A      1.827044   605A      1.827521  
     606A      1.832058   607A      1.836783   608A      1.838226  
     609A      1.839714   610A      1.842584   611A      1.843647  
     612A      1.844417   613A      1.854887   614A      1.855787  
[...]
     790A      1.643504   791A      1.643534   792A      1.643607  
     793A      1.643901   794A      1.649594   795A      1.660365  
     796A      1.660927   797A      1.661008   798A      1.667389  
     799A      1.668822   800A      1.676245   801A      1.676329  
     802A      1.676724   803A      1.676733   804A      1.677006  
     805A      1.682326   806A      1.686592   807A      1.686646  
     808A      1.696031   809A      1.697088   810A      1.699328  
     811A      1.699369   812A      1.700639   813A      1.704736  
     814A      1.704806   815A      1.715709   816A      1.715724  
     817A      1.741669   818A      1.751379   819A      1.753751  
     820A      1.760236   821A      1.760265   822A      1.761058  
     823A      1.761723   824A      1.776712   825A      1.776745  
     826A      1.780658   827A      1.791453   828A      1.791477  
     829A      1.794315   830A      1.797558   831A      1.801033  
     832A      1.816505   833A      1.816533   834A      1.816644  
     835A      1.818001   836A      1.824633   837A      1.824736  
     838A      1.830339   839A      1.830753   840A      1.830973  
     841A      1.836643   842A      1.842393   843A      1.842665  
     844A      1.853324   845A      1.860550   846A      1.860637  
     847A      1.860747   848A      1.860784   849A      1.864023  
     850A      1.868582   851A      1.872114   852A      1.880131  
     853A      1.880198   854A      1.886989   855A      1.894820  
     856A      1.896084   857A      1.896198   858A      1.899353  
     859A      1.902924   860A      1.903055   861A      1.908502  
     862A      1.908648   863A      1.912039   864A      1.913717  
     865A      1.913914   866A      1.917625   867A      1.917778  
     868A      1.919218   869A      1.921945   870A      1.922040  
     871A      1.940439   872A      1.940932   873A      1.941202  
     874A      1.941691   875A      1.941870   876A      1.946365  
     877A      1.946394   878A      1.953863   879A      1.953922  
     880A      1.954152   881A      1.954269   882A      1.957978  
     883A      1.969895   884A      1.982745   885A      1.982819  
     886A      1.989206   887A      1.990610   888A      1.997087  
     889A      1.998501   890A      1.998524   891A      2.003541  
     892A      2.007992   893A      2.012206   894A      2.012368  
     895A      2.013857   896A      2.026010   897A      2.027810  
     898A      2.029884   899A      2.029994   900A      2.030066  
     901A      2.030425   902A      2.031195   903A      2.031318  
     904A      2.035679   905A      2.045526   906A      2.047885  
     907A      2.051674   908A      2.052012   909A      2.054857  
     910A      2.057296   911A      2.058093   912A      2.058679  
     913A      2.059293   914A      2.068180   915A      2.069867  
     916A      2.071069   917A      2.071419   918A      2.075137  
     919A      2.075249   920A      2.079530   921A      2.080439  
     922A      2.083996   923A      2.084167   924A      2.084254  
     925A      2.092660   926A      2.093409   927A      2.095234  
     928A      2.096841   929A      2.100427   930A      2.100487  
     931A      2.104919   932A      2.107264   933A      2.108150  
     934A      2.108213   935A      2.108953   936A      2.108977  
     937A      2.110142   938A      2.113975   939A      2.119107  
     940A      2.119178   941A      2.120064   942A      2.120161  
     943A      2.120617   944A      2.125796   945A      2.125996  
     946A      2.129263   947A      2.133330   948A      2.134519  
     949A      2.135205   950A      2.135738   951A      2.136063  
     952A      2.143146   953A      2.143167   954A      2.154488  
     955A      2.155271   956A      2.159496   957A      2.159533  
     958A      2.162639   959A      2.162722   960A      2.171189  
     961A      2.178172   962A      2.178244   963A      2.182856  
     964A      2.189949   965A      2.190312   966A      2.190701  
     967A      2.192479   968A      2.193730   969A      2.195747  
     970A      2.195868   971A      2.198214   972A      2.209824  
     973A      2.219645   974A      2.220229   975A      2.220270  
     976A      2.227581   977A      2.228086   978A      2.228442  
     979A      2.228678   980A      2.230421   981A      2.243202  
     982A      2.243541   983A      2.243750   984A      2.244125  
     985A      2.247040   986A      2.260003   987A      2.260105  
     988A      2.265162   989A      2.270096   990A      2.270110  
     991A      2.271205   992A      2.272020   993A      2.272054  
     994A      2.281036   995A      2.293655   996A      2.300179  
     997A      2.306654   998A      2.308611   999A      2.310255  
    1000A      2.312041  1001A      2.319412  1002A      2.322203  
    1003A      2.330893  1004A      2.330952  1005A      2.331051  
    1006A      2.333573  1007A      2.333935  1008A      2.334874  
    1009A      2.350636  1010A      2.351312  1011A      2.352323  
    1012A      2.352400  1013A      2.366207  1014A      2.366325  
    1015A      2.374562  1016A      2.379134  1017A      2.381122  
    1018A      2.415793  1019A      2.423984  1020A      2.424350  
    1021A      2.424376  1022A      2.436435  1023A      2.438642  
    1024A      2.441038  1025A      2.441085  1026A      2.444123  
    1027A      2.451971  1028A      2.466242  1029A      2.469893  
    1030A      2.472488  1031A      2.472730  1032A      2.473095  
    1033A      2.485260  1034A      2.485291  1035A      2.502280  
    1036A      2.502715  1037A      2.518938  1038A      2.529554  
    1039A      2.529810  1040A      2.543195  1041A      2.545168  
    1042A      2.545240  1043A      2.554116  1044A      2.554190  
    1045A      2.554773  1046A      2.559799  1047A      2.559805  
    1048A      2.572874  1049A      2.572950  1050A      2.573024  
    1051A      2.574650  1052A      2.575188  1053A      2.586199  
    1054A      2.586307  1055A      2.587161  1056A      2.589679  
    1057A      2.591376  1058A      2.605900  1059A      2.623301  
    1060A      2.623404  1061A      2.624783  1062A      2.629655  
    1063A      2.631257  1064A      2.631797  1065A      2.640828  
    1066A      2.641139  1067A      2.641247  1068A      2.647469  
    1069A      2.650728  1070A      2.651081  1071A      2.655686  
    1072A      2.656827  1073A      2.670579  1074A      2.681751  
    1075A      2.682898  1076A      2.683948  1077A      2.686682  
    1078A      2.701849  1079A      2.702170  1080A      2.712982  
    1081A      2.712989  1082A      2.718612  1083A      2.718631  
    1084A      2.722361  1085A      2.722598  1086A      2.733405  
    1087A      2.736896  1088A      2.744822  1089A      2.751982  
    1090A      2.752310  1091A      2.764665  1092A      2.776812  
    1093A      2.794268  1094A      2.794424  1095A      2.800689  
    1096A      2.814779  1097A      2.827068  1098A      2.827353  
    1099A      2.832465  1100A      2.850997  1101A      2.851250  
    1102A      2.855992  1103A      2.858282  1104A      2.859164  
    1105A      2.859315  1106A      2.866722  1107A      2.870792  
    1108A      2.886870  1109A      2.905635  1110A      2.916614  
    1111A      2.916631  1112A      2.920525  1113A      2.923393  
    1114A      2.933442  1115A      2.933508  1116A      2.942128  
    1117A      2.949514  1118A      2.949534  1119A      2.962643  
    1120A      2.967117  1121A      2.989797  1122A      3.001897  
    1123A      3.006101  1124A      3.006316  1125A      3.011844  
    1126A      3.029166  1127A      3.034261  1128A      3.064017  
    1129A      3.064047  1130A      3.070342  1131A      3.070379  
    1132A      3.109285  1133A      3.110104  1134A      3.126824  
    1135A      3.129345  1136A      3.129581  1137A      3.137430  
    1138A      3.138207  1139A      3.145832  1140A      3.146083  
    1141A      3.146168  1142A      3.148810  1143A      3.148828  
    1144A      3.157487  1145A      3.157864  1146A      3.165431  
    1147A      3.165911  1148A      3.191573  1149A      3.211125  
    1150A      3.218136  1151A      3.237105  1152A      3.271326  
    1153A      3.276855  1154A      3.277002  1155A      3.281653  
    1156A      3.281832  1157A      3.282935  1158A      3.300900  
    1159A      3.314071  1160A      3.388764  1161A      3.416098  
    1162A      3.416593  1163A      3.442652  1164A      3.481187  
    1165A      3.483804  1166A      3.520335  1167A      3.548895  
    1168A      3.563422  1169A      3.576945  1170A      3.578917  
    1171A      3.593787  1172A      3.626425  1173A      3.628414  
    1174A      3.641577  1175A      3.662652  1176A      3.666591  
    1177A      3.754402  1178A      3.769199  1179A      3.782577  
    1180A      3.783563  1181A      3.812519  1182A      3.864676  
    1183A      3.870650  1184A      3.870665  1185A      3.913012  
    1186A      3.913125  1187A      3.954696  1188A      3.976879  
    1189A      4.010830  1190A      4.032580  1191A      4.044473  
    1192A      4.080500  1193A      4.201377  1194A      4.204361  
    1195A      4.335291  1196A      4.356488  1197A      4.478551  
    1198A      4.730925  1199A      4.768810  1200A      4.825131  
    1201A      4.842413  1202A      4.932060  1203A      5.045397  
    1204A      5.052886  1205A      5.062202  1206A      5.106842  
    1207A      5.122354  1208A      5.387419  1209A      5.417312  
    1210A      5.728541  1211A      5.747758  1212A      6.063910  
    1213A     18.195597  1214A     18.449314  1215A     18.466854  
    1216A     18.554817  1217A     18.827599  1218A     25.335543  
    1219A     25.371544  

    Final Occupation by Irrep:
              A 
    DOCC [   171 ]
    NA   [   171 ]
    NB   [   171 ]

  @DF-RHF Final Energy: -2055.89158340224094

   => Energetics <=

    Nuclear Repulsion Energy =           6452.5568002797781446
    One-Electron Energy =              -15636.4233482419294887
    Two-Electron Energy =                7127.9749645599113137
    Total Energy =                      -2055.8915834022409399

Computation Completed


Properties will be evaluated at   0.000000,   0.000000,   0.000000 [a0]

Properties computed using the SCF density matrix


 Multipole Moments:

 ------------------------------------------------------------------------------------
     Multipole            Electronic (a.u.)      Nuclear  (a.u.)        Total (a.u.)
 ------------------------------------------------------------------------------------

 L = 1.  Multiply by 2.5417464519 to convert [e a0] to [Debye]
 Dipole X            :          0.0001051           -0.0000085            0.0000966
 Dipole Y            :         -0.0000308            0.0000167           -0.0000141
 Dipole Z            :       -805.5928437          805.5929218            0.0000780
 Magnitude           :                                                    0.0001250

 ------------------------------------------------------------------------------------

*** tstop() called on d-16-7-4 at Mon Jan 22 20:24:04 2024
Module time:
	user time   =    2368.57 seconds =      39.48 minutes
	system time =      42.07 seconds =       0.70 minutes
	total time  =        267 seconds =       4.45 minutes
Total time:
	user time   =    8050.05 seconds =     134.17 minutes
	system time =     162.58 seconds =       2.71 minutes
	total time  =        874 seconds =      14.57 minutes
  Constructing Basis Sets for SAPT...

   => Loading Basis Set <=

    Name: (JUN-CC-PVDZ AUX)
    Role: RIFIT
    Keyword: DF_BASIS_SAPT
    atoms 1-2, 4-5, 10, 17-70 entry C          line   100 file /home/gridsan/tfroembgen/.conda/envs/psi4test/share/psi4/basis/jun-cc-pvdz-ri.gbs 
    atoms 3, 6                entry N          line   144 file /home/gridsan/tfroembgen/.conda/envs/psi4test/share/psi4/basis/jun-cc-pvdz-ri.gbs 
    atoms 7-9, 11-16, 71-88   entry H          line    30 file /home/gridsan/tfroembgen/.conda/envs/psi4test/share/psi4/basis/jun-cc-pvdz-ri.gbs 

   => Loading Basis Set <=

    Name: (JUN-CC-PVDZ AUX)
    Role: JKFIT
    Keyword: DF_BASIS_ELST
    atoms 1-2, 4-5, 10, 17-70 entry C          line   146 file /home/gridsan/tfroembgen/.conda/envs/psi4test/share/psi4/basis/jun-cc-pvdz-jkfit.gbs 
    atoms 3, 6                entry N          line   202 file /home/gridsan/tfroembgen/.conda/envs/psi4test/share/psi4/basis/jun-cc-pvdz-jkfit.gbs 
    atoms 7-9, 11-16, 71-88   entry H          line    70 file /home/gridsan/tfroembgen/.conda/envs/psi4test/share/psi4/basis/jun-cc-pvdz-jkfit.gbs 


  //>>>>>>>>>>>>>>>>>>>>>>>>>>>>>>>>>>>//
  //               SSAPT0              //
  //<<<<<<<<<<<<<<<<<<<<<<<<<<<<<<<<<<<//


*** tstart() called on d-16-7-4
*** at Mon Jan 22 20:24:05 2024

        SAPT0  
    Ed Hohenstein
     6 June 2009

      Orbital Information
  --------------------------
    NSO        =      1233
    NMO        =      1219
    NRI        =      4343
    NRI (Elst) =      5440
    NOCC A     =        26
    NOCC B     =       171
    FOCC A     =         7
    FOCC B     =        54
    NVIR A     =      1193
    NVIR B     =      1048

    Elst10,r            =    -0.004391659952 [Eh]
    Exch10              =    -0.000000017747 [Eh]
    Exch10 (S^2)        =    -0.000000017747 [Eh]

    Iter     Energy [mEh]          dE [mEh]         Residual      Time [s]
       1      -0.00654572       0.006545718       0.765563501           360
       2      -0.00621642      -0.000329298       0.202012468           675
       3      -0.00685724       0.000640817       0.055606821           915
       4      -0.00689297       0.000035734       0.026162956          1234
       5      -0.00686226      -0.000030716       0.006995970          1529
       6      -0.00686336       0.000001102       0.002430201          1821
       7      -0.00686555       0.000002189       0.000616455          2158
       8      -0.00686566       0.000000117       0.000198632          2423
       9      -0.00686558      -0.000000083       0.000058402          2739
      10      -0.00686556      -0.000000024       0.000017910          3148
      11      -0.00686556       0.000000002       0.000005051          3463
      12      -0.00686556       0.000000003       0.000001448          3701
      13      -0.00686556      -0.000000000       0.000000563          3890

    CHF Iterations converged


    Iter     Energy [mEh]          dE [mEh]         Residual      Time [s]
       1      -1.17175761       1.171757608      17.760297600           106
       2      -0.80331981      -0.368437797       2.104578145           244
       3      -0.80761123       0.004291421       0.832511878           264
       4      -0.82735193       0.019740697       0.186909081           286
       5      -0.82816459       0.000812664       0.051838138           304
       6      -0.82773899      -0.000425604       0.023727476           322
       7      -0.82761707      -0.000121922       0.011541028           340
       8      -0.82769503       0.000077966       0.008561805           359
       9      -0.82771618       0.000021151       0.005037579           385
      10      -0.82769580      -0.000020380       0.002608346           534
      11      -0.82769045      -0.000005349       0.001232251           555
      12      -0.82769271       0.000002255       0.000601624           599
      13      -0.82769440       0.000001688       0.000246686           628
      14      -0.82769400      -0.000000394       0.000132075           648
      15      -0.82769364      -0.000000360       0.000056596           728
      16      -0.82769371       0.000000072       0.000029445           748
      17      -0.82769380       0.000000084       0.000009786           768
      18      -0.82769379      -0.000000005       0.000003072           793
      19      -0.82769379      -0.000000008       0.000001451           819
      20      -0.82769379      -0.000000001       0.000000621           838

    CHF Iterations converged

    Ind20,r (A<-B)      =    -0.000006865562 [Eh]
    Ind20,r (B<-A)      =    -0.000827693786 [Eh]
    Ind20,r             =    -0.000834559347 [Eh]
    Exch-Ind20,r (A<-B) =     0.000000001495 [Eh]
    Exch-Ind20,r (B<-A) =     0.000000004547 [Eh]
    Exch-Ind20,r        =     0.000000006042 [Eh]
    Disp20              =    -0.000266651085 [Eh]
    Disp20 (SS)         =    -0.000133325543 [Eh]
    Disp20 (OS)         =    -0.000133325543 [Eh]
    Exch-Disp20         =     0.000000002636 [Eh]
    Exch-Disp20 (SS)    =     0.000000001964 [Eh]
    Exch-Disp20 (OS)    =     0.000000000672 [Eh]

    SAPT Results 
  --------------------------------------------------------------------------------------------------------
    Electrostatics                 -4.39165995 [mEh]      -2.75580823 [kcal/mol]     -11.53030162 [kJ/mol]
      Elst10,r                     -4.39165995 [mEh]      -2.75580823 [kcal/mol]     -11.53030162 [kJ/mol]

    Exchange                       -0.00001775 [mEh]      -0.00001114 [kcal/mol]      -0.00004659 [kJ/mol]
      Exch10                       -0.00001775 [mEh]      -0.00001114 [kcal/mol]      -0.00004659 [kJ/mol]
      Exch10(S^2)                  -0.00001775 [mEh]      -0.00001114 [kcal/mol]      -0.00004659 [kJ/mol]

    Induction                      -0.84080225 [mEh]      -0.52761138 [kcal/mol]      -2.20752602 [kJ/mol]
      Ind20,r                      -0.83455935 [mEh]      -0.52369390 [kcal/mol]      -2.19113526 [kJ/mol]
      Exch-Ind20,r                  0.00000604 [mEh]       0.00000379 [kcal/mol]       0.00001586 [kJ/mol]
      delta HF,r (2)               -0.00624895 [mEh]      -0.00392127 [kcal/mol]      -0.01640661 [kJ/mol]

    Dispersion                     -0.26664845 [mEh]      -0.16732443 [kcal/mol]      -0.70008541 [kJ/mol]
      Disp20                       -0.26665109 [mEh]      -0.16732608 [kcal/mol]      -0.70009233 [kJ/mol]
      Exch-Disp20                   0.00000264 [mEh]       0.00000165 [kcal/mol]       0.00000692 [kJ/mol]
      Disp20 (SS)                  -0.13332554 [mEh]      -0.08366304 [kcal/mol]      -0.35004616 [kJ/mol]
      Disp20 (OS)                  -0.13332554 [mEh]      -0.08366304 [kcal/mol]      -0.35004616 [kJ/mol]
      Exch-Disp20 (SS)              0.00000196 [mEh]       0.00000123 [kcal/mol]       0.00000516 [kJ/mol]
      Exch-Disp20 (OS)              0.00000067 [mEh]       0.00000042 [kcal/mol]       0.00000176 [kJ/mol]

  Total HF                         -5.23247995 [mEh]      -3.28343074 [kcal/mol]     -13.73787423 [kJ/mol]
  Total SAPT0                      -5.49912840 [mEh]      -3.45075517 [kcal/mol]     -14.43795963 [kJ/mol]

  Special recipe for scaled SAPT0 (see Manual):
    Electrostatics sSAPT0          -4.39165995 [mEh]      -2.75580823 [kcal/mol]     -11.53030162 [kJ/mol]
    Exchange sSAPT0                -0.00001775 [mEh]      -0.00001114 [kcal/mol]      -0.00004659 [kJ/mol]
    Induction sSAPT0               -0.84080225 [mEh]      -0.52761138 [kcal/mol]      -2.20752602 [kJ/mol]
    Dispersion sSAPT0              -0.26664845 [mEh]      -0.16732443 [kcal/mol]      -0.70008541 [kJ/mol]
  Total sSAPT0                     -5.49912840 [mEh]      -3.45075517 [kcal/mol]     -14.43795963 [kJ/mol]
  --------------------------------------------------------------------------------------------------------

*** tstop() called on d-16-7-4 at Mon Jan 22 22:49:06 2024
Module time:
	user time   =    8695.88 seconds =     144.93 minutes
	system time =     942.53 seconds =      15.71 minutes
	total time  =       8701 seconds =     145.02 minutes
Total time:
	user time   =   16746.95 seconds =     279.12 minutes
	system time =    1105.11 seconds =      18.42 minutes
	total time  =       9576 seconds =     159.60 minutes

    Psi4 stopped on: Monday, 22 January 2024 10:49PM
    Psi4 wall time for execution: 2:39:37.25

*** Psi4 exiting successfully. Buy a developer a beer!
