
    -----------------------------------------------------------------------
          Psi4: An Open-Source Ab Initio Electronic Structure Package
                               Psi4 1.9 release

                         Git: Rev {} zzzzzzz 


    D. G. A. Smith, L. A. Burns, A. C. Simmonett, R. M. Parrish,
    M. C. Schieber, R. Galvelis, P. Kraus, H. Kruse, R. Di Remigio,
    A. Alenaizan, A. M. James, S. Lehtola, J. P. Misiewicz, M. Scheurer,
    R. A. Shaw, J. B. Schriber, Y. Xie, Z. L. Glick, D. A. Sirianni,
    J. S. O'Brien, J. M. Waldrop, A. Kumar, E. G. Hohenstein,
    B. P. Pritchard, B. R. Brooks, H. F. Schaefer III, A. Yu. Sokolov,
    K. Patkowski, A. E. DePrince III, U. Bozkaya, R. A. King,
    F. A. Evangelista, J. M. Turney, T. D. Crawford, C. D. Sherrill,
    J. Chem. Phys. 152(18) 184108 (2020). https://doi.org/10.1063/5.0006002

                            Additional Code Authors
    E. T. Seidl, C. L. Janssen, E. F. Valeev, M. L. Leininger,
    J. F. Gonthier, R. M. Richard, H. R. McAlexander, M. Saitow, X. Wang,
    P. Verma, M. H. Lechner, A. Jiang, S. Behnle, A. G. Heide,
    M. F. Herbst, and D. L. Poole

             Previous Authors, Complete List of Code Contributors,
                       and Citations for Specific Modules
    https://github.com/psi4/psi4/blob/master/codemeta.json
    https://github.com/psi4/psi4/graphs/contributors
    http://psicode.org/psi4manual/master/introduction.html#citing-psifour

    -----------------------------------------------------------------------


    Psi4 started on: Saturday, 10 February 2024 12:50PM

    Process ID: 2347726
    Host:       n2cn0255
    PSIDATADIR: /opt/software/pc2/EB-SW/software/PSI4/1.9-foss-2022a/share/psi4
    Memory:     500.0 MiB
    Threads:    16
    
  ==> Input File <==

--------------------------------------------------------------------------
memory 48 GB # how much memory is available ! Depends on the nodes/cores !

molecule dimer {
# monomer A
+1 1    # Charge and multiplicity
C  0.680067 -0.008042 -5.715929
C -0.680504 -0.006014 -5.715545
N -1.085635 -0.005016 -4.397221
C  0.000108 -0.001740 -3.615820
C -2.477365  0.044390 -3.929242
N  1.085222 -0.005016 -4.397221
H  1.385146 -0.015870 -6.533368
H -1.385302 -0.006204 -6.533214
H -0.000009  0.000007 -2.534731
C  2.478117 -0.021908 -3.932123
H  2.490592  0.005437 -2.841870
H  2.967028 -0.935354 -4.279299
H  3.001428  0.853575 -4.323595
H -2.857359  1.066461 -4.009201
H -3.082679 -0.625694 -4.542306
H -2.518128 -0.282594 -2.889294
--
# monomer B
0 1     # Charge and multiplicity
C   1.22531237526482      0.70753866091955      0.00613762728373
C   1.22532433589282     -0.70753852257020     -0.00619318228664
C   -0.00000567409046      1.41496628609039     -0.00672680580738
C   2.45644923379077      1.41832825917820      0.00902448468363
C   0.00001130712078     -1.41497612663474      0.00347275151708
C   -1.22530046906674      0.70754574598412      0.00838914760619
C   2.45643823516184     -1.41832293188077     -0.00843833914343
C   -0.00000085313587      2.83680140328112     -0.00913035594137
C   3.68182717731192      0.70931832800114     -0.00808954934571
C   2.45512052870677      2.83422403348893     -0.00819210630633
C   3.68182158506039     -0.70933346742900      0.00798293467272
C   -1.22531311884624     -0.70752714354401     -0.00512042085974
C   1.22670006104402      3.54346985599427      0.00816696660346
C   0.00000526469929     -2.83678176723568      0.00832091913869
C   -2.45643555300670      1.41831729028492      0.00842454345199
C   2.45512389762097     -2.83422965658853      0.00783102630520
C   -1.22671388474763      3.54346943575023      0.00827029982280
C   4.91451777504333      1.42717324448953     -0.00160886631602
C   3.69315067131765      3.54279566454522     -0.00155906667985
C   -2.45643712022637     -1.41831290883911     -0.00846337726810
C   1.22670532178455     -3.54347386990643     -0.00780316414624
C   -2.45512491866593      2.83421703463423     -0.00818572995999
C   4.91452486062398     -1.42718653794377      0.00136387641845
C   1.22142509354026      4.97013443726031      0.00150231067809
C   4.89300870916237      2.82518837202648     -0.00039219795739
C   -1.22669652864725     -3.54347062507680     -0.00753595973677
C   -3.68181849668397      0.70932533873199     -0.00807686886569
C   3.69314758099218     -3.54280096939050      0.00148176697923
C   -1.22143177215231      4.97012866986289      0.00168580605083
C   6.13477145276790      0.68054831910577     -0.00083909176631
C   3.65678936045204      4.97295361556775     -0.00065042889723
C   -2.45512642789169     -2.83421472106065      0.00758666850712
C   -3.68181869921921     -0.70932533146830      0.00810055625144
C   4.89301309775526     -2.82519973363176      0.00021895393805
C   -0.00000059327114      5.65044773803267      0.00045449734393
C   6.13477559217374     -0.68055448207492      0.00042622874941
C   2.47813196269732      5.65357712333155      0.00063835075260
C   1.22142288457925     -4.97012668293268     -0.00129718634452
C   -3.69316190412301      3.54279732619245     -0.00139355922051
C   -1.22142804110313     -4.97011793159564     -0.00140994817719
C   -4.91452132810043      1.42717581899491     -0.00153192130862
C   3.65678749952045     -4.97295485423912      0.00080007163680
C   -2.47813805026426      5.65357479452875      0.00092287576113
C   -3.69314125872231     -3.54278984697859      0.00136564082345
C   -4.91451200321153     -1.42718062802730      0.00139857359209
C   -0.00000552908399     -5.65043791501335      0.00005899322272
C   -4.89302000425900      2.82518897091939     -0.00040227981744
C   2.47812647313991     -5.65357317188818     -0.00029052915548
C   -3.65679823041642      4.97295655404175     -0.00047374852278
C   -4.89299899901461     -2.82519139505969      0.00006491824035
C   -2.47812801824129     -5.65356579800621     -0.00056571680280
C   -6.13477002348955      0.68054913825639     -0.00086464346868
C   -3.65678835334731     -4.97294365097028      0.00058578382008
C   -6.13476456307132     -0.68055354348201      0.00040575295444
H   5.83528897565761      3.36927626695423      0.00396712770529
H   7.07385965258860      1.22821762089947     -0.00037744837300
H   4.60066374401555      5.51238117445323     -0.00014522814529
H   5.83528386714679     -3.36930568472863     -0.00423551337640
H   -0.00001167146422      6.73853104613662     -0.00389474766392
H   7.07386165167227     -1.22822657074368     -0.00008250934481
H   2.47331421164041      6.74068466339473      0.00017162982210
H   4.60066897122302     -5.51237575717576      0.00039007446835
H   -2.47331820069565      6.74068209160650      0.00047297644710
H   -0.00000978838621     -6.73852780445195      0.00458867820736
H   -5.83530143450167      3.36927132229595      0.00410314985360
H   2.47330840367253     -6.74068500242887      0.00027980126949
H   -4.60067436136587      5.51237839860371      0.00002010017831
H   -5.83527902699321     -3.36928859177951     -0.00451481925734
H   -2.47329986759855     -6.74067870613986     -0.00016951527498
H   -7.07385728692578      1.22822084484047     -0.00046143985387
H   -4.60067330624313     -5.51236229778631      0.00021776644566
H   -7.07385645456741     -1.22822025997701     -0.00017736581114

    units angstrom      # Angstroms are the default
    no_reorient         # Geometry fixed, default
    symmetry c1         # C1 symmetry, default
}

set {
    scf_type DF         # Density fitting, faster than exact integrals
    freeze_core True    # Freeze core electrons
    basis jun-cc-pVDZ   # Jun-cc-pVDZ basis set, recommended for sSAPT0 in https://doi.org/10.1063/1.4867135
}

energy('ssapt0')        # Compute sSAPT0 energy, includes also SAPT0
--------------------------------------------------------------------------

  Memory set to  44.703 GiB by Python driver.

Scratch directory: /tmp/
   => Loading Basis Set <=

    Name: JUN-CC-PVDZ
    Role: ORBITAL
    Keyword: BASIS
    atoms 1-2, 4-5, 10, 17-70 entry C          line   164 file /opt/software/pc2/EB-SW/software/PSI4/1.9-foss-2022a/share/psi4/basis/jun-cc-pvdz.gbs 
    atoms 3, 6                entry N          line   198 file /opt/software/pc2/EB-SW/software/PSI4/1.9-foss-2022a/share/psi4/basis/jun-cc-pvdz.gbs 
    atoms 7-9, 11-16, 71-88   entry H          line    36 file /opt/software/pc2/EB-SW/software/PSI4/1.9-foss-2022a/share/psi4/basis/jun-cc-pvdz.gbs 

   => Loading Basis Set <=

    Name: JUN-CC-PVDZ
    Role: ORBITAL
    Keyword: BASIS
    atoms 1-2, 4-5, 10, 17-70 entry C          line   164 file /opt/software/pc2/EB-SW/software/PSI4/1.9-foss-2022a/share/psi4/basis/jun-cc-pvdz.gbs 
    atoms 3, 6                entry N          line   198 file /opt/software/pc2/EB-SW/software/PSI4/1.9-foss-2022a/share/psi4/basis/jun-cc-pvdz.gbs 
    atoms 7-9, 11-16, 71-88   entry H          line    36 file /opt/software/pc2/EB-SW/software/PSI4/1.9-foss-2022a/share/psi4/basis/jun-cc-pvdz.gbs 


  //>>>>>>>>>>>>>>>>>>>>>>>>>>>>>>>>>>>//
  //              Dimer HF             //
  //<<<<<<<<<<<<<<<<<<<<<<<<<<<<<<<<<<<//

   => Libint2 <=

    Primary   basis highest AM E, G, H:  5, 4, 3
    Auxiliary basis highest AM E, G, H:  6, 5, 4
    Onebody   basis highest AM E, G, H:  6, 5, 4
    Solid Harmonics ordering:            gaussian

*** tstart() called on n2cn0255
*** at Sat Feb 10 12:50:50 2024

   => Loading Basis Set <=

    Name: JUN-CC-PVDZ
    Role: ORBITAL
    Keyword: BASIS
    atoms 1-2, 4-5, 10, 17-70 entry C          line   164 file /opt/software/pc2/EB-SW/software/PSI4/1.9-foss-2022a/share/psi4/basis/jun-cc-pvdz.gbs 
    atoms 3, 6                entry N          line   198 file /opt/software/pc2/EB-SW/software/PSI4/1.9-foss-2022a/share/psi4/basis/jun-cc-pvdz.gbs 
    atoms 7-9, 11-16, 71-88   entry H          line    36 file /opt/software/pc2/EB-SW/software/PSI4/1.9-foss-2022a/share/psi4/basis/jun-cc-pvdz.gbs 


         ---------------------------------------------------------
                                   SCF
               by Justin Turney, Rob Parrish, Andy Simmonett
                          and Daniel G. A. Smith
                              RHF Reference
                       16 Threads,  45776 MiB Core
         ---------------------------------------------------------

  ==> Geometry <==

    Molecular point group: c1
    Full point group: C1

    Geometry (in Angstrom), charge = 1, multiplicity = 1:

       Center              X                  Y                   Z               Mass       
    ------------   -----------------  -----------------  -----------------  -----------------
         C            0.680066520158    -0.008042372515    -5.143558880763    12.000000000000
         C           -0.680504479842    -0.006014372515    -5.143174880763    12.000000000000
         N           -1.085635479842    -0.005016372515    -3.824850880763    14.003074004430
         C            0.000107520158    -0.001740372515    -3.043449880763    12.000000000000
         C           -2.477365479842     0.044389627485    -3.356871880763    12.000000000000
         N            1.085221520158    -0.005016372515    -3.824850880763    14.003074004430
         H            1.385145520158    -0.015870372515    -5.960997880763     1.007825032230
         H           -1.385302479842    -0.006204372515    -5.960843880763     1.007825032230
         H           -0.000009479842     0.000006627485    -1.962360880763     1.007825032230
         C            2.478116520158    -0.021908372515    -3.359752880763    12.000000000000
         H            2.490591520158     0.005436627485    -2.269499880763     1.007825032230
         H            2.967027520158    -0.935354372515    -3.706928880763     1.007825032230
         H            3.001427520158     0.853574627485    -3.751224880763     1.007825032230
         H           -2.857359479842     1.066460627485    -3.436830880763     1.007825032230
         H           -3.082679479842    -0.625694372515    -3.969935880763     1.007825032230
         H           -2.518128479842    -0.282594372515    -2.316923880763     1.007825032230
         C            1.225311895423     0.707538288405     0.578507746521    12.000000000000
         C            1.225323856051    -0.707538895085     0.566176936951    12.000000000000
         C           -0.000006153932     1.414965913575     0.565643313430    12.000000000000
         C            2.456448753949     1.418327886663     0.581394603921    12.000000000000
         C            0.000010827279    -1.414976499150     0.575842870754    12.000000000000
         C           -1.225300948908     0.707545373469     0.580759266844    12.000000000000
         C            2.456437755320    -1.418323304396     0.563931780094    12.000000000000
         C           -0.000001332978     2.836801030766     0.563239763296    12.000000000000
         C            3.681826697470     0.709317955486     0.564280569892    12.000000000000
         C            2.455120048865     2.834223660974     0.564178012931    12.000000000000
         C            3.681821105219    -0.709333839944     0.580353053910    12.000000000000
         C           -1.225313598688    -0.707527516059     0.567249698378    12.000000000000
         C            1.226699581202     3.543469483479     0.580537085841    12.000000000000
         C            0.000004784858    -2.836782139751     0.580691038376    12.000000000000
         C           -2.456436032848     1.418316917770     0.580794662689    12.000000000000
         C            2.455123417779    -2.834230029103     0.580201145543    12.000000000000
         C           -1.226714364589     3.543469063235     0.580640419060    12.000000000000
         C            4.914517295202     1.427172871975     0.570761252921    12.000000000000
         C            3.693150191476     3.542795292030     0.570811052558    12.000000000000
         C           -2.456437600068    -1.418313281354     0.563906741969    12.000000000000
         C            1.226704841943    -3.543474242421     0.564566955091    12.000000000000
         C           -2.455125398508     2.834216662119     0.564184389277    12.000000000000
         C            4.914524380782    -1.427186910459     0.573733995656    12.000000000000
         C            1.221424613699     4.970134064745     0.573872429915    12.000000000000
         C            4.893008229321     2.825187999512     0.571977921280    12.000000000000
         C           -1.226697008489    -3.543470997592     0.564834159501    12.000000000000
         C           -3.681818976526     0.709324966217     0.564293250372    12.000000000000
         C            3.693147101150    -3.542801341905     0.573851886217    12.000000000000
         C           -1.221432251994     4.970128297348     0.574055925288    12.000000000000
         C            6.134770972926     0.680547946591     0.571531027471    12.000000000000
         C            3.656788880610     4.972953243053     0.571719690340    12.000000000000
         C           -2.455126907733    -2.834215093576     0.579956787744    12.000000000000
         C           -3.681819179061    -0.709325703983     0.580470675489    12.000000000000
         C            4.893012617914    -2.825200106147     0.572589073175    12.000000000000
         C           -0.000001073113     5.650447365518     0.572824616581    12.000000000000
         C            6.134775112332    -0.680554854590     0.572796347987    12.000000000000
         C            2.478131482856     5.653576750817     0.573008469990    12.000000000000
         C            1.221422404738    -4.970127055448     0.571072932893    12.000000000000
         C           -3.693162383965     3.542796953677     0.570976560017    12.000000000000
         C           -1.221428520945    -4.970118304111     0.570960171060    12.000000000000
         C           -4.914521807942     1.427175446480     0.570838197929    12.000000000000
         C            3.656787019679    -4.972955226754     0.573170190874    12.000000000000
         C           -2.478138530106     5.653574422014     0.573292994998    12.000000000000
         C           -3.693141738564    -3.542790219494     0.573735760061    12.000000000000
         C           -4.914512483053    -1.427181000542     0.573768692829    12.000000000000
         C           -0.000006008926    -5.650438287528     0.572429112460    12.000000000000
         C           -4.893020484101     2.825188598404     0.571967839420    12.000000000000
         C            2.478125993298    -5.653573544403     0.572079590082    12.000000000000
         C           -3.656798710258     4.972956181527     0.571896370715    12.000000000000
         C           -4.892999478856    -2.825191767575     0.572435037478    12.000000000000
         C           -2.478128498083    -5.653566170521     0.571804402435    12.000000000000
         C           -6.134770503331     0.680548765741     0.571505475769    12.000000000000
         C           -3.656788833189    -4.972944023485     0.572955903057    12.000000000000
         C           -6.134765042913    -0.680553915997     0.572775872192    12.000000000000
         H            5.835288495816     3.369275894439     0.576337246943     1.007825032230
         H            7.073859172747     1.228217248385     0.571992670864     1.007825032230
         H            4.600663264174     5.512380801938     0.572224891092     1.007825032230
         H            5.835283387305    -3.369306057244     0.568134605861     1.007825032230
         H           -0.000012151306     6.738530673622     0.568475371573     1.007825032230
         H            7.073861171831    -1.228226943259     0.572287609893     1.007825032230
         H            2.473313731799     6.740684290880     0.572541749059     1.007825032230
         H            4.600668491381    -5.512376129691     0.572760193706     1.007825032230
         H           -2.473318680537     6.740681719092     0.572843095684     1.007825032230
         H           -0.000010268228    -6.738528176967     0.576958797445     1.007825032230
         H           -5.835301914343     3.369270949781     0.576473269091     1.007825032230
         H            2.473307923831    -6.740685374944     0.572649920507     1.007825032230
         H           -4.600674841208     5.512378026089     0.572390219416     1.007825032230
         H           -5.835279506835    -3.369288964294     0.567855299980     1.007825032230
         H           -2.473300347440    -6.740679078655     0.572200603962     1.007825032230
         H           -7.073857766768     1.228220472326     0.571908679383     1.007825032230
         H           -4.600673786085    -5.512362670301     0.572587885683     1.007825032230
         H           -7.073856934409    -1.228220632492     0.572192753426     1.007825032230

  Running in c1 symmetry.

  Rotational constants: A =      0.00179  B =      0.00175  C =      0.00109 [cm^-1]
  Rotational constants: A =     53.81000  B =     52.47298  C =     32.71081 [MHz]
  Nuclear repulsion = 8260.036482589459411

  Charge       = 1
  Multiplicity = 1
  Electrons    = 394
  Nalpha       = 197
  Nbeta        = 197

  ==> Algorithm <==

  SCF Algorithm Type is DF.
  DIIS enabled.
  MOM disabled.
  Fractional occupation disabled.
  Guess Type is SAD.
  Energy threshold   = 1.00e-08
  Density threshold  = 1.00e-08
  Integral threshold = 1.00e-12

  ==> Primary Basis <==

  Basis Set: JUN-CC-PVDZ
    Blend: JUN-CC-PVDZ
    Number of shells: 569
    Number of basis functions: 1233
    Number of Cartesian functions: 1294
    Spherical Harmonics?: true
    Max angular momentum: 2

   => Loading Basis Set <=

    Name: (JUN-CC-PVDZ AUX)
    Role: JKFIT
    Keyword: DF_BASIS_SCF
    atoms 1-2, 4-5, 10, 17-70 entry C          line   146 file /opt/software/pc2/EB-SW/software/PSI4/1.9-foss-2022a/share/psi4/basis/jun-cc-pvdz-jkfit.gbs 
    atoms 3, 6                entry N          line   202 file /opt/software/pc2/EB-SW/software/PSI4/1.9-foss-2022a/share/psi4/basis/jun-cc-pvdz-jkfit.gbs 
    atoms 7-9, 11-16, 71-88   entry H          line    70 file /opt/software/pc2/EB-SW/software/PSI4/1.9-foss-2022a/share/psi4/basis/jun-cc-pvdz-jkfit.gbs 

  ==> Integral Setup <==

  ==> DiskDFJK: Density-Fitted J/K Matrices <==

    J tasked:                  Yes
    K tasked:                  Yes
    wK tasked:                  No
    OpenMP threads:             16
    Integrals threads:          16
    Memory [MiB]:            34332
    Algorithm:                Core
    Integral Cache:           SAVE
    Schwarz Cutoff:          1E-12
    Fitting Condition:       1E-10

   => Auxiliary Basis Set <=

  Basis Set: (JUN-CC-PVDZ AUX)
    Blend: JUN-CC-PVDZ-JKFIT
    Number of shells: 1890
    Number of basis functions: 5440
    Number of Cartesian functions: 6226
    Spherical Harmonics?: true
    Max angular momentum: 3

  Minimum eigenvalue in the overlap matrix is 6.3497024000E-10.
  Reciprocal condition number of the overlap matrix is 2.6594749735E-11.
    Using canonical orthogonalization.
  Overall, 14 of 1233 possible MOs eliminated.


  ==> Pre-Iterations <==

  SCF Guess: Superposition of Atomic Densities via on-the-fly atomic UHF (no occupation information).

   -------------------------
    Irrep   Nso     Nmo    
   -------------------------
     A       1233    1219 
   -------------------------
    Total    1233    1219
   -------------------------

  ==> Iterations <==

                           Total Energy        Delta E     RMS |[F,P]|

   @DF-RHF iter SAD: -2365.61327308018053   -2.36561e+03   0.00000e+00 
   @DF-RHF iter   1: -2358.21733525544687    7.39594e+00   9.43197e-04 ADIIS/DIIS
   @DF-RHF iter   2: -2359.10978168408565   -8.92446e-01   3.19069e-04 ADIIS/DIIS
   @DF-RHF iter   3: -2359.19819092990201   -8.84092e-02   1.19648e-04 ADIIS/DIIS
   @DF-RHF iter   4: -2359.21127125032854   -1.30803e-02   4.39846e-05 DIIS
   @DF-RHF iter   5: -2359.21310653399132   -1.83528e-03   9.46995e-06 DIIS
   @DF-RHF iter   6: -2359.21328135439580   -1.74820e-04   5.07603e-06 DIIS
   @DF-RHF iter   7: -2359.21334792683001   -6.65724e-05   2.35510e-06 DIIS
   @DF-RHF iter   8: -2359.21336887199914   -2.09452e-05   1.16071e-06 DIIS
   @DF-RHF iter   9: -2359.21337401877918   -5.14678e-06   2.97185e-07 DIIS
   @DF-RHF iter  10: -2359.21337427435174   -2.55573e-07   1.05022e-07 DIIS
   @DF-RHF iter  11: -2359.21337429456480   -2.02131e-08   4.19017e-08 DIIS
   @DF-RHF iter  12: -2359.21337429881078   -4.24598e-09   2.11501e-08 DIIS
   @DF-RHF iter  13: -2359.21337429978121   -9.70431e-10   6.35825e-09 DIIS
  Energy and wave function converged.


  ==> Post-Iterations <==

    Orbital Energies [Eh]
    ---------------------

    Doubly Occupied:                                                      

       1A    -15.800793     2A    -15.800326     3A    -11.493562  
       4A    -11.430242     5A    -11.428684     6A    -11.415902  
       7A    -11.415892     8A    -11.347021     9A    -11.346673  
      10A    -11.346338    11A    -11.345590    12A    -11.345163  
      13A    -11.344806    14A    -11.340826    15A    -11.340824  
      16A    -11.340730    17A    -11.340671    18A    -11.339459  
      19A    -11.339334    20A    -11.338156    21A    -11.338137  
      22A    -11.337207    23A    -11.337164    24A    -11.336958  
      25A    -11.336865    26A    -11.336827    27A    -11.336758  
      28A    -11.335685    29A    -11.335657    30A    -11.335551  
      31A    -11.335528    32A    -11.335256    33A    -11.335243  
      34A    -11.335197    35A    -11.335187    36A    -11.334560  
      37A    -11.334559    38A    -11.334557    39A    -11.334524  
      40A    -11.333664    41A    -11.333597    42A    -11.333583  
      43A    -11.333514    44A    -11.327796    45A    -11.327721  
      46A    -11.327696    47A    -11.327659    48A    -11.326467  
      49A    -11.326454    50A    -11.325745    51A    -11.325744  
      52A    -11.324317    53A    -11.324308    54A    -11.324307  
      55A    -11.324303    56A    -11.324293    57A    -11.324281  
      58A    -11.322859    59A    -11.322855    60A    -11.322845  
      61A    -11.322824    62A     -1.545101    63A     -1.400547  
      64A     -1.327248    65A     -1.300168    66A     -1.298920  
      67A     -1.267610    68A     -1.267436    69A     -1.261973  
      70A     -1.233904    71A     -1.226468    72A     -1.215937  
      73A     -1.214912    74A     -1.206598    75A     -1.189322  
      76A     -1.189280    77A     -1.161223    78A     -1.161103  
      79A     -1.157964    80A     -1.155731    81A     -1.141648  
      82A     -1.141646    83A     -1.116255    84A     -1.104056  
      85A     -1.102651    86A     -1.101903    87A     -1.093552  
      88A     -1.088052    89A     -1.085885    90A     -1.065274  
      91A     -1.065004    92A     -1.038223    93A     -1.038071  
      94A     -0.990467    95A     -0.971675    96A     -0.971486  
      97A     -0.968300    98A     -0.965401    99A     -0.965070  
     100A     -0.963264   101A     -0.959688   102A     -0.959598  
     103A     -0.938094   104A     -0.911532   105A     -0.895557  
     106A     -0.894718   107A     -0.890512   108A     -0.890025  
     109A     -0.884165   110A     -0.870156   111A     -0.870056  
     112A     -0.825522   113A     -0.823248   114A     -0.817708  
     115A     -0.812155   116A     -0.811637   117A     -0.807807  
     118A     -0.807700   119A     -0.794148   120A     -0.785182  
     121A     -0.778801   122A     -0.775525   123A     -0.774917  
     124A     -0.770970   125A     -0.770367   126A     -0.758168  
     127A     -0.753787   128A     -0.751470   129A     -0.736533  
     130A     -0.731271   131A     -0.729764   132A     -0.725496  
     133A     -0.725409   134A     -0.715330   135A     -0.714950  
     136A     -0.706966   137A     -0.705075   138A     -0.704979  
     139A     -0.702527   140A     -0.693767   141A     -0.685118  
     142A     -0.684146   143A     -0.679430   144A     -0.678032  
     145A     -0.675766   146A     -0.675064   147A     -0.670967  
     148A     -0.670593   149A     -0.670005   150A     -0.658900  
     151A     -0.656390   152A     -0.655877   153A     -0.644549  
     154A     -0.644063   155A     -0.641927   156A     -0.641712  
     157A     -0.636500   158A     -0.630009   159A     -0.629628  
     160A     -0.616333   161A     -0.616161   162A     -0.613724  
     163A     -0.613690   164A     -0.609722   165A     -0.606070  
     166A     -0.599243   167A     -0.598662   168A     -0.575188  
     169A     -0.571555   170A     -0.568634   171A     -0.565112  
     172A     -0.564304   173A     -0.562402   174A     -0.558362  
     175A     -0.558200   176A     -0.551871   177A     -0.550718  
     178A     -0.530169   179A     -0.529739   180A     -0.514647  
     181A     -0.514592   182A     -0.493155   183A     -0.484426  
     184A     -0.483841   185A     -0.482591   186A     -0.450381  
     187A     -0.450117   188A     -0.426207   189A     -0.420657  
     190A     -0.419642   191A     -0.419256   192A     -0.386939  
     193A     -0.371860   194A     -0.364021   195A     -0.363943  
     196A     -0.302351   197A     -0.301900  

    Virtual:                                                              

     198A     -0.063335   199A     -0.062938   200A     -0.039567  
     201A     -0.034980   202A     -0.032877   203A     -0.019429  
     204A     -0.014640   205A     -0.014408   206A     -0.012847  
     207A     -0.012268   208A     -0.010216   209A     -0.007835  
     210A     -0.004609   211A     -0.002739   212A      0.001517  
     213A      0.002326   214A      0.005901   215A      0.007794  
     216A      0.008816   217A      0.008930   218A      0.009989  
     219A      0.013738   220A      0.014553   221A      0.015137  
     222A      0.016198   223A      0.018825   224A      0.019005  
     225A      0.022494   226A      0.024297   227A      0.026830  
     228A      0.029444   229A      0.030810   230A      0.034017  
     231A      0.034473   232A      0.035159   233A      0.037196  
     234A      0.043995   235A      0.045397   236A      0.045912  
     237A      0.046644   238A      0.048995   239A      0.050833  
     240A      0.051166   241A      0.054796   242A      0.056018  
     243A      0.060980   244A      0.064384   245A      0.066316  
     246A      0.068649   247A      0.070017   248A      0.070384  
     249A      0.070996   250A      0.072683   251A      0.073705  
     252A      0.076410   253A      0.076834   254A      0.076969  
     255A      0.085857   256A      0.086664   257A      0.086856  
     258A      0.087598   259A      0.089779   260A      0.094661  
     261A      0.096934   262A      0.097365   263A      0.100449  
     264A      0.101612   265A      0.102491   266A      0.106377  
     267A      0.108607   268A      0.109704   269A      0.110811  
     270A      0.111993   271A      0.112498   272A      0.113793  
     273A      0.116527   274A      0.118465   275A      0.120528  
     276A      0.121393   277A      0.121740   278A      0.122180  
     279A      0.127893   280A      0.128448   281A      0.128732  
     282A      0.131238   283A      0.137165   284A      0.139092  
     285A      0.140975   286A      0.142677   287A      0.143508  
     288A      0.144789   289A      0.146612   290A      0.146875  
     291A      0.148610   292A      0.151084   293A      0.151841  
     294A      0.152124   295A      0.152401   296A      0.155355  
     297A      0.156375   298A      0.158120   299A      0.159168  
     300A      0.162119   301A      0.162523   302A      0.163477  
     303A      0.163953   304A      0.165884   305A      0.168141  
     306A      0.169922   307A      0.170791   308A      0.171436  
     309A      0.171810   310A      0.172646   311A      0.174859  
     312A      0.176668   313A      0.178535   314A      0.181362  
     315A      0.182750   316A      0.185644   317A      0.186786  
     318A      0.188749   319A      0.189206   320A      0.190721  
     321A      0.191626   322A      0.192904   323A      0.197441  
     324A      0.198240   325A      0.198343   326A      0.198711  
     327A      0.202049   328A      0.202579   329A      0.203467  
     330A      0.204315   331A      0.206974   332A      0.207357  
     333A      0.207659   334A      0.209310   335A      0.212166  
     336A      0.214311   337A      0.215702   338A      0.217877  
     339A      0.219880   340A      0.225353   341A      0.229707  
     342A      0.232108   343A      0.232619   344A      0.233501  
     345A      0.235158   346A      0.236426   347A      0.237480  
     348A      0.238723   349A      0.239530   350A      0.240511  
     351A      0.241309   352A      0.242033   353A      0.243639  
     354A      0.243749   355A      0.244336   356A      0.245384  
     357A      0.246792   358A      0.247926   359A      0.248382  
     360A      0.249643   361A      0.250552   362A      0.253103  
     363A      0.253555   364A      0.254206   365A      0.254565  
     366A      0.257569   367A      0.259635   368A      0.262014  
     369A      0.265591   370A      0.266467   371A      0.268798  
     372A      0.269723   373A      0.270715   374A      0.271716  
     375A      0.272157   376A      0.275711   377A      0.278950  
     378A      0.280553   379A      0.282973   380A      0.283398  
     381A      0.284482   382A      0.284990   383A      0.286222  
     384A      0.287659   385A      0.289114   386A      0.290783  
     387A      0.291260   388A      0.292923   389A      0.294244  
     390A      0.296146   391A      0.299135   392A      0.299760  
     393A      0.300772   394A      0.301856   395A      0.305007  
     396A      0.306841   397A      0.307536   398A      0.309079  
     399A      0.309989   400A      0.311616   401A      0.316229  
     402A      0.317318   403A      0.317517   404A      0.318267  
     405A      0.319191   406A      0.325263   407A      0.326387  
     408A      0.326779   409A      0.327857   410A      0.328480  
     411A      0.329588   412A      0.331263   413A      0.332423  
     414A      0.332789   415A      0.334169   416A      0.335181  
     417A      0.336629   418A      0.337175   419A      0.339483  
     420A      0.339561   421A      0.340373   422A      0.340988  
     423A      0.341982   424A      0.342135   425A      0.344767  
     426A      0.346458   427A      0.349125   428A      0.350004  
     429A      0.352096   430A      0.352839   431A      0.353889  
     432A      0.355315   433A      0.357714   434A      0.362493  
     435A      0.364137   436A      0.366521   437A      0.370149  
     438A      0.370852   439A      0.371994   440A      0.372843  
     441A      0.374093   442A      0.375305   443A      0.377962  
     444A      0.381728   445A      0.383625   446A      0.384063  
     447A      0.385102   448A      0.386179   449A      0.386993  
     450A      0.388575   451A      0.391098   452A      0.391276  
     453A      0.394085   454A      0.395957   455A      0.399479  
     456A      0.401650   457A      0.403110   458A      0.406396  
     459A      0.407046   460A      0.407584   461A      0.408996  
     462A      0.412596   463A      0.415506   464A      0.416443  
     465A      0.420103   466A      0.421238   467A      0.421535  
     468A      0.423351   469A      0.424014   470A      0.425155  
     471A      0.425516   472A      0.427957   473A      0.430446  
     474A      0.433154   475A      0.434918   476A      0.436445  
     477A      0.440554   478A      0.443727   479A      0.445802  
     480A      0.446222   481A      0.448084   482A      0.451770  
     483A      0.452284   484A      0.453436   485A      0.456330  
     486A      0.460433   487A      0.463188   488A      0.464480  
     489A      0.470624   490A      0.471764   491A      0.472592  
     492A      0.472680   493A      0.476917   494A      0.478451  
     495A      0.480491   496A      0.481096   497A      0.482649  
     498A      0.483387   499A      0.484680   500A      0.485458  
     501A      0.489376   502A      0.489929   503A      0.491714  
     504A      0.495000   505A      0.496839   506A      0.512089  
     507A      0.514416   508A      0.516213   509A      0.520020  
     510A      0.521897   511A      0.523778   512A      0.525519  
     513A      0.532222   514A      0.532657   515A      0.540598  
     516A      0.543251   517A      0.545020   518A      0.545729  
     519A      0.550563   520A      0.552287   521A      0.555641  
     522A      0.562654   523A      0.565037   524A      0.575499  
     525A      0.580981   526A      0.582208   527A      0.592572  
     528A      0.594625   529A      0.600534   530A      0.601814  
     531A      0.602593   532A      0.612570   533A      0.640077  
     534A      0.640601   535A      0.664022   536A      0.665277  
     537A      0.668067   538A      0.668382   539A      0.670266  
     540A      0.670582   541A      0.681937   542A      0.682624  
     543A      0.683140   544A      0.691152   545A      0.702374  
     546A      0.706250   547A      0.715830   548A      0.718430  
     549A      0.724014   550A      0.726255   551A      0.727782  
     552A      0.736067   553A      0.736590   554A      0.738920  
     555A      0.741936   556A      0.747503   557A      0.749448  
     558A      0.750448   559A      0.753945   560A      0.755151  
     561A      0.757913   562A      0.759296   563A      0.762276  
     564A      0.766555   565A      0.769757   566A      0.772712  
     567A      0.774228   568A      0.786422   569A      0.787793  
     570A      0.789150   571A      0.790187   572A      0.791902  
     573A      0.793976   574A      0.800661   575A      0.804392  
     576A      0.804487   577A      0.807218   578A      0.812150  
     579A      0.813692   580A      0.815487   581A      0.816508  
     582A      0.816993   583A      0.817401   584A      0.824675  
     585A      0.825367   586A      0.826880   587A      0.829713  
     588A      0.832855   589A      0.833093   590A      0.837033  
     591A      0.839065   592A      0.839823   593A      0.844371  
     594A      0.845906   595A      0.846552   596A      0.848806  
     597A      0.850342   598A      0.852584   599A      0.853640  
     600A      0.856283   601A      0.857075   602A      0.859883  
     603A      0.861103   604A      0.864967   605A      0.866923  
     606A      0.870431   607A      0.872006   608A      0.873631  
     609A      0.874661   610A      0.877223   611A      0.879345  
     612A      0.885151   613A      0.889445   614A      0.890756  
     615A      0.891675   616A      0.894710   617A      0.898682  
     618A      0.900575   619A      0.903382   620A      0.903724  
     621A      0.904828   622A      0.906425   623A      0.908374  
     624A      0.908872   625A      0.912591   626A      0.914320  
     627A      0.918887   628A      0.921642   629A      0.925287  
     630A      0.929833   631A      0.932724   632A      0.935980  
     633A      0.938062   634A      0.941055   635A      0.943926  
     636A      0.945569   637A      0.947037   638A      0.948002  
     639A      0.948710   640A      0.952671   641A      0.953361  
     642A      0.957629   643A      0.958210   644A      0.959228  
     645A      0.963562   646A      0.963942   647A      0.966839  
     648A      0.969019   649A      0.970292   650A      0.971513  
     651A      0.975539   652A      0.976423   653A      0.977129  
     654A      0.978777   655A      0.980446   656A      0.982820  
     657A      0.983365   658A      0.984133   659A      0.984604  
     660A      0.990089   661A      0.993123   662A      0.994032  
     663A      0.997970   664A      1.000027   665A      1.001217  
     666A      1.002925   667A      1.003730   668A      1.006697  
     669A      1.013664   670A      1.015022   671A      1.015292  
     672A      1.017515   673A      1.018055   674A      1.019625  
     675A      1.022501   676A      1.027052   677A      1.029474  
     678A      1.030203   679A      1.031593   680A      1.033290  
     681A      1.036265   682A      1.037083   683A      1.039447  
     684A      1.041196   685A      1.043515   686A      1.044269  
     687A      1.046205   688A      1.051358   689A      1.053670  
     690A      1.056472   691A      1.059019   692A      1.060524  
     693A      1.062572   694A      1.065252   695A      1.067365  
     696A      1.067828   697A      1.072826   698A      1.074626  
     699A      1.078595   700A      1.080642   701A      1.083606  
     702A      1.085863   703A      1.092993   704A      1.094649  
     705A      1.096772   706A      1.100798   707A      1.104302  
     708A      1.107439   709A      1.108923   710A      1.112228  
     711A      1.113698   712A      1.117295   713A      1.121915  
     714A      1.123873   715A      1.131800   716A      1.132135  
     717A      1.132893   718A      1.143341   719A      1.145472  
     720A      1.146472   721A      1.147107   722A      1.150163  
     723A      1.153191   724A      1.158662   725A      1.160932  
     726A      1.165196   727A      1.169826   728A      1.171627  
     729A      1.174288   730A      1.179046   731A      1.179215  
     732A      1.185409   733A      1.187243   734A      1.188617  
     735A      1.189382   736A      1.190471   737A      1.192003  
     738A      1.196017   739A      1.197001   740A      1.200037  
     741A      1.203787   742A      1.206062   743A      1.210128  
     744A      1.220892   745A      1.221693   746A      1.223399  
     747A      1.226121   748A      1.228539   749A      1.232597  
     750A      1.234594   751A      1.237276   752A      1.237543  
     753A      1.244870   754A      1.246281   755A      1.248546  
     756A      1.251327   757A      1.252214   758A      1.253180  
     759A      1.253847   760A      1.255949   761A      1.261964  
     762A      1.268782   763A      1.272178   764A      1.275378  
     765A      1.276004   766A      1.276927   767A      1.282320  
     768A      1.285099   769A      1.287001   770A      1.287453  
     771A      1.290157   772A      1.290576   773A      1.291426  
     774A      1.302386   775A      1.306686   776A      1.309148  
     777A      1.316232   778A      1.325412   779A      1.332390  
     780A      1.333133   781A      1.336612   782A      1.340693  
     783A      1.341737   784A      1.342527   785A      1.342841  
     786A      1.343917   787A      1.351886   788A      1.353059  
     789A      1.356758   790A      1.360794   791A      1.364328  
     792A      1.365684   793A      1.366915   794A      1.367410  
     795A      1.369539   796A      1.370625   797A      1.371498  
     798A      1.375886   799A      1.376890   800A      1.377840  
     801A      1.388505   802A      1.391929   803A      1.400094  
     804A      1.401492   805A      1.417282   806A      1.428478  
     807A      1.433613   808A      1.442038   809A      1.442636  
     810A      1.443805   811A      1.444541   812A      1.463381  
     813A      1.473242   814A      1.495382   815A      1.505957  
     816A      1.507639   817A      1.514735   818A      1.522012  
     819A      1.527446   820A      1.527570   821A      1.529656  
     822A      1.532842   823A      1.534093   824A      1.535461  
     825A      1.539045   826A      1.540210   827A      1.543477  
     828A      1.546751   829A      1.548583   830A      1.555327  
     831A      1.559690   832A      1.561399   833A      1.566382  
     834A      1.567369   835A      1.568752   836A      1.569913  
     837A      1.582996   838A      1.584856   839A      1.588419  
     840A      1.589625   841A      1.590287   842A      1.592982  
     843A      1.598022   844A      1.598224   845A      1.598802  
     846A      1.601931   847A      1.604015   848A      1.608274  
     849A      1.608528   850A      1.614105   851A      1.617528  
     852A      1.619368   853A      1.621764   854A      1.622862  
     855A      1.623414   856A      1.625158   857A      1.628053  
     858A      1.630094   859A      1.639566   860A      1.642630  
     861A      1.654815   862A      1.660833   863A      1.664381  
     864A      1.672155   865A      1.676291   866A      1.684692  
     867A      1.687102   868A      1.688990   869A      1.692391  
     870A      1.699434   871A      1.701716   872A      1.707634  
     873A      1.714960   874A      1.716803   875A      1.721544  
     876A      1.731435   877A      1.740010   878A      1.742708  
     879A      1.743617   880A      1.745163   881A      1.745647  
     882A      1.746684   883A      1.755711   884A      1.757941  
     885A      1.760602   886A      1.765880   887A      1.766499  
     888A      1.780760   889A      1.785181   890A      1.789187  
     891A      1.790363   892A      1.792925   893A      1.793919  
     894A      1.795180   895A      1.801104   896A      1.802032  
     897A      1.803791   898A      1.807361   899A      1.809843  
     900A      1.820270   901A      1.820824   902A      1.827973  
     903A      1.829014   904A      1.829861   905A      1.831788  
     906A      1.832392   907A      1.836207   908A      1.837293  
     909A      1.838771   910A      1.841136   911A      1.842358  
     912A      1.842869   913A      1.846468   914A      1.847827  
     915A      1.849083   916A      1.857859   917A      1.863995  
     918A      1.868130   919A      1.871259   920A      1.872644  
     921A      1.874003   922A      1.874686   923A      1.876625  
     924A      1.877620   925A      1.879139   926A      1.880031  
     927A      1.881090   928A      1.882184   929A      1.885395  
     930A      1.890703   931A      1.902557   932A      1.905582  
     933A      1.905986   934A      1.916430   935A      1.920541  
     936A      1.923616   937A      1.925282   938A      1.928424  
     939A      1.928930   940A      1.929613   941A      1.935657  
     942A      1.937117   943A      1.939574   944A      1.940927  
     945A      1.950450   946A      1.952330   947A      1.954100  
     948A      1.955639   949A      1.956166   950A      1.956527  
     951A      1.961329   952A      1.971568   953A      1.972844  
     954A      1.976949   955A      1.977546   956A      1.980842  
     957A      1.983616   958A      1.984411   959A      1.986795  
     960A      1.989748   961A      1.992440   962A      1.997429  
     963A      2.000967   964A      2.002606   965A      2.002955  
     966A      2.003773   967A      2.005713   968A      2.010773  
     969A      2.011972   970A      2.017859   971A      2.019766  
     972A      2.021946   973A      2.025052   974A      2.026910  
     975A      2.027685   976A      2.029198   977A      2.034993  
     978A      2.035972   979A      2.036851   980A      2.037262  
     981A      2.039633   982A      2.042524   983A      2.043917  
     984A      2.044648   985A      2.045244   986A      2.045829  
     987A      2.048346   988A      2.051747   989A      2.054551  
     990A      2.055577   991A      2.059107   992A      2.062131  
     993A      2.063207   994A      2.066219   995A      2.067588  
     996A      2.069196   997A      2.071426   998A      2.078971  
     999A      2.082133  1000A      2.085663  1001A      2.086353  
    1002A      2.088056  1003A      2.092178  1004A      2.104203  
    1005A      2.105913  1006A      2.111997  1007A      2.113913  
    1008A      2.115299  1009A      2.117177  1010A      2.120775  
    1011A      2.123754  1012A      2.124127  1013A      2.128398  
    1014A      2.135352  1015A      2.139979  1016A      2.141490  
    1017A      2.142364  1018A      2.142958  1019A      2.147371  
    1020A      2.157380  1021A      2.161140  1022A      2.165637  
    1023A      2.172048  1024A      2.172133  1025A      2.174000  
    1026A      2.175943  1027A      2.177048  1028A      2.187121  
    1029A      2.189011  1030A      2.193776  1031A      2.195568  
    1032A      2.195642  1033A      2.198434  1034A      2.201185  
    1035A      2.209037  1036A      2.210152  1037A      2.221879  
    1038A      2.227159  1039A      2.228964  1040A      2.232060  
    1041A      2.236330  1042A      2.240475  1043A      2.248370  
    1044A      2.250368  1045A      2.253440  1046A      2.253841  
    1047A      2.258403  1048A      2.261876  1049A      2.273067  
    1050A      2.275485  1051A      2.276462  1052A      2.277924  
    1053A      2.279676  1054A      2.286559  1055A      2.289449  
    1056A      2.296091  1057A      2.300931  1058A      2.316591  
    1059A      2.329928  1060A      2.341974  1061A      2.347210  
    1062A      2.347707  1063A      2.347831  1064A      2.354477  
    1065A      2.361529  1066A      2.366096  1067A      2.369135  
    1068A      2.393577  1069A      2.394399  1070A      2.399767  
    1071A      2.404153  1072A      2.408058  1073A      2.411506  
    1074A      2.411843  1075A      2.433654  1076A      2.446667  
    1077A      2.453377  1078A      2.466788  1079A      2.470827  
    1080A      2.472557  1081A      2.473731  1082A      2.474579  
    1083A      2.481910  1084A      2.483639  1085A      2.484152  
    1086A      2.484686  1087A      2.495907  1088A      2.496366  
    1089A      2.499516  1090A      2.503480  1091A      2.503991  
    1092A      2.508725  1093A      2.511727  1094A      2.514180  
    1095A      2.517030  1096A      2.525242  1097A      2.535808  
    1098A      2.539695  1099A      2.549276  1100A      2.550676  
    1101A      2.552450  1102A      2.555202  1103A      2.557083  
    1104A      2.568521  1105A      2.570134  1106A      2.571157  
    1107A      2.578991  1108A      2.579544  1109A      2.591250  
    1110A      2.607334  1111A      2.609293  1112A      2.610307  
    1113A      2.619885  1114A      2.621321  1115A      2.625094  
    1116A      2.634339  1117A      2.635665  1118A      2.638221  
    1119A      2.640699  1120A      2.641835  1121A      2.647265  
    1122A      2.647474  1123A      2.673738  1124A      2.678054  
    1125A      2.680554  1126A      2.685601  1127A      2.696262  
    1128A      2.715071  1129A      2.717435  1130A      2.719973  
    1131A      2.731084  1132A      2.748083  1133A      2.749874  
    1134A      2.753022  1135A      2.756704  1136A      2.770234  
    1137A      2.774552  1138A      2.774837  1139A      2.777321  
    1140A      2.777957  1141A      2.779993  1142A      2.785726  
    1143A      2.791343  1144A      2.792026  1145A      2.802943  
    1146A      2.829183  1147A      2.841897  1148A      2.846485  
    1149A      2.849302  1150A      2.860038  1151A      2.863721  
    1152A      2.866482  1153A      2.879817  1154A      2.880101  
    1155A      2.890484  1156A      2.920852  1157A      2.940112  
    1158A      2.942590  1159A      2.943617  1160A      2.961069  
    1161A      2.977898  1162A      2.985199  1163A      2.985784  
    1164A      2.996347  1165A      2.997640  1166A      3.033601  
    1167A      3.039230  1168A      3.043297  1169A      3.056421  
    1170A      3.057313  1171A      3.058302  1172A      3.066987  
    1173A      3.072983  1174A      3.073311  1175A      3.074494  
    1176A      3.076003  1177A      3.078282  1178A      3.086525  
    1179A      3.086966  1180A      3.091635  1181A      3.095311  
    1182A      3.098448  1183A      3.118831  1184A      3.123444  
    1185A      3.137972  1186A      3.147330  1187A      3.171933  
    1188A      3.202288  1189A      3.202702  1190A      3.203335  
    1191A      3.209537  1192A      3.212313  1193A      3.340427  
    1194A      3.341145  1195A      3.361720  1196A      3.407260  
    1197A      3.408206  1198A      3.472942  1199A      3.501901  
    1200A      3.503116  1201A      3.509452  1202A      3.546341  
    1203A      3.552288  1204A      3.554011  1205A      3.584444  
    1206A      3.590646  1207A      3.602196  1208A      3.706728  
    1209A      3.709523  1210A      3.711588  1211A      3.795741  
    1212A      3.796706  1213A      3.837885  1214A      3.838238  
    1215A      3.900686  1216A      3.931925  1217A      3.977419  
    1218A      3.985628  1219A      4.044916  

    Final Occupation by Irrep:
              A 
    DOCC [   197 ]
    NA   [   197 ]
    NB   [   197 ]

  @DF-RHF Final Energy: -2359.21337429978121

   => Energetics <=

    Nuclear Repulsion Energy =           8260.0364825894594105
    One-Electron Energy =              -19619.9338591909399838
    Two-Electron Energy =                9000.6840023016993655
    Total Energy =                      -2359.2133742997812078

Computation Completed


Properties will be evaluated at   0.000000,   0.000000,   0.000000 [a0]

Properties computed using the SCF density matrix


 Multipole Moments:

 ------------------------------------------------------------------------------------
     Multipole            Electronic (a.u.)      Nuclear  (a.u.)        Total (a.u.)
 ------------------------------------------------------------------------------------

 L = 1.  Multiply by 2.5417464519 to convert [e a0] to [Debye]
 Dipole X            :         -0.0022964            0.0006313           -0.0016651
 Dipole Y            :         -0.0524335            0.0560211            0.0035876
 Dipole Z            :         16.1748141          -21.5702647           -5.3954506
 Magnitude           :                                                    5.3954520

 ------------------------------------------------------------------------------------

*** tstop() called on n2cn0255 at Sat Feb 10 12:58:51 2024
Module time:
	user time   =    5882.76 seconds =      98.05 minutes
	system time =     225.65 seconds =       3.76 minutes
	total time  =        481 seconds =       8.02 minutes
Total time:
	user time   =    5882.76 seconds =      98.05 minutes
	system time =     225.65 seconds =       3.76 minutes
	total time  =        481 seconds =       8.02 minutes

  //>>>>>>>>>>>>>>>>>>>>>>>>>>>>>>>>>>>//
  //            Monomer A HF           //
  //<<<<<<<<<<<<<<<<<<<<<<<<<<<<<<<<<<<//

   => Libint2 <=

    Primary   basis highest AM E, G, H:  5, 4, 3
    Auxiliary basis highest AM E, G, H:  6, 5, 4
    Onebody   basis highest AM E, G, H:  6, 5, 4
    Solid Harmonics ordering:            gaussian

*** tstart() called on n2cn0255
*** at Sat Feb 10 12:58:51 2024

   => Loading Basis Set <=

    Name: JUN-CC-PVDZ
    Role: ORBITAL
    Keyword: BASIS
    atoms 1-2, 4-5, 10, 17-70 entry C          line   164 file /opt/software/pc2/EB-SW/software/PSI4/1.9-foss-2022a/share/psi4/basis/jun-cc-pvdz.gbs 
    atoms 3, 6                entry N          line   198 file /opt/software/pc2/EB-SW/software/PSI4/1.9-foss-2022a/share/psi4/basis/jun-cc-pvdz.gbs 
    atoms 7-9, 11-16, 71-88   entry H          line    36 file /opt/software/pc2/EB-SW/software/PSI4/1.9-foss-2022a/share/psi4/basis/jun-cc-pvdz.gbs 


         ---------------------------------------------------------
                                   SCF
               by Justin Turney, Rob Parrish, Andy Simmonett
                          and Daniel G. A. Smith
                              RHF Reference
                       16 Threads,  45776 MiB Core
         ---------------------------------------------------------

  ==> Geometry <==

    Molecular point group: c1
    Full point group: C1

    Geometry (in Angstrom), charge = 1, multiplicity = 1:

       Center              X                  Y                   Z               Mass       
    ------------   -----------------  -----------------  -----------------  -----------------
         C            0.680066520158    -0.008042372515    -5.143558880763    12.000000000000
         C           -0.680504479842    -0.006014372515    -5.143174880763    12.000000000000
         N           -1.085635479842    -0.005016372515    -3.824850880763    14.003074004430
         C            0.000107520158    -0.001740372515    -3.043449880763    12.000000000000
         C           -2.477365479842     0.044389627485    -3.356871880763    12.000000000000
         N            1.085221520158    -0.005016372515    -3.824850880763    14.003074004430
         H            1.385145520158    -0.015870372515    -5.960997880763     1.007825032230
         H           -1.385302479842    -0.006204372515    -5.960843880763     1.007825032230
         H           -0.000009479842     0.000006627485    -1.962360880763     1.007825032230
         C            2.478116520158    -0.021908372515    -3.359752880763    12.000000000000
         H            2.490591520158     0.005436627485    -2.269499880763     1.007825032230
         H            2.967027520158    -0.935354372515    -3.706928880763     1.007825032230
         H            3.001427520158     0.853574627485    -3.751224880763     1.007825032230
         H           -2.857359479842     1.066460627485    -3.436830880763     1.007825032230
         H           -3.082679479842    -0.625694372515    -3.969935880763     1.007825032230
         H           -2.518128479842    -0.282594372515    -2.316923880763     1.007825032230
      Gh(C)           1.225311895423     0.707538288405     0.578507746521    12.000000000000
      Gh(C)           1.225323856051    -0.707538895085     0.566176936951    12.000000000000
      Gh(C)          -0.000006153932     1.414965913575     0.565643313430    12.000000000000
      Gh(C)           2.456448753949     1.418327886663     0.581394603921    12.000000000000
      Gh(C)           0.000010827279    -1.414976499150     0.575842870754    12.000000000000
      Gh(C)          -1.225300948908     0.707545373469     0.580759266844    12.000000000000
      Gh(C)           2.456437755320    -1.418323304396     0.563931780094    12.000000000000
      Gh(C)          -0.000001332978     2.836801030766     0.563239763296    12.000000000000
      Gh(C)           3.681826697470     0.709317955486     0.564280569892    12.000000000000
      Gh(C)           2.455120048865     2.834223660974     0.564178012931    12.000000000000
      Gh(C)           3.681821105219    -0.709333839944     0.580353053910    12.000000000000
      Gh(C)          -1.225313598688    -0.707527516059     0.567249698378    12.000000000000
      Gh(C)           1.226699581202     3.543469483479     0.580537085841    12.000000000000
      Gh(C)           0.000004784858    -2.836782139751     0.580691038376    12.000000000000
      Gh(C)          -2.456436032848     1.418316917770     0.580794662689    12.000000000000
      Gh(C)           2.455123417779    -2.834230029103     0.580201145543    12.000000000000
      Gh(C)          -1.226714364589     3.543469063235     0.580640419060    12.000000000000
      Gh(C)           4.914517295202     1.427172871975     0.570761252921    12.000000000000
      Gh(C)           3.693150191476     3.542795292030     0.570811052558    12.000000000000
      Gh(C)          -2.456437600068    -1.418313281354     0.563906741969    12.000000000000
      Gh(C)           1.226704841943    -3.543474242421     0.564566955091    12.000000000000
      Gh(C)          -2.455125398508     2.834216662119     0.564184389277    12.000000000000
      Gh(C)           4.914524380782    -1.427186910459     0.573733995656    12.000000000000
      Gh(C)           1.221424613699     4.970134064745     0.573872429915    12.000000000000
      Gh(C)           4.893008229321     2.825187999512     0.571977921280    12.000000000000
      Gh(C)          -1.226697008489    -3.543470997592     0.564834159501    12.000000000000
      Gh(C)          -3.681818976526     0.709324966217     0.564293250372    12.000000000000
      Gh(C)           3.693147101150    -3.542801341905     0.573851886217    12.000000000000
      Gh(C)          -1.221432251994     4.970128297348     0.574055925288    12.000000000000
      Gh(C)           6.134770972926     0.680547946591     0.571531027471    12.000000000000
      Gh(C)           3.656788880610     4.972953243053     0.571719690340    12.000000000000
      Gh(C)          -2.455126907733    -2.834215093576     0.579956787744    12.000000000000
      Gh(C)          -3.681819179061    -0.709325703983     0.580470675489    12.000000000000
      Gh(C)           4.893012617914    -2.825200106147     0.572589073175    12.000000000000
      Gh(C)          -0.000001073113     5.650447365518     0.572824616581    12.000000000000
      Gh(C)           6.134775112332    -0.680554854590     0.572796347987    12.000000000000
      Gh(C)           2.478131482856     5.653576750817     0.573008469990    12.000000000000
      Gh(C)           1.221422404738    -4.970127055448     0.571072932893    12.000000000000
      Gh(C)          -3.693162383965     3.542796953677     0.570976560017    12.000000000000
      Gh(C)          -1.221428520945    -4.970118304111     0.570960171060    12.000000000000
      Gh(C)          -4.914521807942     1.427175446480     0.570838197929    12.000000000000
      Gh(C)           3.656787019679    -4.972955226754     0.573170190874    12.000000000000
      Gh(C)          -2.478138530106     5.653574422014     0.573292994998    12.000000000000
      Gh(C)          -3.693141738564    -3.542790219494     0.573735760061    12.000000000000
      Gh(C)          -4.914512483053    -1.427181000542     0.573768692829    12.000000000000
      Gh(C)          -0.000006008926    -5.650438287528     0.572429112460    12.000000000000
      Gh(C)          -4.893020484101     2.825188598404     0.571967839420    12.000000000000
      Gh(C)           2.478125993298    -5.653573544403     0.572079590082    12.000000000000
      Gh(C)          -3.656798710258     4.972956181527     0.571896370715    12.000000000000
      Gh(C)          -4.892999478856    -2.825191767575     0.572435037478    12.000000000000
      Gh(C)          -2.478128498083    -5.653566170521     0.571804402435    12.000000000000
      Gh(C)          -6.134770503331     0.680548765741     0.571505475769    12.000000000000
      Gh(C)          -3.656788833189    -4.972944023485     0.572955903057    12.000000000000
      Gh(C)          -6.134765042913    -0.680553915997     0.572775872192    12.000000000000
      Gh(H)           5.835288495816     3.369275894439     0.576337246943     1.007825032230
      Gh(H)           7.073859172747     1.228217248385     0.571992670864     1.007825032230
      Gh(H)           4.600663264174     5.512380801938     0.572224891092     1.007825032230
      Gh(H)           5.835283387305    -3.369306057244     0.568134605861     1.007825032230
      Gh(H)          -0.000012151306     6.738530673622     0.568475371573     1.007825032230
      Gh(H)           7.073861171831    -1.228226943259     0.572287609893     1.007825032230
      Gh(H)           2.473313731799     6.740684290880     0.572541749059     1.007825032230
      Gh(H)           4.600668491381    -5.512376129691     0.572760193706     1.007825032230
      Gh(H)          -2.473318680537     6.740681719092     0.572843095684     1.007825032230
      Gh(H)          -0.000010268228    -6.738528176967     0.576958797445     1.007825032230
      Gh(H)          -5.835301914343     3.369270949781     0.576473269091     1.007825032230
      Gh(H)           2.473307923831    -6.740685374944     0.572649920507     1.007825032230
      Gh(H)          -4.600674841208     5.512378026089     0.572390219416     1.007825032230
      Gh(H)          -5.835279506835    -3.369288964294     0.567855299980     1.007825032230
      Gh(H)          -2.473300347440    -6.740679078655     0.572200603962     1.007825032230
      Gh(H)          -7.073857766768     1.228220472326     0.571908679383     1.007825032230
      Gh(H)          -4.600673786085    -5.512362670301     0.572587885683     1.007825032230
      Gh(H)          -7.073856934409    -1.228220632492     0.572192753426     1.007825032230

  Running in c1 symmetry.

  Rotational constants: A =      0.00179  B =      0.00175  C =      0.00109 [cm^-1]
  Rotational constants: A =     53.81000  B =     52.47298  C =     32.71081 [MHz]
  Nuclear repulsion =  306.774908447733083

  Charge       = 1
  Multiplicity = 1
  Electrons    = 52
  Nalpha       = 26
  Nbeta        = 26

  ==> Algorithm <==

  SCF Algorithm Type is DF.
  DIIS enabled.
  MOM disabled.
  Fractional occupation disabled.
  Guess Type is SAD.
  Energy threshold   = 1.00e-08
  Density threshold  = 1.00e-08
  Integral threshold = 1.00e-12

  ==> Primary Basis <==

  Basis Set: JUN-CC-PVDZ
    Blend: JUN-CC-PVDZ
    Number of shells: 569
    Number of basis functions: 1233
    Number of Cartesian functions: 1294
    Spherical Harmonics?: true
    Max angular momentum: 2

   => Loading Basis Set <=

    Name: (JUN-CC-PVDZ AUX)
    Role: JKFIT
    Keyword: DF_BASIS_SCF
    atoms 1-2, 4-5, 10, 17-70 entry C          line   146 file /opt/software/pc2/EB-SW/software/PSI4/1.9-foss-2022a/share/psi4/basis/jun-cc-pvdz-jkfit.gbs 
    atoms 3, 6                entry N          line   202 file /opt/software/pc2/EB-SW/software/PSI4/1.9-foss-2022a/share/psi4/basis/jun-cc-pvdz-jkfit.gbs 
    atoms 7-9, 11-16, 71-88   entry H          line    70 file /opt/software/pc2/EB-SW/software/PSI4/1.9-foss-2022a/share/psi4/basis/jun-cc-pvdz-jkfit.gbs 

  ==> Integral Setup <==

  ==> DiskDFJK: Density-Fitted J/K Matrices <==

    J tasked:                  Yes
    K tasked:                  Yes
    wK tasked:                  No
    OpenMP threads:             16
    Integrals threads:          16
    Memory [MiB]:            34332
    Algorithm:                Core
    Integral Cache:           LOAD
    Schwarz Cutoff:          1E-12
    Fitting Condition:       1E-10

   => Auxiliary Basis Set <=

  Basis Set: (JUN-CC-PVDZ AUX)
    Blend: JUN-CC-PVDZ-JKFIT
    Number of shells: 1890
    Number of basis functions: 5440
    Number of Cartesian functions: 6226
    Spherical Harmonics?: true
    Max angular momentum: 3

  Minimum eigenvalue in the overlap matrix is 6.3497024000E-10.
  Reciprocal condition number of the overlap matrix is 2.6594749735E-11.
    Using canonical orthogonalization.
  Overall, 14 of 1233 possible MOs eliminated.


  ==> Pre-Iterations <==

  SCF Guess: Superposition of Atomic Densities via on-the-fly atomic UHF (no occupation information).

   -------------------------
    Irrep   Nso     Nmo    
   -------------------------
     A       1233    1219 
   -------------------------
    Total    1233    1219
   -------------------------

  ==> Iterations <==

                           Total Energy        Delta E     RMS |[F,P]|

   @DF-RHF iter SAD:  -303.36536216202285   -3.03365e+02   0.00000e+00 
   @DF-RHF iter   1:  -303.17004948028506    1.95313e-01   3.44651e-04 ADIIS/DIIS
   @DF-RHF iter   2:  -303.28449368945974   -1.14444e-01   1.16044e-04 ADIIS/DIIS
   @DF-RHF iter   3:  -303.29599614390713   -1.15025e-02   4.54815e-05 DIIS
   @DF-RHF iter   4:  -303.29791674773935   -1.92060e-03   9.95855e-06 DIIS
   @DF-RHF iter   5:  -303.29802435661179   -1.07609e-04   2.43510e-06 DIIS
   @DF-RHF iter   6:  -303.29803383875827   -9.48215e-06   6.57591e-07 DIIS
   @DF-RHF iter   7:  -303.29803493120630   -1.09245e-06   3.35286e-07 DIIS
   @DF-RHF iter   8:  -303.29803519041417   -2.59208e-07   1.34952e-07 DIIS
   @DF-RHF iter   9:  -303.29803524015449   -4.97403e-08   3.37415e-08 DIIS
   @DF-RHF iter  10:  -303.29803524298120   -2.82671e-09   1.25811e-08 DIIS
   @DF-RHF iter  11:  -303.29803524322352   -2.42323e-10   2.95920e-09 DIIS
  Energy and wave function converged.


  ==> Post-Iterations <==

    Orbital Energies [Eh]
    ---------------------

    Doubly Occupied:                                                      

       1A    -15.834525     2A    -15.833988     3A    -11.529333  
       4A    -11.459694     5A    -11.458138     6A    -11.449614  
       7A    -11.449498     8A     -1.577853     9A     -1.433476  
      10A     -1.238327    11A     -1.189063    12A     -1.118674  
      13A     -1.022212    14A     -0.996647    15A     -0.916781  
      16A     -0.850275    17A     -0.815987    18A     -0.812881  
      19A     -0.789850    20A     -0.786055    21A     -0.781487  
      22A     -0.729539    23A     -0.725629    24A     -0.717022  
      25A     -0.596018    26A     -0.523613  

    Virtual:                                                              

      27A     -0.079528    28A     -0.073321    29A     -0.062178  
      30A     -0.054296    31A     -0.042436    32A     -0.039418  
      33A     -0.039277    34A     -0.038771    35A     -0.037618  
      36A     -0.027677    37A     -0.026855    38A     -0.019999  
      39A     -0.018470    40A     -0.013983    41A     -0.013376  
      42A     -0.012538    43A     -0.011064    44A     -0.007343  
      45A     -0.006285    46A      0.001274    47A      0.004103  
      48A      0.005127    49A      0.008180    50A      0.008743  
      51A      0.011329    52A      0.012769    53A      0.015206  
      54A      0.019606    55A      0.020858    56A      0.022722  
      57A      0.023781    58A      0.029346    59A      0.030689  
      60A      0.031929    61A      0.039202    62A      0.040179  
      63A      0.041123    64A      0.042437    65A      0.043135  
      66A      0.044784    67A      0.045301    68A      0.052316  
      69A      0.054216    70A      0.054320    71A      0.056521  
      72A      0.057977    73A      0.059585    74A      0.061113  
      75A      0.061573    76A      0.061966    77A      0.064032  
      78A      0.064311    79A      0.066073    80A      0.070255  
      81A      0.070442    82A      0.075672    83A      0.076578  
      84A      0.078660    85A      0.079203    86A      0.079487  
      87A      0.081476    88A      0.082157    89A      0.084708  
      90A      0.086944    91A      0.089202    92A      0.089838  
      93A      0.090554    94A      0.093588    95A      0.094137  
      96A      0.096336    97A      0.099729    98A      0.102948  
      99A      0.103656   100A      0.104174   101A      0.107126  
     102A      0.108642   103A      0.108951   104A      0.111013  
     105A      0.112329   106A      0.112652   107A      0.113356  
     108A      0.115115   109A      0.116234   110A      0.119294  
     111A      0.119712   112A      0.120302   113A      0.122243  
     114A      0.123497   115A      0.123991   116A      0.124667  
     117A      0.128123   118A      0.128846   119A      0.129604  
     120A      0.133755   121A      0.136732   122A      0.138155  
     123A      0.139347   124A      0.141083   125A      0.142564  
     126A      0.143187   127A      0.146456   128A      0.147961  
     129A      0.149036   130A      0.151080   131A      0.151888  
     132A      0.154477   133A      0.155402   134A      0.157792  
     135A      0.158101   136A      0.158998   137A      0.163042  
     138A      0.163967   139A      0.165606   140A      0.167084  
     141A      0.168599   142A      0.169947   143A      0.170872  
     144A      0.171523   145A      0.172132   146A      0.175315  
     147A      0.175755   148A      0.177335   149A      0.178868  
     150A      0.179273   151A      0.180543   152A      0.181158  
     153A      0.181780   154A      0.184890   155A      0.185261  
     156A      0.187008   157A      0.188166   158A      0.189001  
     159A      0.197170   160A      0.197952   161A      0.199300  
     162A      0.203433   163A      0.204014   164A      0.204696  
     165A      0.205694   166A      0.207937   167A      0.211706  
     168A      0.212206   169A      0.212864   170A      0.213797  
     171A      0.214477   172A      0.216605   173A      0.217110  
     174A      0.219927   175A      0.221981   176A      0.222733  
     177A      0.223003   178A      0.223661   179A      0.226416  
     180A      0.228531   181A      0.231864   182A      0.234193  
     183A      0.234896   184A      0.235079   185A      0.237442  
     186A      0.238008   187A      0.238517   188A      0.241001  
     189A      0.245441   190A      0.246890   191A      0.247956  
     192A      0.253940   193A      0.256812   194A      0.258487  
     195A      0.260535   196A      0.263460   197A      0.264277  
     198A      0.264670   199A      0.264783   200A      0.266529  
     201A      0.268693   202A      0.270439   203A      0.271629  
     204A      0.273749   205A      0.276921   206A      0.278977  
     207A      0.280144   208A      0.280712   209A      0.281709  
     210A      0.283328   211A      0.284637   212A      0.285819  
     213A      0.288869   214A      0.289914   215A      0.290693  
     216A      0.291483   217A      0.292819   218A      0.293913  
     219A      0.297660   220A      0.300447   221A      0.302500  
     222A      0.305437   223A      0.308879   224A      0.311094  
     225A      0.313738   226A      0.314408   227A      0.316325  
     228A      0.317794   229A      0.319054   230A      0.323606  
     231A      0.325292   232A      0.326070   233A      0.330062  
     234A      0.333676   235A      0.335006   236A      0.339228  
     237A      0.339767   238A      0.342518   239A      0.346197  
     240A      0.348455   241A      0.352569   242A      0.352858  
     243A      0.353285   244A      0.355669   245A      0.358864  
     246A      0.359216   247A      0.362198   248A      0.364930  
     249A      0.365511   250A      0.367775   251A      0.367995  
     252A      0.372068   253A      0.374903   254A      0.375943  
     255A      0.377532   256A      0.379280   257A      0.381328  
     258A      0.382960   259A      0.383741   260A      0.385049  
     261A      0.387579   262A      0.389859   263A      0.390687  
     264A      0.393265   265A      0.394981   266A      0.395672  
     267A      0.396455   268A      0.396777   269A      0.399298  
     270A      0.401896   271A      0.402792   272A      0.404383  
     273A      0.405734   274A      0.406996   275A      0.407542  
     276A      0.413712   277A      0.415994   278A      0.416776  
     279A      0.420028   280A      0.421920   281A      0.423792  
     282A      0.425564   283A      0.425797   284A      0.428197  
     285A      0.433581   286A      0.438004   287A      0.438016  
     288A      0.440420   289A      0.443132   290A      0.445508  
     291A      0.445994   292A      0.447301   293A      0.451814  
     294A      0.452939   295A      0.453730   296A      0.457985  
     297A      0.458477   298A      0.459298   299A      0.460236  
     300A      0.462541   301A      0.464132   302A      0.467746  
     303A      0.468640   304A      0.471814   305A      0.473142  
     306A      0.473917   307A      0.479118   308A      0.479532  
     309A      0.486714   310A      0.489197   311A      0.492015  
     312A      0.496216   313A      0.496525   314A      0.498951  
     315A      0.500677   316A      0.502879   317A      0.503307  
     318A      0.504326   319A      0.507901   320A      0.508816  
     321A      0.511385   322A      0.513313   323A      0.514235  
     324A      0.516445   325A      0.522393   326A      0.523652  
     327A      0.524428   328A      0.525975   329A      0.527635  
     330A      0.528014   331A      0.532825   332A      0.535147  
     333A      0.539365   334A      0.542163   335A      0.543003  
     336A      0.547333   337A      0.549601   338A      0.552926  
     339A      0.553863   340A      0.555000   341A      0.555997  
     342A      0.556623   343A      0.557522   344A      0.560568  
     345A      0.564529   346A      0.568492   347A      0.569921  
     348A      0.570943   349A      0.571800   350A      0.573168  
     351A      0.579331   352A      0.589147   353A      0.590562  
     354A      0.593857   355A      0.597202   356A      0.599549  
     357A      0.601969   358A      0.603097   359A      0.603431  
     360A      0.604530   361A      0.606258   362A      0.609698  
     363A      0.611989   364A      0.616445   365A      0.618082  
     366A      0.618659   367A      0.620177   368A      0.621422  
     369A      0.624064   370A      0.625468   371A      0.626520  
     372A      0.630128   373A      0.636177   374A      0.640072  
     375A      0.645741   376A      0.647010   377A      0.649615  
     378A      0.651349   379A      0.663199   380A      0.665833  
     381A      0.675000   382A      0.675248   383A      0.675780  
     384A      0.679958   385A      0.681861   386A      0.683297  
     387A      0.684019   388A      0.684288   389A      0.687509  
     390A      0.687689   391A      0.689248   392A      0.690582  
     393A      0.692317   394A      0.694096   395A      0.695804  
     396A      0.697303   397A      0.700233   398A      0.703744  
     399A      0.704098   400A      0.714771   401A      0.715077  
     402A      0.715737   403A      0.717794   404A      0.721410  
     405A      0.724328   406A      0.727821   407A      0.729561  
     408A      0.731363   409A      0.742299   410A      0.747503  
     411A      0.749566   412A      0.759005   413A      0.763528  
     414A      0.764120   415A      0.769851   416A      0.772050  
     417A      0.772773   418A      0.773616   419A      0.774397  
     420A      0.775030   421A      0.780318   422A      0.787011  
     423A      0.790236   424A      0.795370   425A      0.797276  
     426A      0.801395   427A      0.804239   428A      0.805685  
     429A      0.809238   430A      0.812835   431A      0.815451  
     432A      0.818001   433A      0.819147   434A      0.822050  
     435A      0.827587   436A      0.829953   437A      0.839126  
     438A      0.851660   439A      0.855268   440A      0.857879  
     441A      0.866873   442A      0.870814   443A      0.882677  
     444A      0.883253   445A      0.889243   446A      0.889505  
     447A      0.890842   448A      0.893063   449A      0.899286  
     450A      0.903590   451A      0.910581   452A      0.917478  
     453A      0.921810   454A      0.926434   455A      0.926728  
     456A      0.928133   457A      0.935194   458A      0.941366  
     459A      0.946111   460A      0.949356   461A      0.952835  
     462A      0.955135   463A      0.980061   464A      0.981804  
     465A      0.984588   466A      0.985437   467A      0.988273  
     468A      0.988426   469A      1.000045   470A      1.018915  
     471A      1.023280   472A      1.024703   473A      1.026531  
     474A      1.027629   475A      1.035213   476A      1.043845  
     477A      1.067775   478A      1.069052   479A      1.076546  
     480A      1.077601   481A      1.079697   482A      1.081379  
     483A      1.083075   484A      1.094547   485A      1.104966  
     486A      1.105664   487A      1.105721   488A      1.108375  
     489A      1.115959   490A      1.117198   491A      1.138494  
     492A      1.138693   493A      1.139732   494A      1.143588  
     495A      1.145575   496A      1.151796   497A      1.153573  
     498A      1.167746   499A      1.174022   500A      1.184442  
     501A      1.212261   502A      1.214942   503A      1.216462  
     504A      1.223507   505A      1.224548   506A      1.225296  
     507A      1.240227   508A      1.243014   509A      1.243969  
     510A      1.244514   511A      1.251733   512A      1.286297  
     513A      1.287670   514A      1.292895   515A      1.357387  
     516A      1.358570   517A      1.359673   518A      1.367982  
     519A      1.375578   520A      1.376824   521A      1.377669  
     522A      1.381274   523A      1.382169   524A      1.393133  
     525A      1.401171   526A      1.402013   527A      1.447157  
     528A      1.456638   529A      1.460285   530A      1.460902  
     531A      1.465231   532A      1.472026   533A      1.472507  
     534A      1.475181   535A      1.480790   536A      1.492519  
     537A      1.498039   538A      1.506165   539A      1.520569  
     540A      1.537231   541A      1.550553   542A      1.556767  
     543A      1.560390   544A      1.568515   545A      1.569963  
     546A      1.573951   547A      1.576608   548A      1.583297  
     549A      1.595877   550A      1.599963   551A      1.603860  
     552A      1.610693   553A      1.618281   554A      1.628607  
     555A      1.636749   556A      1.663274   557A      1.667965  
     558A      1.668652   559A      1.670776   560A      1.671181  
     561A      1.676239   562A      1.680411   563A      1.681635  
     564A      1.687540   565A      1.687957   566A      1.689829  
     567A      1.693819   568A      1.696619   569A      1.700711  
     570A      1.711106   571A      1.711774   572A      1.712881  
     573A      1.716554   574A      1.721902   575A      1.726151  
     576A      1.730405   577A      1.731576   578A      1.740388  
     579A      1.743745   580A      1.746414   581A      1.747872  
     582A      1.749268   583A      1.750612   584A      1.751279  
     585A      1.752671   586A      1.757494   587A      1.767021  
     588A      1.767845   589A      1.770088   590A      1.773631  
     591A      1.777493   592A      1.779096   593A      1.779392  
     594A      1.783005   595A      1.788062   596A      1.789171  
     597A      1.795546   598A      1.801249   599A      1.803915  
     600A      1.805059   601A      1.806179   602A      1.806604  
     603A      1.810731   604A      1.814637   605A      1.816053  
     606A      1.821596   607A      1.822747   608A      1.823873  
     609A      1.824391   610A      1.825648   611A      1.830592  
[...]
     805A      1.697633   806A      1.698291   807A      1.701372  
     808A      1.703546   809A      1.704972   810A      1.705861  
     811A      1.717392   812A      1.720127   813A      1.739691  
     814A      1.742141   815A      1.748743   816A      1.752204  
     817A      1.758509   818A      1.760612   819A      1.760850  
     820A      1.763699   821A      1.767688   822A      1.776805  
     823A      1.778265   824A      1.781928   825A      1.793003  
     826A      1.794565   827A      1.801496   828A      1.814031  
     829A      1.817962   830A      1.819321   831A      1.820313  
     832A      1.825212   833A      1.825804   834A      1.832959  
     835A      1.833399   836A      1.837143   837A      1.842912  
     838A      1.845396   839A      1.852105   840A      1.863152  
     841A      1.865094   842A      1.865331   843A      1.867577  
     844A      1.869347   845A      1.870232   846A      1.873628  
     847A      1.878793   848A      1.879322   849A      1.894273  
     850A      1.894529   851A      1.900587   852A      1.902146  
     853A      1.902957   854A      1.905373   855A      1.908195  
     856A      1.911687   857A      1.913923   858A      1.915464  
     859A      1.916685   860A      1.918163   861A      1.918937  
     862A      1.919844   863A      1.922786   864A      1.923482  
     865A      1.929420   866A      1.934635   867A      1.945273  
     868A      1.945874   869A      1.946053   870A      1.947491  
     871A      1.948457   872A      1.953282   873A      1.954813  
     874A      1.955973   875A      1.958338   876A      1.959282  
     877A      1.960722   878A      1.968699   879A      1.971080  
     880A      1.974054   881A      1.984429   882A      1.985097  
     883A      1.986997   884A      1.997862   885A      1.999565  
     886A      2.001148   887A      2.008557   888A      2.009260  
     889A      2.010477   890A      2.015892   891A      2.016643  
     892A      2.020839   893A      2.026209   894A      2.030758  
     895A      2.031173   896A      2.032204   897A      2.033444  
     898A      2.034708   899A      2.036503   900A      2.043904  
     901A      2.050614   902A      2.053458   903A      2.053913  
     904A      2.058833   905A      2.062837   906A      2.063125  
     907A      2.065247   908A      2.067274   909A      2.072087  
     910A      2.075254   911A      2.078224   912A      2.078741  
     913A      2.079583   914A      2.081018   915A      2.083236  
     916A      2.086140   917A      2.087996   918A      2.092585  
     919A      2.096488   920A      2.096805   921A      2.100881  
     922A      2.101311   923A      2.103209   924A      2.104667  
     925A      2.104921   926A      2.109111   927A      2.109149  
     928A      2.111100   929A      2.113609   930A      2.115073  
     931A      2.115384   932A      2.119241   933A      2.120289  
     934A      2.120886   935A      2.122285   936A      2.123314  
     937A      2.128236   938A      2.129522   939A      2.129650  
     940A      2.134153   941A      2.135564   942A      2.136516  
     943A      2.137538   944A      2.143666   945A      2.144295  
     946A      2.148982   947A      2.155699   948A      2.158950  
     949A      2.160093   950A      2.162442   951A      2.164114  
     952A      2.166182   953A      2.173027   954A      2.176731  
     955A      2.178689   956A      2.182612   957A      2.183346  
     958A      2.189058   959A      2.191534   960A      2.191728  
     961A      2.193637   962A      2.195516   963A      2.197075  
     964A      2.198496   965A      2.209417   966A      2.218119  
     967A      2.220078   968A      2.221337   969A      2.221451  
     970A      2.226325   971A      2.229757   972A      2.230841  
     973A      2.235585   974A      2.238410   975A      2.242281  
     976A      2.244648   977A      2.246398   978A      2.246868  
     979A      2.247547   980A      2.249911   981A      2.260042  
     982A      2.261494   983A      2.266182   984A      2.270746  
     985A      2.271066   986A      2.273608   987A      2.274781  
     988A      2.280869   989A      2.283750   990A      2.295150  
     991A      2.301255   992A      2.305436   993A      2.309008  
     994A      2.314568   995A      2.318509   996A      2.320061  
     997A      2.329185   998A      2.330418   999A      2.333989  
    1000A      2.336615  1001A      2.341668  1002A      2.349066  
    1003A      2.352506  1004A      2.354236  1005A      2.354516  
    1006A      2.356345  1007A      2.363919  1008A      2.368402  
    1009A      2.369216  1010A      2.380291  1011A      2.381981  
    1012A      2.398205  1013A      2.402879  1014A      2.408200  
    1015A      2.416923  1016A      2.419532  1017A      2.424983  
    1018A      2.425000  1019A      2.425616  1020A      2.436718  
    1021A      2.440392  1022A      2.444181  1023A      2.451806  
    1024A      2.471567  1025A      2.474142  1026A      2.477593  
    1027A      2.482751  1028A      2.486445  1029A      2.487933  
    1030A      2.500464  1031A      2.504403  1032A      2.522782  
    1033A      2.524904  1034A      2.529369  1035A      2.530418  
    1036A      2.540509  1037A      2.547005  1038A      2.548065  
    1039A      2.549804  1040A      2.555226  1041A      2.555332  
    1042A      2.555674  1043A      2.560232  1044A      2.560620  
    1045A      2.565619  1046A      2.570119  1047A      2.573648  
    1048A      2.574007  1049A      2.576326  1050A      2.576728  
    1051A      2.581403  1052A      2.586937  1053A      2.590020  
    1054A      2.591180  1055A      2.594908  1056A      2.599970  
    1057A      2.614982  1058A      2.620819  1059A      2.626181  
    1060A      2.626933  1061A      2.633184  1062A      2.634045  
    1063A      2.642228  1064A      2.643740  1065A      2.646969  
    1066A      2.653251  1067A      2.654847  1068A      2.669126  
    1069A      2.678940  1070A      2.682939  1071A      2.684840  
    1072A      2.688665  1073A      2.695987  1074A      2.699953  
    1075A      2.702507  1076A      2.706749  1077A      2.710268  
    1078A      2.713419  1079A      2.713868  1080A      2.716762  
    1081A      2.718993  1082A      2.719852  1083A      2.723748  
    1084A      2.724823  1085A      2.728978  1086A      2.756543  
    1087A      2.761334  1088A      2.771324  1089A      2.780161  
    1090A      2.781397  1091A      2.787645  1092A      2.794349  
    1093A      2.797598  1094A      2.801049  1095A      2.827340  
    1096A      2.829728  1097A      2.831923  1098A      2.854216  
    1099A      2.856541  1100A      2.858751  1101A      2.859911  
    1102A      2.863125  1103A      2.865231  1104A      2.884196  
    1105A      2.900001  1106A      2.915726  1107A      2.920530  
    1108A      2.923276  1109A      2.927622  1110A      2.928220  
    1111A      2.932949  1112A      2.942046  1113A      2.949698  
    1114A      2.953281  1115A      2.954694  1116A      2.964660  
    1117A      2.968679  1118A      2.990853  1119A      3.011719  
    1120A      3.016769  1121A      3.021918  1122A      3.032154  
    1123A      3.036898  1124A      3.050270  1125A      3.064917  
    1126A      3.065236  1127A      3.071399  1128A      3.077527  
    1129A      3.079854  1130A      3.092784  1131A      3.114685  
    1132A      3.118229  1133A      3.121581  1134A      3.132942  
    1135A      3.136450  1136A      3.138940  1137A      3.143108  
    1138A      3.149367  1139A      3.150247  1140A      3.150729  
    1141A      3.151181  1142A      3.153989  1143A      3.164154  
    1144A      3.165257  1145A      3.169408  1146A      3.172795  
    1147A      3.191174  1148A      3.193153  1149A      3.211708  
    1150A      3.226413  1151A      3.248746  1152A      3.279267  
    1153A      3.279733  1154A      3.281422  1155A      3.287578  
    1156A      3.288515  1157A      3.302278  1158A      3.346262  
    1159A      3.390233  1160A      3.419968  1161A      3.421094  
    1162A      3.450957  1163A      3.478730  1164A      3.489543  
    1165A      3.495182  1166A      3.546813  1167A      3.558032  
    1168A      3.583785  1169A      3.585390  1170A      3.616443  
    1171A      3.630190  1172A      3.631748  1173A      3.638511  
    1174A      3.658852  1175A      3.667053  1176A      3.680079  
    1177A      3.764094  1178A      3.786782  1179A      3.790697  
    1180A      3.793034  1181A      3.831073  1182A      3.871770  
    1183A      3.872016  1184A      3.879052  1185A      3.914587  
    1186A      3.915098  1187A      3.980833  1188A      3.999391  
    1189A      4.011902  1190A      4.063723  1191A      4.073421  
    1192A      4.124265  1193A      4.225663  1194A      4.238677  
    1195A      4.418705  1196A      4.424488  1197A      4.510238  
    1198A      4.784052  1199A      4.848828  1200A      4.859925  
    1201A      4.877608  1202A      4.966151  1203A      5.081733  
    1204A      5.083618  1205A      5.093808  1206A      5.132079  
    1207A      5.197976  1208A      5.411032  1209A      5.439173  
    1210A      5.759795  1211A      5.783823  1212A      6.079064  
    1213A     18.205204  1214A     18.478924  1215A     18.498221  
    1216A     18.589113  1217A     18.852611  1218A     25.354308  
    1219A     25.389437  

    Final Occupation by Irrep:
              A 
    DOCC [   171 ]
    NA   [   171 ]
    NB   [   171 ]

  @DF-RHF Final Energy: -2055.89480470114722

   => Energetics <=

    Nuclear Repulsion Energy =           6452.5568002797781446
    One-Electron Energy =              -15636.5159146373607655
    Two-Electron Energy =                7128.0643096564344887
    Total Energy =                      -2055.8948047011472227

Computation Completed


Properties will be evaluated at   0.000000,   0.000000,   0.000000 [a0]

Properties computed using the SCF density matrix


 Multipole Moments:

 ------------------------------------------------------------------------------------
     Multipole            Electronic (a.u.)      Nuclear  (a.u.)        Total (a.u.)
 ------------------------------------------------------------------------------------

 L = 1.  Multiply by 2.5417464519 to convert [e a0] to [Debye]
 Dipole X            :         -0.0002384           -0.0000085           -0.0002469
 Dipole Y            :         -0.0002441            0.0000167           -0.0002274
 Dipole Z            :       -369.9091410          369.9135436            0.0044026
 Magnitude           :                                                    0.0044154

 ------------------------------------------------------------------------------------

*** tstop() called on n2cn0255 at Sat Feb 10 13:07:37 2024
Module time:
	user time   =    4206.86 seconds =      70.11 minutes
	system time =     135.25 seconds =       2.25 minutes
	total time  =        303 seconds =       5.05 minutes
Total time:
	user time   =   13087.03 seconds =     218.12 minutes
	system time =     410.55 seconds =       6.84 minutes
	total time  =       1007 seconds =      16.78 minutes
  Constructing Basis Sets for SAPT...

   => Loading Basis Set <=

    Name: (JUN-CC-PVDZ AUX)
    Role: RIFIT
    Keyword: DF_BASIS_SAPT
    atoms 1-2, 4-5, 10, 17-70 entry C          line   100 file /opt/software/pc2/EB-SW/software/PSI4/1.9-foss-2022a/share/psi4/basis/jun-cc-pvdz-ri.gbs 
    atoms 3, 6                entry N          line   144 file /opt/software/pc2/EB-SW/software/PSI4/1.9-foss-2022a/share/psi4/basis/jun-cc-pvdz-ri.gbs 
    atoms 7-9, 11-16, 71-88   entry H          line    30 file /opt/software/pc2/EB-SW/software/PSI4/1.9-foss-2022a/share/psi4/basis/jun-cc-pvdz-ri.gbs 

   => Loading Basis Set <=

    Name: (JUN-CC-PVDZ AUX)
    Role: JKFIT
    Keyword: DF_BASIS_ELST
    atoms 1-2, 4-5, 10, 17-70 entry C          line   146 file /opt/software/pc2/EB-SW/software/PSI4/1.9-foss-2022a/share/psi4/basis/jun-cc-pvdz-jkfit.gbs 
    atoms 3, 6                entry N          line   202 file /opt/software/pc2/EB-SW/software/PSI4/1.9-foss-2022a/share/psi4/basis/jun-cc-pvdz-jkfit.gbs 
    atoms 7-9, 11-16, 71-88   entry H          line    70 file /opt/software/pc2/EB-SW/software/PSI4/1.9-foss-2022a/share/psi4/basis/jun-cc-pvdz-jkfit.gbs 


  //>>>>>>>>>>>>>>>>>>>>>>>>>>>>>>>>>>>//
  //               SSAPT0              //
  //<<<<<<<<<<<<<<<<<<<<<<<<<<<<<<<<<<<//


*** tstart() called on n2cn0255
*** at Sat Feb 10 13:07:38 2024

        SAPT0  
    Ed Hohenstein
     6 June 2009

      Orbital Information
  --------------------------
    NSO        =      1233
    NMO        =      1219
    NRI        =      4343
    NRI (Elst) =      5440
    NOCC A     =        26
    NOCC B     =       171
    FOCC A     =         7
    FOCC B     =        54
    NVIR A     =      1193
    NVIR B     =      1048

    Elst10,r            =    -0.014269109715 [Eh]
    Exch10              =     0.006587128648 [Eh]
    Exch10 (S^2)        =     0.006572944461 [Eh]

    Iter     Energy [mEh]          dE [mEh]         Residual      Time [s]
       1      -0.39961341       0.399613414       3.160755312            21
       2      -0.44487912       0.045265706       1.177637323            37
       3      -0.46883596       0.023956841       0.143380159            51
       4      -0.46833267      -0.000503294       0.058500031            65
       5      -0.46808352      -0.000249145       0.021170465            79
       6      -0.46818599       0.000102473       0.007536267            94
       7      -0.46819986       0.000013864       0.002518155           109
       8      -0.46819437      -0.000005487       0.000775134           125
       9      -0.46819194      -0.000002429       0.000211907           141
      10      -0.46819215       0.000000210       0.000073122           159
      11      -0.46819241       0.000000258       0.000020916           174
      12      -0.46819241      -0.000000002       0.000007194           191
      13      -0.46819239      -0.000000020       0.000001701           207
      14      -0.46819239      -0.000000000       0.000000604           223

    CHF Iterations converged


    Iter     Energy [mEh]          dE [mEh]         Residual      Time [s]
       1     -16.66606617      16.666066170      66.768361106            21
       2     -11.59570754      -5.070358629       9.159367143            39
       3     -11.68340070       0.087693161       3.491353695            57
       4     -12.00502198       0.321621283       0.776941012            75
       5     -12.02099183       0.015969847       0.248921378            95
       6     -12.01250353      -0.008488298       0.122638702           111
       7     -12.01050747      -0.001996062       0.050245662           126
       8     -12.01153570       0.001028232       0.025332763           140
       9     -12.01193636       0.000400655       0.009614693           154
      10     -12.01183861      -0.000097745       0.006740780           168
      11     -12.01175847      -0.000080139       0.003774698           182
      12     -12.01177808       0.000019602       0.001903509           197
      13     -12.01180676       0.000028687       0.000928992           211
      14     -12.01180053      -0.000006235       0.000616859           226
      15     -12.01179327      -0.000007263       0.000288513           240
      16     -12.01179460       0.000001330       0.000147790           254
      17     -12.01179668       0.000002083       0.000053976           269
      18     -12.01179664      -0.000000043       0.000025551           282
      19     -12.01179635      -0.000000290       0.000015226           296
      20     -12.01179627      -0.000000071       0.000006718           312
      21     -12.01179637       0.000000096       0.000003025           326
      22     -12.01179637       0.000000004       0.000001549           339
      23     -12.01179636      -0.000000014       0.000000943           353

    CHF Iterations converged

    Ind20,r (A<-B)      =    -0.000468192388 [Eh]
    Ind20,r (B<-A)      =    -0.012011796361 [Eh]
    Ind20,r             =    -0.012479988748 [Eh]
    Exch-Ind20,r (A<-B) =     0.000412158181 [Eh]
    Exch-Ind20,r (B<-A) =     0.001008941758 [Eh]
    Exch-Ind20,r        =     0.001421099939 [Eh]
    Disp20              =    -0.017117791083 [Eh]
    Disp20 (SS)         =    -0.008558895541 [Eh]
    Disp20 (OS)         =    -0.008558895541 [Eh]
    Exch-Disp20         =     0.000661859877 [Eh]
    Exch-Disp20 (SS)    =     0.000401086508 [Eh]
    Exch-Disp20 (OS)    =     0.000260773369 [Eh]

    SAPT Results 
  --------------------------------------------------------------------------------------------------------
    Electrostatics                -14.26910971 [mEh]      -8.95400153 [kcal/mol]     -37.46354240 [kJ/mol]
      Elst10,r                    -14.26910971 [mEh]      -8.95400153 [kcal/mol]     -37.46354240 [kJ/mol]

    Exchange                        6.58712865 [mEh]       4.13348563 [kcal/mol]      17.29450388 [kJ/mol]
      Exch10                        6.58712865 [mEh]       4.13348563 [kcal/mol]      17.29450388 [kJ/mol]
      Exch10(S^2)                   6.57294446 [mEh]       4.12458492 [kcal/mol]      17.25726330 [kJ/mol]

    Induction                     -12.85237434 [mEh]      -8.06498666 [kcal/mol]     -33.74390419 [kJ/mol]
      Ind20,r                     -12.47998875 [mEh]      -7.83131117 [kcal/mol]     -32.76620594 [kJ/mol]
      Exch-Ind20,r                  1.42109994 [mEh]       0.89175367 [kcal/mol]       3.73109738 [kJ/mol]
      delta HF,r (2)               -1.79348553 [mEh]      -1.12542916 [kcal/mol]      -4.70879562 [kJ/mol]

    Dispersion                    -16.45593121 [mEh]     -10.32625273 [kcal/mol]     -43.20504143 [kJ/mol]
      Disp20                      -17.11779108 [mEh]     -10.74157607 [kcal/mol]     -44.94275430 [kJ/mol]
      Exch-Disp20                   0.66185988 [mEh]       0.41532334 [kcal/mol]       1.73771287 [kJ/mol]
      Disp20 (SS)                  -8.55889554 [mEh]      -5.37078804 [kcal/mol]     -22.47137715 [kJ/mol]
      Disp20 (OS)                  -8.55889554 [mEh]      -5.37078804 [kcal/mol]     -22.47137715 [kJ/mol]
      Exch-Disp20 (SS)              0.40108651 [mEh]       0.25168558 [kcal/mol]       1.05305248 [kJ/mol]
      Exch-Disp20 (OS)              0.26077337 [mEh]       0.16363776 [kcal/mol]       0.68466039 [kJ/mol]

  Total HF                        -20.53435541 [mEh]     -12.88550256 [kcal/mol]     -53.91294270 [kJ/mol]
  Total SAPT0                     -36.99028662 [mEh]     -23.21175529 [kcal/mol]     -97.11798413 [kJ/mol]

  Special recipe for scaled SAPT0 (see Manual):
    Electrostatics sSAPT0         -14.26910971 [mEh]      -8.95400153 [kcal/mol]     -37.46354240 [kJ/mol]
    Exchange sSAPT0                 6.58712865 [mEh]       4.13348563 [kcal/mol]      17.29450388 [kJ/mol]
    Induction sSAPT0              -12.84315442 [mEh]      -8.05920107 [kcal/mol]     -33.71969729 [kJ/mol]
    Dispersion sSAPT0             -16.45163714 [mEh]     -10.32355816 [kcal/mol]     -43.19376736 [kJ/mol]
  Total sSAPT0                    -36.97677263 [mEh]     -23.20327513 [kcal/mol]     -97.08250316 [kJ/mol]
  --------------------------------------------------------------------------------------------------------

*** tstop() called on n2cn0255 at Sat Feb 10 13:36:37 2024
Module time:
	user time   =   13364.25 seconds =     222.74 minutes
	system time =     716.43 seconds =      11.94 minutes
	total time  =       1739 seconds =      28.98 minutes
Total time:
	user time   =   26452.18 seconds =     440.87 minutes
	system time =    1126.98 seconds =      18.78 minutes
	total time  =       2747 seconds =      45.78 minutes

    Psi4 stopped on: Saturday, 10 February 2024 01:36PM
    Psi4 wall time for execution: 0:45:48.32

*** Psi4 exiting successfully. Buy a developer a beer!
