
    -----------------------------------------------------------------------
          Psi4: An Open-Source Ab Initio Electronic Structure Package
                               Psi4 1.9 release

                         Git: Rev {} zzzzzzz 


    D. G. A. Smith, L. A. Burns, A. C. Simmonett, R. M. Parrish,
    M. C. Schieber, R. Galvelis, P. Kraus, H. Kruse, R. Di Remigio,
    A. Alenaizan, A. M. James, S. Lehtola, J. P. Misiewicz, M. Scheurer,
    R. A. Shaw, J. B. Schriber, Y. Xie, Z. L. Glick, D. A. Sirianni,
    J. S. O'Brien, J. M. Waldrop, A. Kumar, E. G. Hohenstein,
    B. P. Pritchard, B. R. Brooks, H. F. Schaefer III, A. Yu. Sokolov,
    K. Patkowski, A. E. DePrince III, U. Bozkaya, R. A. King,
    F. A. Evangelista, J. M. Turney, T. D. Crawford, C. D. Sherrill,
    J. Chem. Phys. 152(18) 184108 (2020). https://doi.org/10.1063/5.0006002

                            Additional Code Authors
    E. T. Seidl, C. L. Janssen, E. F. Valeev, M. L. Leininger,
    J. F. Gonthier, R. M. Richard, H. R. McAlexander, M. Saitow, X. Wang,
    P. Verma, M. H. Lechner, A. Jiang, S. Behnle, A. G. Heide,
    M. F. Herbst, and D. L. Poole

             Previous Authors, Complete List of Code Contributors,
                       and Citations for Specific Modules
    https://github.com/psi4/psi4/blob/master/codemeta.json
    https://github.com/psi4/psi4/graphs/contributors
    http://psicode.org/psi4manual/master/introduction.html#citing-psifour

    -----------------------------------------------------------------------


    Psi4 started on: Saturday, 20 January 2024 11:41PM

    Process ID: 1577287
    Host:       d-6-8-1
    PSIDATADIR: /home/gridsan/tfroembgen/.conda/envs/psi4test/share/psi4
    Memory:     500.0 MiB
    Threads:    12
    
  ==> Input File <==

--------------------------------------------------------------------------
memory 32 GB # how much memory is available ! Depends on the nodes/cores !

molecule dimer {
# monomer A
-1 1    # Charge and multiplicity
B -1.977592e-04  2.742729e-04 6.000034
F  1.123153e-16  1.430594e-17 7.412819
F  1.147860e+00  6.757812e-01 5.528893
F  1.191806e-02 -1.332011e+00 5.529095
F -1.159666e+00  6.560735e-01 5.529174
--
# monomer B
0 1     # Charge and multiplicity
C   1.22531237526482      0.70753866091955      0.00613762728373
C   1.22532433589282     -0.70753852257020     -0.00619318228664
C   -0.00000567409046      1.41496628609039     -0.00672680580738
C   2.45644923379077      1.41832825917820      0.00902448468363
C   0.00001130712078     -1.41497612663474      0.00347275151708
C   -1.22530046906674      0.70754574598412      0.00838914760619
C   2.45643823516184     -1.41832293188077     -0.00843833914343
C   -0.00000085313587      2.83680140328112     -0.00913035594137
C   3.68182717731192      0.70931832800114     -0.00808954934571
C   2.45512052870677      2.83422403348893     -0.00819210630633
C   3.68182158506039     -0.70933346742900      0.00798293467272
C   -1.22531311884624     -0.70752714354401     -0.00512042085974
C   1.22670006104402      3.54346985599427      0.00816696660346
C   0.00000526469929     -2.83678176723568      0.00832091913869
C   -2.45643555300670      1.41831729028492      0.00842454345199
C   2.45512389762097     -2.83422965658853      0.00783102630520
C   -1.22671388474763      3.54346943575023      0.00827029982280
C   4.91451777504333      1.42717324448953     -0.00160886631602
C   3.69315067131765      3.54279566454522     -0.00155906667985
C   -2.45643712022637     -1.41831290883911     -0.00846337726810
C   1.22670532178455     -3.54347386990643     -0.00780316414624
C   -2.45512491866593      2.83421703463423     -0.00818572995999
C   4.91452486062398     -1.42718653794377      0.00136387641845
C   1.22142509354026      4.97013443726031      0.00150231067809
C   4.89300870916237      2.82518837202648     -0.00039219795739
C   -1.22669652864725     -3.54347062507680     -0.00753595973677
C   -3.68181849668397      0.70932533873199     -0.00807686886569
C   3.69314758099218     -3.54280096939050      0.00148176697923
C   -1.22143177215231      4.97012866986289      0.00168580605083
C   6.13477145276790      0.68054831910577     -0.00083909176631
C   3.65678936045204      4.97295361556775     -0.00065042889723
C   -2.45512642789169     -2.83421472106065      0.00758666850712
C   -3.68181869921921     -0.70932533146830      0.00810055625144
C   4.89301309775526     -2.82519973363176      0.00021895393805
C   -0.00000059327114      5.65044773803267      0.00045449734393
C   6.13477559217374     -0.68055448207492      0.00042622874941
C   2.47813196269732      5.65357712333155      0.00063835075260
C   1.22142288457925     -4.97012668293268     -0.00129718634452
C   -3.69316190412301      3.54279732619245     -0.00139355922051
C   -1.22142804110313     -4.97011793159564     -0.00140994817719
C   -4.91452132810043      1.42717581899491     -0.00153192130862
C   3.65678749952045     -4.97295485423912      0.00080007163680
C   -2.47813805026426      5.65357479452875      0.00092287576113
C   -3.69314125872231     -3.54278984697859      0.00136564082345
C   -4.91451200321153     -1.42718062802730      0.00139857359209
C   -0.00000552908399     -5.65043791501335      0.00005899322272
C   -4.89302000425900      2.82518897091939     -0.00040227981744
C   2.47812647313991     -5.65357317188818     -0.00029052915548
C   -3.65679823041642      4.97295655404175     -0.00047374852278
C   -4.89299899901461     -2.82519139505969      0.00006491824035
C   -2.47812801824129     -5.65356579800621     -0.00056571680280
C   -6.13477002348955      0.68054913825639     -0.00086464346868
C   -3.65678835334731     -4.97294365097028      0.00058578382008
C   -6.13476456307132     -0.68055354348201      0.00040575295444
H   5.83528897565761      3.36927626695423      0.00396712770529
H   7.07385965258860      1.22821762089947     -0.00037744837300
H   4.60066374401555      5.51238117445323     -0.00014522814529
H   5.83528386714679     -3.36930568472863     -0.00423551337640
H   -0.00001167146422      6.73853104613662     -0.00389474766392
H   7.07386165167227     -1.22822657074368     -0.00008250934481
H   2.47331421164041      6.74068466339473      0.00017162982210
H   4.60066897122302     -5.51237575717576      0.00039007446835
H   -2.47331820069565      6.74068209160650      0.00047297644710
H   -0.00000978838621     -6.73852780445195      0.00458867820736
H   -5.83530143450167      3.36927132229595      0.00410314985360
H   2.47330840367253     -6.74068500242887      0.00027980126949
H   -4.60067436136587      5.51237839860371      0.00002010017831
H   -5.83527902699321     -3.36928859177951     -0.00451481925734
H   -2.47329986759855     -6.74067870613986     -0.00016951527498
H   -7.07385728692578      1.22822084484047     -0.00046143985387
H   -4.60067330624313     -5.51236229778631      0.00021776644566
H   -7.07385645456741     -1.22822025997701     -0.00017736581114

    units angstrom      # Angstroms are the default
    no_reorient         # Geometry fixed, default
    symmetry c1         # C1 symmetry, default
}

set {
    scf_type DF         # Density fitting, faster than exact integrals
    freeze_core True    # Freeze core electrons
    basis jun-cc-pVDZ   # Jun-cc-pVDZ basis set, recommended for sSAPT0 in https://doi.org/10.1063/1.4867135
}

energy('ssapt0')        # Compute sSAPT0 energy, includes also SAPT0
--------------------------------------------------------------------------

  Memory set to  29.802 GiB by Python driver.

Scratch directory: /state/partition1/slurm_tmp/24778968.4294967291.0/
   => Loading Basis Set <=

    Name: JUN-CC-PVDZ
    Role: ORBITAL
    Keyword: BASIS
    atoms 1     entry B          line   130 file /home/gridsan/tfroembgen/.conda/envs/psi4test/share/psi4/basis/jun-cc-pvdz.gbs 
    atoms 2-5   entry F          line   266 file /home/gridsan/tfroembgen/.conda/envs/psi4test/share/psi4/basis/jun-cc-pvdz.gbs 
    atoms 6-59  entry C          line   164 file /home/gridsan/tfroembgen/.conda/envs/psi4test/share/psi4/basis/jun-cc-pvdz.gbs 
    atoms 60-77 entry H          line    36 file /home/gridsan/tfroembgen/.conda/envs/psi4test/share/psi4/basis/jun-cc-pvdz.gbs 

   => Loading Basis Set <=

    Name: JUN-CC-PVDZ
    Role: ORBITAL
    Keyword: BASIS
    atoms 1     entry B          line   130 file /home/gridsan/tfroembgen/.conda/envs/psi4test/share/psi4/basis/jun-cc-pvdz.gbs 
    atoms 2-5   entry F          line   266 file /home/gridsan/tfroembgen/.conda/envs/psi4test/share/psi4/basis/jun-cc-pvdz.gbs 
    atoms 6-59  entry C          line   164 file /home/gridsan/tfroembgen/.conda/envs/psi4test/share/psi4/basis/jun-cc-pvdz.gbs 
    atoms 60-77 entry H          line    36 file /home/gridsan/tfroembgen/.conda/envs/psi4test/share/psi4/basis/jun-cc-pvdz.gbs 


  //>>>>>>>>>>>>>>>>>>>>>>>>>>>>>>>>>>>//
  //              Dimer HF             //
  //<<<<<<<<<<<<<<<<<<<<<<<<<<<<<<<<<<<//

   => Libint2 <=

    Primary   basis highest AM E, G, H:  7, 7, 4
    Auxiliary basis highest AM E, G, H:  7, 7, 5
    Onebody   basis highest AM E, G, H:  7, 7, 5
    Solid Harmonics ordering:            gaussian

*** tstart() called on d-6-8-1
*** at Sat Jan 20 23:41:58 2024

   => Loading Basis Set <=

    Name: JUN-CC-PVDZ
    Role: ORBITAL
    Keyword: BASIS
    atoms 1     entry B          line   130 file /home/gridsan/tfroembgen/.conda/envs/psi4test/share/psi4/basis/jun-cc-pvdz.gbs 
    atoms 2-5   entry F          line   266 file /home/gridsan/tfroembgen/.conda/envs/psi4test/share/psi4/basis/jun-cc-pvdz.gbs 
    atoms 6-59  entry C          line   164 file /home/gridsan/tfroembgen/.conda/envs/psi4test/share/psi4/basis/jun-cc-pvdz.gbs 
    atoms 60-77 entry H          line    36 file /home/gridsan/tfroembgen/.conda/envs/psi4test/share/psi4/basis/jun-cc-pvdz.gbs 


         ---------------------------------------------------------
                                   SCF
               by Justin Turney, Rob Parrish, Andy Simmonett
                          and Daniel G. A. Smith
                              RHF Reference
                       12 Threads,  30517 MiB Core
         ---------------------------------------------------------

  ==> Geometry <==

    Molecular point group: c1
    Full point group: C1

    Geometry (in Angstrom), charge = -1, multiplicity = 1:

       Center              X                  Y                   Z               Mass       
    ------------   -----------------  -----------------  -----------------  -----------------
         B           -0.000198161052     0.000273808717     5.306918203937    11.009305360000
         F           -0.000000401852    -0.000000464183     6.719703203937    18.998403162730
         F            1.147859598148     0.675780735817     4.835777203937    18.998403162730
         F            0.011917658148    -1.332011464183     4.835979203937    18.998403162730
         F           -1.159666401852     0.656073035817     4.836058203937    18.998403162730
         C            1.225311973413     0.707538196736    -0.686978168779    12.000000000000
         C            1.225323934041    -0.707538986754    -0.699308978350    12.000000000000
         C           -0.000006075942     1.414965821907    -0.699842601871    12.000000000000
         C            2.456448831939     1.418327794995    -0.684091311380    12.000000000000
         C            0.000010905269    -1.414976590818    -0.689643044546    12.000000000000
         C           -1.225300870919     0.707545281801    -0.684726648457    12.000000000000
         C            2.456437833310    -1.418323396064    -0.701554135207    12.000000000000
         C           -0.000001254988     2.836800939098    -0.702246152005    12.000000000000
         C            3.681826775460     0.709317863818    -0.701205345409    12.000000000000
         C            2.455120126855     2.834223569306    -0.701307902369    12.000000000000
         C            3.681821183209    -0.709333931612    -0.685132861390    12.000000000000
         C           -1.225313520698    -0.707527607727    -0.698236216923    12.000000000000
         C            1.226699659192     3.543469391811    -0.684948829460    12.000000000000
         C            0.000004862847    -2.836782231419    -0.684794876924    12.000000000000
         C           -2.456435954859     1.418316826102    -0.684691252611    12.000000000000
         C            2.455123495769    -2.834230120772    -0.685284769758    12.000000000000
         C           -1.226714286599     3.543468971567    -0.684845496240    12.000000000000
         C            4.914517373191     1.427172780306    -0.694724662379    12.000000000000
         C            3.693150269466     3.542795200362    -0.694674862743    12.000000000000
         C           -2.456437522078    -1.418313373022    -0.701579173331    12.000000000000
         C            1.226704919933    -3.543474334090    -0.700918960209    12.000000000000
         C           -2.455125320518     2.834216570451    -0.701301526023    12.000000000000
         C            4.914524458772    -1.427187002127    -0.691751919645    12.000000000000
         C            1.221424691688     4.970133973077    -0.691613485385    12.000000000000
         C            4.893008307311     2.825187907843    -0.693507994021    12.000000000000
         C           -1.226696930499    -3.543471089260    -0.700651755800    12.000000000000
         C           -3.681818898536     0.709324874549    -0.701192664929    12.000000000000
         C            3.693147179140    -3.542801433574    -0.691634029084    12.000000000000
         C           -1.221432174004     4.970128205680    -0.691429990012    12.000000000000
         C            6.134771050916     0.680547854922    -0.693954887829    12.000000000000
         C            3.656788958600     4.972953151384    -0.693766224960    12.000000000000
         C           -2.455126829744    -2.834215185244    -0.685529127556    12.000000000000
         C           -3.681819101071    -0.709325795652    -0.685015239812    12.000000000000
         C            4.893012695903    -2.825200197815    -0.692896842125    12.000000000000
         C           -0.000000995123     5.650447273849    -0.692661298719    12.000000000000
         C            6.134775190322    -0.680554946258    -0.692689567314    12.000000000000
         C            2.478131560845     5.653576659148    -0.692477445311    12.000000000000
         C            1.221422482727    -4.970127147116    -0.694412982408    12.000000000000
         C           -3.693162305975     3.542796862009    -0.694509355284    12.000000000000
         C           -1.221428442955    -4.970118395779    -0.694525744240    12.000000000000
         C           -4.914521729952     1.427175354812    -0.694647717372    12.000000000000
         C            3.656787097669    -4.972955318422    -0.692315724426    12.000000000000
         C           -2.478138452116     5.653574330345    -0.692192920302    12.000000000000
         C           -3.693141660574    -3.542790311162    -0.691750155240    12.000000000000
         C           -4.914512405063    -1.427181092211    -0.691717222471    12.000000000000
         C           -0.000005930936    -5.650438379197    -0.693056802840    12.000000000000
         C           -4.893020406111     2.825188506736    -0.693518075881    12.000000000000
         C            2.478126071288    -5.653573636072    -0.693406325219    12.000000000000
         C           -3.656798632268     4.972956089858    -0.693589544586    12.000000000000
         C           -4.892999400866    -2.825191859243    -0.693050877823    12.000000000000
         C           -2.478128420093    -5.653566262190    -0.693681512866    12.000000000000
         C           -6.134770425341     0.680548674073    -0.693980439532    12.000000000000
         C           -3.656788755199    -4.972944115154    -0.692530012243    12.000000000000
         C           -6.134764964923    -0.680554007665    -0.692710043109    12.000000000000
         H            5.835288573806     3.369275802771    -0.689148668358     1.007825032230
         H            7.073859250737     1.228217156716    -0.693493244436     1.007825032230
         H            4.600663342164     5.512380710270    -0.693261024208     1.007825032230
         H            5.835283465295    -3.369306148912    -0.697351309440     1.007825032230
         H           -0.000012073316     6.738530581953    -0.697010543727     1.007825032230
         H            7.073861249820    -1.228227034927    -0.693198305408     1.007825032230
         H            2.473313809789     6.740684199211    -0.692944166241     1.007825032230
         H            4.600668569371    -5.512376221359    -0.692725721595     1.007825032230
         H           -2.473318602548     6.740681627423    -0.692642819616     1.007825032230
         H           -0.000010190238    -6.738528268635    -0.688527117856     1.007825032230
         H           -5.835301836354     3.369270858113    -0.689012646210     1.007825032230
         H            2.473308001821    -6.740685466612    -0.692835994794     1.007825032230
         H           -4.600674763218     5.512377934420    -0.693095695885     1.007825032230
         H           -5.835279428845    -3.369289055963    -0.697630615320     1.007825032230
         H           -2.473300269450    -6.740679170323    -0.693285311338     1.007825032230
         H           -7.073857688778     1.228220380657    -0.693577235917     1.007825032230
         H           -4.600673708095    -5.512362761970    -0.692898029617     1.007825032230
         H           -7.073856856419    -1.228220724160    -0.693293161874     1.007825032230

  Running in c1 symmetry.

  Rotational constants: A =      0.00161  B =      0.00161  C =      0.00110 [cm^-1]
  Rotational constants: A =     48.25855  B =     48.25316  C =     33.02251 [MHz]
  Nuclear repulsion = 7612.253363593649738

  Charge       = -1
  Multiplicity = 1
  Electrons    = 384
  Nalpha       = 192
  Nbeta        = 192

  ==> Algorithm <==

  SCF Algorithm Type is DF.
  DIIS enabled.
  MOM disabled.
  Fractional occupation disabled.
  Guess Type is SAD.
  Energy threshold   = 1.00e-08
  Density threshold  = 1.00e-08
  Integral threshold = 1.00e-12

  ==> Primary Basis <==

  Basis Set: JUN-CC-PVDZ
    Blend: JUN-CC-PVDZ
    Number of shells: 526
    Number of basis functions: 1152
    Number of Cartesian functions: 1211
    Spherical Harmonics?: true
    Max angular momentum: 2

   => Loading Basis Set <=

    Name: (JUN-CC-PVDZ AUX)
    Role: JKFIT
    Keyword: DF_BASIS_SCF
    atoms 1     entry B          line    90 file /home/gridsan/tfroembgen/.conda/envs/psi4test/share/psi4/basis/jun-cc-pvdz-jkfit.gbs 
    atoms 2-5   entry F          line   314 file /home/gridsan/tfroembgen/.conda/envs/psi4test/share/psi4/basis/jun-cc-pvdz-jkfit.gbs 
    atoms 6-59  entry C          line   146 file /home/gridsan/tfroembgen/.conda/envs/psi4test/share/psi4/basis/jun-cc-pvdz-jkfit.gbs 
    atoms 60-77 entry H          line    70 file /home/gridsan/tfroembgen/.conda/envs/psi4test/share/psi4/basis/jun-cc-pvdz-jkfit.gbs 

  ==> Integral Setup <==

  ==> DiskDFJK: Density-Fitted J/K Matrices <==

    J tasked:                  Yes
    K tasked:                  Yes
    wK tasked:                  No
    OpenMP threads:             12
    Integrals threads:          12
    Memory [MiB]:            22888
    Algorithm:                Core
    Integral Cache:           SAVE
    Schwarz Cutoff:          1E-12
    Fitting Condition:       1E-10

   => Auxiliary Basis Set <=

  Basis Set: (JUN-CC-PVDZ AUX)
    Blend: JUN-CC-PVDZ-JKFIT
    Number of shells: 1755
    Number of basis functions: 5075
    Number of Cartesian functions: 5819
    Spherical Harmonics?: true
    Max angular momentum: 3

  Minimum eigenvalue in the overlap matrix is 8.3802054147E-10.
  Reciprocal condition number of the overlap matrix is 3.7323753201E-11.
    Using canonical orthogonalization.
  Overall, 14 of 1152 possible MOs eliminated.


  ==> Pre-Iterations <==

  SCF Guess: Superposition of Atomic Densities via on-the-fly atomic UHF (no occupation information).

   -------------------------
    Irrep   Nso     Nmo    
   -------------------------
     A       1152    1138 
   -------------------------
    Total    1152    1138
   -------------------------

  ==> Iterations <==

                           Total Energy        Delta E     RMS |[F,P]|

   @DF-RHF iter SAD: -2483.26211085219438   -2.48326e+03   0.00000e+00 
   @DF-RHF iter   1: -2477.61861822552055    5.64349e+00   1.10044e-03 ADIIS/DIIS
   @DF-RHF iter   2: -2478.50852246994964   -8.89904e-01   4.77401e-04 ADIIS/DIIS
   @DF-RHF iter   3: -2478.64188595758651   -1.33363e-01   1.32163e-04 ADIIS/DIIS
   @DF-RHF iter   4: -2478.65506507687542   -1.31791e-02   5.44017e-05 DIIS
   @DF-RHF iter   5: -2478.65753043064524   -2.46535e-03   1.61782e-05 DIIS
   @DF-RHF iter   6: -2478.65781642120828   -2.85991e-04   5.39011e-06 DIIS
   @DF-RHF iter   7: -2478.65789739290130   -8.09717e-05   2.65198e-06 DIIS
   @DF-RHF iter   8: -2478.65791974301101   -2.23501e-05   1.21520e-06 DIIS
   @DF-RHF iter   9: -2478.65792637274217   -6.62973e-06   2.50574e-07 DIIS
   @DF-RHF iter  10: -2478.65792659288854   -2.20146e-07   8.84212e-08 DIIS
   @DF-RHF iter  11: -2478.65792660943453   -1.65460e-08   3.41870e-08 DIIS
   @DF-RHF iter  12: -2478.65792661286059   -3.42607e-09   1.15691e-08 DIIS
   @DF-RHF iter  13: -2478.65792661320666   -3.46063e-10   4.20356e-09 DIIS
  Energy and wave function converged.


  ==> Post-Iterations <==

    Orbital Energies [Eh]
    ---------------------

    Doubly Occupied:                                                      

       1A    -26.065366     2A    -26.065164     3A    -26.065069  
       4A    -26.064984     5A    -11.194797     6A    -11.194791  
       7A    -11.194788     8A    -11.194778     9A    -11.194773  
      10A    -11.194766    11A    -11.194706    12A    -11.194699  
      13A    -11.194693    14A    -11.194685    15A    -11.194681  
      16A    -11.194678    17A    -11.193233    18A    -11.193136  
      19A    -11.193135    20A    -11.192981    21A    -11.192979  
      22A    -11.192894    23A    -11.192351    24A    -11.192203  
      25A    -11.192085    26A    -11.192082    27A    -11.192044  
      28A    -11.192043    29A    -11.191524    30A    -11.191523  
      31A    -11.191440    32A    -11.191187    33A    -11.191023  
      34A    -11.191021    35A    -11.191002    36A    -11.191000  
      37A    -11.190896    38A    -11.190834    39A    -11.190832  
      40A    -11.190831    41A    -11.190830    42A    -11.190829  
      43A    -11.190827    44A    -11.190562    45A    -11.190561  
      46A    -11.190113    47A    -11.189416    48A    -11.189414  
      49A    -11.189413    50A    -11.189410    51A    -11.189409  
      52A    -11.189408    53A    -11.188153    54A    -11.188151  
      55A    -11.188150    56A    -11.188076    57A    -11.188076  
      58A    -11.188075    59A     -7.537368    60A     -1.409089  
      61A     -1.349476    62A     -1.349296    63A     -1.349131  
      64A     -1.177546    65A     -1.154582    66A     -1.154581  
      67A     -1.125094    68A     -1.125086    69A     -1.115364  
      70A     -1.093949    71A     -1.084712    72A     -1.070373  
      73A     -1.070366    74A     -1.049692    75A     -1.049688  
      76A     -1.017711    77A     -1.017703    78A     -1.013836  
      79A     -1.002703    80A     -1.002698    81A     -0.975552  
      82A     -0.958934    83A     -0.956417    84A     -0.956374  
      85A     -0.954330    86A     -0.949745    87A     -0.922559  
      88A     -0.922515    89A     -0.898306    90A     -0.898256  
      91A     -0.830856    92A     -0.830828    93A     -0.822748  
      94A     -0.820866    95A     -0.820808    96A     -0.816900  
      97A     -0.816852    98A     -0.798460    99A     -0.775059  
     100A     -0.754561   101A     -0.751864   102A     -0.747833  
     103A     -0.747824   104A     -0.731699   105A     -0.731688  
     106A     -0.681908   107A     -0.680470   108A     -0.669114  
     109A     -0.669090   110A     -0.669032   111A     -0.669023  
     112A     -0.652580   113A     -0.635557   114A     -0.635546  
     115A     -0.629791   116A     -0.629774   117A     -0.600349  
     118A     -0.598328   119A     -0.589205   120A     -0.587519  
     121A     -0.587513   122A     -0.586655   123A     -0.576121  
     124A     -0.576118   125A     -0.565697   126A     -0.563593  
     127A     -0.563578   128A     -0.544584   129A     -0.538821  
     130A     -0.537325   131A     -0.536604   132A     -0.536572  
     133A     -0.529513   134A     -0.526606   135A     -0.526531  
     136A     -0.526445   137A     -0.526428   138A     -0.526417  
     139A     -0.523259   140A     -0.510530   141A     -0.510523  
     142A     -0.504663   143A     -0.504648   144A     -0.501867  
     145A     -0.501851   146A     -0.494586   147A     -0.492096  
     148A     -0.492088   149A     -0.475754   150A     -0.475751  
     151A     -0.473467   152A     -0.473462   153A     -0.466192  
     154A     -0.461788   155A     -0.459358   156A     -0.459351  
     157A     -0.445433   158A     -0.445391   159A     -0.437826  
     160A     -0.432025   161A     -0.430220   162A     -0.423486  
     163A     -0.420907   164A     -0.418094   165A     -0.418086  
     166A     -0.406607   167A     -0.406560   168A     -0.406476  
     169A     -0.404616   170A     -0.404593   171A     -0.386159  
     172A     -0.386079   173A     -0.383156   174A     -0.383094  
     175A     -0.382966   176A     -0.375718   177A     -0.375709  
     178A     -0.339537   179A     -0.339513   180A     -0.337980  
     181A     -0.312422   182A     -0.312419   183A     -0.284940  
     184A     -0.270854   185A     -0.269810   186A     -0.269746  
     187A     -0.247441   188A     -0.235676   189A     -0.218886  
     190A     -0.218835   191A     -0.160804   192A     -0.160737  

    Virtual:                                                              

     193A      0.077850   194A      0.077911   195A      0.101127  
     196A      0.101133   197A      0.103036   198A      0.103571  
     199A      0.103575   200A      0.110445   201A      0.114586  
     202A      0.125538   203A      0.125539   204A      0.129455  
     205A      0.129507   206A      0.138357   207A      0.140305  
     208A      0.140313   209A      0.145062   210A      0.145073  
     211A      0.145645   212A      0.146815   213A      0.146827  
     214A      0.149901   215A      0.152133   216A      0.153474  
     217A      0.153477   218A      0.160055   219A      0.161520  
     220A      0.167083   221A      0.167094   222A      0.170274  
     223A      0.172729   224A      0.177175   225A      0.177177  
     226A      0.179643   227A      0.184052   228A      0.184065  
     229A      0.185353   230A      0.185962   231A      0.185972  
     232A      0.186526   233A      0.190455   234A      0.190793  
     235A      0.191057   236A      0.191066   237A      0.198477  
     238A      0.203534   239A      0.205989   240A      0.205990  
     241A      0.207275   242A      0.207290   243A      0.210927  
     244A      0.210932   245A      0.215656   246A      0.215659  
     247A      0.228121   248A      0.229809   249A      0.229861  
     250A      0.236931   251A      0.237599   252A      0.237648  
     253A      0.239962   254A      0.239976   255A      0.240273  
     256A      0.244690   257A      0.244712   258A      0.246536  
     259A      0.250151   260A      0.250155   261A      0.252348  
     262A      0.256417   263A      0.256428   264A      0.260543  
     265A      0.260547   266A      0.260934   267A      0.266224  
     268A      0.266236   269A      0.268103   270A      0.269369  
     271A      0.269385   272A      0.269636   273A      0.271130  
     274A      0.272262   275A      0.273499   276A      0.275762  
     277A      0.282738   278A      0.283312   279A      0.283323  
     280A      0.284771   281A      0.285501   282A      0.285542  
     283A      0.286961   284A      0.288282   285A      0.288308  
     286A      0.291239   287A      0.293958   288A      0.293979  
     289A      0.301337   290A      0.301339   291A      0.301868  
     292A      0.304478   293A      0.307453   294A      0.307464  
     295A      0.314716   296A      0.314739   297A      0.316039  
     298A      0.316050   299A      0.316633   300A      0.316639  
     301A      0.323051   302A      0.323057   303A      0.329878  
     304A      0.329885   305A      0.332847   306A      0.332851  
     307A      0.337244   308A      0.338296   309A      0.338318  
     310A      0.339941   311A      0.339980   312A      0.343307  
     313A      0.351043   314A      0.351050   315A      0.352607  
     316A      0.352613   317A      0.358598   318A      0.358766  
     319A      0.361975   320A      0.361990   321A      0.362377  
     322A      0.366398   323A      0.366655   324A      0.366671  
     325A      0.368061   326A      0.370648   327A      0.370655  
     328A      0.371146   329A      0.375323   330A      0.375888  
     331A      0.375893   332A      0.379919   333A      0.379951  
     334A      0.379972   335A      0.380887   336A      0.385333  
     337A      0.385771   338A      0.389212   339A      0.391918  
     340A      0.392017   341A      0.392832   342A      0.398191  
     343A      0.398255   344A      0.398280   345A      0.403447  
     346A      0.403466   347A      0.405598   348A      0.408576  
     349A      0.410980   350A      0.410984   351A      0.412307  
     352A      0.413043   353A      0.413053   354A      0.420973  
     355A      0.426212   356A      0.426233   357A      0.428886  
     358A      0.429104   359A      0.429149   360A      0.430968  
     361A      0.431031   362A      0.433391   363A      0.433418  
     364A      0.434846   365A      0.439940   366A      0.446211  
     367A      0.446347   368A      0.449619   369A      0.449626  
     370A      0.451898   371A      0.452393   372A      0.454803  
     373A      0.454838   374A      0.455115   375A      0.457531  
     376A      0.457575   377A      0.459538   378A      0.459560  
     379A      0.464619   380A      0.464641   381A      0.465741  
     382A      0.466613   383A      0.468304   384A      0.468487  
     385A      0.472703   386A      0.474343   387A      0.475486  
     388A      0.475516   389A      0.475795   390A      0.476283  
     391A      0.476440   392A      0.477312   393A      0.477332  
     394A      0.480721   395A      0.480799   396A      0.485084  
     397A      0.486914   398A      0.486939   399A      0.488093  
     400A      0.488212   401A      0.491214   402A      0.498093  
     403A      0.500330   404A      0.500406   405A      0.501662  
     406A      0.502570   407A      0.502972   408A      0.508669  
     409A      0.508725   410A      0.512062   411A      0.512107  
     412A      0.512272   413A      0.514384   414A      0.514407  
     415A      0.517036   416A      0.517127   417A      0.525644  
     418A      0.526808   419A      0.526855   420A      0.531301  
     421A      0.531394   422A      0.531663   423A      0.533450  
     424A      0.533884   425A      0.538216   426A      0.538277  
     427A      0.544755   428A      0.544780   429A      0.545075  
     430A      0.548066   431A      0.548108   432A      0.551436  
     433A      0.551487   434A      0.552730   435A      0.555594  
     436A      0.555620   437A      0.558250   438A      0.558257  
     439A      0.561588   440A      0.563329   441A      0.564558  
     442A      0.568288   443A      0.568324   444A      0.568822  
     445A      0.576842   446A      0.578103   447A      0.578226  
     448A      0.583648   449A      0.583703   450A      0.588664  
     451A      0.588837   452A      0.594560   453A      0.595160  
     454A      0.595389   455A      0.596534   456A      0.596563  
     457A      0.599775   458A      0.602968   459A      0.607570  
     460A      0.609562   461A      0.609681   462A      0.614390  
     463A      0.614420   464A      0.614441   465A      0.615297  
     466A      0.620767   467A      0.620905   468A      0.623448  
     469A      0.625137   470A      0.626553   471A      0.626594  
     472A      0.627781   473A      0.630248   474A      0.634232  
     475A      0.634270   476A      0.641019   477A      0.659303  
     478A      0.660238   479A      0.660286   480A      0.663784  
     481A      0.663821   482A      0.676258   483A      0.682694  
     484A      0.682807   485A      0.690080   486A      0.690222  
     487A      0.690575   488A      0.690709   489A      0.704087  
     490A      0.704242   491A      0.711516   492A      0.717121  
     493A      0.717148   494A      0.720502   495A      0.723924  
     496A      0.733023   497A      0.733266   498A      0.733307  
     499A      0.741132   500A      0.741138   501A      0.742784  
     502A      0.757733   503A      0.771894   504A      0.772102  
     505A      0.779952   506A      0.779952   507A      0.798265  
     508A      0.803615   509A      0.807721   510A      0.807764  
     511A      0.808506   512A      0.808655   513A      0.820059  
     514A      0.820071   515A      0.824845   516A      0.833118  
     517A      0.838607   518A      0.854292   519A      0.861010  
     520A      0.861094   521A      0.868620   522A      0.872492  
     523A      0.876451   524A      0.876540   525A      0.877060  
     526A      0.886599   527A      0.886852   528A      0.886992  
     529A      0.890680   530A      0.890696   531A      0.891306  
     532A      0.899519   533A      0.918144   534A      0.918187  
     535A      0.922125   536A      0.922925   537A      0.922945  
     538A      0.924212   539A      0.929010   540A      0.929021  
     541A      0.930594   542A      0.930894   543A      0.931503  
     544A      0.938752   545A      0.938810   546A      0.944558  
     547A      0.944716   548A      0.951703   549A      0.951757  
     550A      0.960414   551A      0.960589   552A      0.961950  
     553A      0.964565   554A      0.968695   555A      0.968892  
     556A      0.969956   557A      0.970953   558A      0.971300  
     559A      0.974895   560A      0.975374   561A      0.981191  
     562A      0.981433   563A      0.984904   564A      0.986730  
     565A      0.987704   566A      0.989051   567A      0.989273  
     568A      0.989365   569A      0.997914   570A      0.998143  
     571A      0.999096   572A      0.999320   573A      1.003298  
     574A      1.009062   575A      1.009212   576A      1.013277  
     577A      1.013518   578A      1.024238   579A      1.024321  
     580A      1.030605   581A      1.031044   582A      1.034029  
     583A      1.035661   584A      1.036215   585A      1.038343  
     586A      1.038447   587A      1.041290   588A      1.042240  
     589A      1.051989   590A      1.052063   591A      1.053107  
     592A      1.055958   593A      1.064542   594A      1.064627  
     595A      1.069482   596A      1.076721   597A      1.076724  
     598A      1.078948   599A      1.079938   600A      1.079957  
     601A      1.095880   602A      1.095902   603A      1.101053  
     604A      1.101345   605A      1.101497   606A      1.104256  
     607A      1.104345   608A      1.107577   609A      1.107659  
     610A      1.109574   611A      1.109674   612A      1.109764  
     613A      1.111892   614A      1.113261   615A      1.115091  
     616A      1.117666   617A      1.117742   618A      1.123570  
     619A      1.126560   620A      1.129956   621A      1.130294  
     622A      1.135040   623A      1.135068   624A      1.144801  
     625A      1.144894   626A      1.146841   627A      1.148756  
     628A      1.152154   629A      1.152351   630A      1.156295  
     631A      1.156972   632A      1.157007   633A      1.162915  
     634A      1.162927   635A      1.168296   636A      1.168360  
     637A      1.168521   638A      1.172315   639A      1.172449  
     640A      1.179237   641A      1.179280   642A      1.189460  
     643A      1.189961   644A      1.191471   645A      1.191580  
     646A      1.192796   647A      1.192871   648A      1.201653  
     649A      1.203451   650A      1.203651   651A      1.206526  
     652A      1.208679   653A      1.208718   654A      1.211863  
     655A      1.213359   656A      1.218554   657A      1.227594  
     658A      1.239934   659A      1.243434   660A      1.244306  
     661A      1.244618   662A      1.247548   663A      1.251639  
     664A      1.251687   665A      1.260074   666A      1.260148  
     667A      1.264713   668A      1.264820   669A      1.274858  
     670A      1.281550   671A      1.281605   672A      1.284963  
     673A      1.286524   674A      1.286558   675A      1.299957  
     676A      1.300075   677A      1.300489   678A      1.320684  
     679A      1.320769   680A      1.325012   681A      1.325137  
     682A      1.326883   683A      1.327023   684A      1.329075  
     685A      1.329165   686A      1.337164   687A      1.339579  
     688A      1.347726   689A      1.347829   690A      1.353570  
     691A      1.357200   692A      1.357526   693A      1.360768  
     694A      1.361719   695A      1.368717   696A      1.368734  
     697A      1.372142   698A      1.373668   699A      1.373739  
     700A      1.376019   701A      1.382714   702A      1.382740  
     703A      1.387182   704A      1.388609   705A      1.388649  
     706A      1.394310   707A      1.394409   708A      1.404245  
     709A      1.405032   710A      1.411105   711A      1.411173  
     712A      1.418384   713A      1.419965   714A      1.419991  
     715A      1.423577   716A      1.423611   717A      1.426612  
     718A      1.426713   719A      1.431653   720A      1.436789  
     721A      1.436891   722A      1.441930   723A      1.455513  
     724A      1.465011   725A      1.467897   726A      1.467924  
     727A      1.473773   728A      1.473815   729A      1.475687  
     730A      1.475744   731A      1.484523   732A      1.485225  
     733A      1.492765   734A      1.492799   735A      1.495205  
     736A      1.498640   737A      1.499482   738A      1.499507  
     739A      1.503494   740A      1.503692   741A      1.503809  
     742A      1.512443   743A      1.512488   744A      1.514392  
     745A      1.515209   746A      1.530963   747A      1.530988  
     748A      1.541364   749A      1.541525   750A      1.580279  
     751A      1.580312   752A      1.586351   753A      1.586383  
     754A      1.593968   755A      1.617302   756A      1.640408  
     757A      1.646357   758A      1.646411   759A      1.653327  
     760A      1.664970   761A      1.665513   762A      1.668447  
     763A      1.674526   764A      1.675175   765A      1.675188  
     766A      1.680611   767A      1.680804   768A      1.686615  
     769A      1.688271   770A      1.688375   771A      1.698476  
     772A      1.698773   773A      1.705180   774A      1.705202  
     775A      1.708881   776A      1.709369   777A      1.709472  
     778A      1.709972   779A      1.717441   780A      1.725431  
     781A      1.725451   782A      1.731578   783A      1.740178  
     784A      1.740241   785A      1.742179   786A      1.742652  
     787A      1.742780   788A      1.746880   789A      1.751610  
     790A      1.751659   791A      1.759929   792A      1.761721  
     793A      1.762647   794A      1.762690   795A      1.766690  
     796A      1.770956   797A      1.771032   798A      1.779281  
     799A      1.779303   800A      1.806044   801A      1.816578  
     802A      1.822672   803A      1.822789   804A      1.822808  
     805A      1.825641   806A      1.840755   807A      1.840773  
     808A      1.855531   809A      1.855549   810A      1.879729  
     811A      1.879739   812A      1.879785   813A      1.884709  
     814A      1.889983   815A      1.890081   816A      1.895140  
     817A      1.895179   818A      1.901020   819A      1.907465  
     820A      1.908432   821A      1.923521   822A      1.923575  
     823A      1.925320   824A      1.925400   825A      1.927413  
     826A      1.933041   827A      1.936723   828A      1.945107  
     829A      1.945142   830A      1.959213   831A      1.959255  
     832A      1.960780   833A      1.960843   834A      1.961889  
     835A      1.965557   836A      1.965647   837A      1.973542  
     838A      1.973723   839A      1.978559   840A      1.978856  
     841A      1.982075   842A      1.982227   843A      1.983715  
     844A      1.986517   845A      1.986606   846A      2.001673  
     847A      2.004925   848A      2.005047   849A      2.006107  
     850A      2.006494   851A      2.006591   852A      2.009052  
     853A      2.009159   854A      2.020182   855A      2.020299  
     856A      2.020370   857A      2.020409   858A      2.022180  
     859A      2.033823   860A      2.042777   861A      2.049345  
     862A      2.049374   863A      2.054240   864A      2.057099  
     865A      2.057215   866A      2.061115   867A      2.062807  
     868A      2.062835   869A      2.063957   870A      2.069589  
     871A      2.070966   872A      2.076373   873A      2.076539  
     874A      2.092927   875A      2.093915   876A      2.094892  
     877A      2.095264   878A      2.095613   879A      2.095873  
     880A      2.100558   881A      2.112923   882A      2.115926  
     883A      2.116196   884A      2.121622   885A      2.122323  
     886A      2.124552   887A      2.124596   888A      2.128590  
     889A      2.134013   890A      2.137059   891A      2.137453  
     892A      2.137975   893A      2.142988   894A      2.143018  
     895A      2.147717   896A      2.149005   897A      2.149106  
     898A      2.157150   899A      2.157287   900A      2.159996  
     901A      2.161167   902A      2.164274   903A      2.164324  
     904A      2.169146   905A      2.169373   906A      2.172264  
     907A      2.172746   908A      2.172858   909A      2.173379  
     910A      2.176623   911A      2.176893   912A      2.180747  
     913A      2.183145   914A      2.183238   915A      2.186235  
     916A      2.186348   917A      2.192085   918A      2.192345  
     919A      2.196125   920A      2.198453   921A      2.199143  
     922A      2.199204   923A      2.199856   924A      2.206625  
     925A      2.206649   926A      2.220130   927A      2.225968  
     928A      2.225986   929A      2.227518   930A      2.227587  
     931A      2.237136   932A      2.242716   933A      2.242799  
     934A      2.252842   935A      2.253196   936A      2.255742  
     937A      2.257361   938A      2.262294   939A      2.262389  
     940A      2.266075   941A      2.283618   942A      2.285909  
     943A      2.285956   944A      2.290879   945A      2.294616  
     946A      2.294958   947A      2.296164   948A      2.304689  
     949A      2.304998   950A      2.306723   951A      2.307103  
     952A      2.309420   953A      2.322352   954A      2.322466  
     955A      2.333744   956A      2.333755   957A      2.334856  
     958A      2.334902   959A      2.342587   960A      2.363195  
     961A      2.369885   962A      2.375496   963A      2.377249  
     964A      2.386827   965A      2.387665   966A      2.396297  
     967A      2.397255   968A      2.397348   969A      2.399664  
     970A      2.415653   971A      2.416151   972A      2.416714  
     973A      2.417000   974A      2.431431   975A      2.431525  
     976A      2.441201   977A      2.443735   978A      2.478791  
     979A      2.488204   980A      2.488377   981A      2.488414  
     982A      2.499528   983A      2.506032   984A      2.506074  
     985A      2.534477   986A      2.536434   987A      2.536578  
     988A      2.549146   989A      2.549149   990A      2.566321  
     991A      2.582569   992A      2.593759   993A      2.594507  
     994A      2.607737   995A      2.608948   996A      2.608990  
     997A      2.616470   998A      2.616539   999A      2.620463  
    1000A      2.623712  1001A      2.623718  1002A      2.636676  
    1003A      2.637182  1004A      2.637240  1005A      2.637273  
    1006A      2.649401  1007A      2.649553  1008A      2.651986  
    1009A      2.653135  1010A      2.653766  1011A      2.669719  
    1012A      2.686617  1013A      2.686664  1014A      2.691061  
    1015A      2.696227  1016A      2.696750  1017A      2.704033  
    1018A      2.704096  1019A      2.713355  1020A      2.713697  
    1021A      2.719995  1022A      2.747086  1023A      2.747320  
    1024A      2.748265  1025A      2.748962  1026A      2.768105  
    1027A      2.768441  1028A      2.777935  1029A      2.777943  
    1030A      2.783273  1031A      2.783291  1032A      2.787096  
    1033A      2.787325  1034A      2.804069  1035A      2.815552  
    1036A      2.815949  1037A      2.842934  1038A      2.859783  
    1039A      2.859941  1040A      2.880842  1041A      2.892383  
    1042A      2.892534  1043A      2.915222  1044A      2.915371  
    1045A      2.922260  1046A      2.924328  1047A      2.924393  
    1048A      2.924652  1049A      2.932478  1050A      2.976173  
    1051A      2.978832  1052A      2.978864  1053A      2.980617  
    1054A      2.980631  1055A      2.990246  1056A      2.996675  
    1057A      2.996737  1058A      3.013829  1059A      3.013856  
    1060A      3.026101  1061A      3.073384  1062A      3.073487  
    1063A      3.073971  1064A      3.092163  1065A      3.129649  
    1066A      3.129693  1067A      3.135222  1068A      3.135334  
    1069A      3.173078  1070A      3.173866  1071A      3.190838  
    1072A      3.193392  1073A      3.193640  1074A      3.200689  
    1075A      3.210006  1076A      3.210049  1077A      3.210513  
    1078A      3.212406  1079A      3.212425  1080A      3.221378  
    1081A      3.221737  1082A      3.229387  1083A      3.229794  
    1084A      3.254186  1085A      3.273478  1086A      3.278724  
    1087A      3.285798  1088A      3.301341  1089A      3.339616  
    1090A      3.341149  1091A      3.341317  1092A      3.346600  
    1093A      3.346776  1094A      3.481661  1095A      3.482119  
    1096A      3.512889  1097A      3.547285  1098A      3.549927  
    1099A      3.615887  1100A      3.643772  1101A      3.645752  
    1102A      3.659928  1103A      3.691032  1104A      3.693007  
    1105A      3.727346  1106A      3.733466  1107A      3.834061  
    1108A      3.848544  1109A      3.849520  1110A      3.934239  
    1111A      3.934246  1112A      3.977173  1113A      3.977285  
    1114A      4.042280  1115A      4.076347  1116A      4.101955  
    1117A      4.113761  1118A      4.150067  1119A      4.174624  
    1120A      4.175389  1121A      4.175451  1122A      4.203002  
    1123A      4.203080  1124A      4.203294  1125A      4.203461  
    1126A      4.203486  1127A      4.237260  1128A      4.238673  
    1129A      4.238700  1130A      4.449772  1131A      4.450140  
    1132A      4.451106  1133A      4.652145  1134A      4.652224  
    1135A      4.655103  1136A      4.751839  1137A      4.787472  
    1138A      4.787782  

    Final Occupation by Irrep:
              A 
    DOCC [   192 ]
    NA   [   192 ]
    NB   [   192 ]

  @DF-RHF Final Energy: -2478.65792661320666

   => Energetics <=

    Nuclear Repulsion Energy =           7612.2533635936497376
    One-Electron Energy =              -18577.9647982506103290
    Two-Electron Energy =                8487.0535080437548459
    Total Energy =                      -2478.6579266132066550

Computation Completed


Properties will be evaluated at   0.000000,   0.000000,   0.000000 [a0]

Properties computed using the SCF density matrix


 Multipole Moments:

 ------------------------------------------------------------------------------------
     Multipole            Electronic (a.u.)      Nuclear  (a.u.)        Total (a.u.)
 ------------------------------------------------------------------------------------

 L = 1.  Multiply by 2.5417464519 to convert [e a0] to [Debye]
 Dipole X            :         -0.0005485            0.0000481           -0.0005005
 Dipole Y            :          0.0010522           -0.0001453            0.0009070
 Dipole Z            :         27.6544179          -36.7818456           -9.1274278
 Magnitude           :                                                    9.1274278

 ------------------------------------------------------------------------------------

*** tstop() called on d-6-8-1 at Sat Jan 20 23:48:53 2024
Module time:
	user time   =    3548.68 seconds =      59.14 minutes
	system time =      91.39 seconds =       1.52 minutes
	total time  =        415 seconds =       6.92 minutes
Total time:
	user time   =    3548.68 seconds =      59.14 minutes
	system time =      91.39 seconds =       1.52 minutes
	total time  =        415 seconds =       6.92 minutes

  //>>>>>>>>>>>>>>>>>>>>>>>>>>>>>>>>>>>//
  //            Monomer A HF           //
  //<<<<<<<<<<<<<<<<<<<<<<<<<<<<<<<<<<<//

   => Libint2 <=

    Primary   basis highest AM E, G, H:  7, 7, 4
    Auxiliary basis highest AM E, G, H:  7, 7, 5
    Onebody   basis highest AM E, G, H:  7, 7, 5
    Solid Harmonics ordering:            gaussian

*** tstart() called on d-6-8-1
*** at Sat Jan 20 23:48:53 2024

   => Loading Basis Set <=

    Name: JUN-CC-PVDZ
    Role: ORBITAL
    Keyword: BASIS
    atoms 1     entry B          line   130 file /home/gridsan/tfroembgen/.conda/envs/psi4test/share/psi4/basis/jun-cc-pvdz.gbs 
    atoms 2-5   entry F          line   266 file /home/gridsan/tfroembgen/.conda/envs/psi4test/share/psi4/basis/jun-cc-pvdz.gbs 
    atoms 6-59  entry C          line   164 file /home/gridsan/tfroembgen/.conda/envs/psi4test/share/psi4/basis/jun-cc-pvdz.gbs 
    atoms 60-77 entry H          line    36 file /home/gridsan/tfroembgen/.conda/envs/psi4test/share/psi4/basis/jun-cc-pvdz.gbs 


         ---------------------------------------------------------
                                   SCF
               by Justin Turney, Rob Parrish, Andy Simmonett
                          and Daniel G. A. Smith
                              RHF Reference
                       12 Threads,  30517 MiB Core
         ---------------------------------------------------------

  ==> Geometry <==

    Molecular point group: c1
    Full point group: C1

    Geometry (in Angstrom), charge = -1, multiplicity = 1:

       Center              X                  Y                   Z               Mass       
    ------------   -----------------  -----------------  -----------------  -----------------
         B           -0.000198161052     0.000273808717     5.306918203937    11.009305360000
         F           -0.000000401852    -0.000000464183     6.719703203937    18.998403162730
         F            1.147859598148     0.675780735817     4.835777203937    18.998403162730
         F            0.011917658148    -1.332011464183     4.835979203937    18.998403162730
         F           -1.159666401852     0.656073035817     4.836058203937    18.998403162730
      Gh(C)           1.225311973413     0.707538196736    -0.686978168779    12.000000000000
      Gh(C)           1.225323934041    -0.707538986754    -0.699308978350    12.000000000000
      Gh(C)          -0.000006075942     1.414965821907    -0.699842601871    12.000000000000
      Gh(C)           2.456448831939     1.418327794995    -0.684091311380    12.000000000000
      Gh(C)           0.000010905269    -1.414976590818    -0.689643044546    12.000000000000
      Gh(C)          -1.225300870919     0.707545281801    -0.684726648457    12.000000000000
      Gh(C)           2.456437833310    -1.418323396064    -0.701554135207    12.000000000000
      Gh(C)          -0.000001254988     2.836800939098    -0.702246152005    12.000000000000
      Gh(C)           3.681826775460     0.709317863818    -0.701205345409    12.000000000000
      Gh(C)           2.455120126855     2.834223569306    -0.701307902369    12.000000000000
      Gh(C)           3.681821183209    -0.709333931612    -0.685132861390    12.000000000000
      Gh(C)          -1.225313520698    -0.707527607727    -0.698236216923    12.000000000000
      Gh(C)           1.226699659192     3.543469391811    -0.684948829460    12.000000000000
      Gh(C)           0.000004862847    -2.836782231419    -0.684794876924    12.000000000000
      Gh(C)          -2.456435954859     1.418316826102    -0.684691252611    12.000000000000
      Gh(C)           2.455123495769    -2.834230120772    -0.685284769758    12.000000000000
      Gh(C)          -1.226714286599     3.543468971567    -0.684845496240    12.000000000000
      Gh(C)           4.914517373191     1.427172780306    -0.694724662379    12.000000000000
      Gh(C)           3.693150269466     3.542795200362    -0.694674862743    12.000000000000
      Gh(C)          -2.456437522078    -1.418313373022    -0.701579173331    12.000000000000
      Gh(C)           1.226704919933    -3.543474334090    -0.700918960209    12.000000000000
      Gh(C)          -2.455125320518     2.834216570451    -0.701301526023    12.000000000000
      Gh(C)           4.914524458772    -1.427187002127    -0.691751919645    12.000000000000
      Gh(C)           1.221424691688     4.970133973077    -0.691613485385    12.000000000000
      Gh(C)           4.893008307311     2.825187907843    -0.693507994021    12.000000000000
      Gh(C)          -1.226696930499    -3.543471089260    -0.700651755800    12.000000000000
      Gh(C)          -3.681818898536     0.709324874549    -0.701192664929    12.000000000000
      Gh(C)           3.693147179140    -3.542801433574    -0.691634029084    12.000000000000
      Gh(C)          -1.221432174004     4.970128205680    -0.691429990012    12.000000000000
      Gh(C)           6.134771050916     0.680547854922    -0.693954887829    12.000000000000
      Gh(C)           3.656788958600     4.972953151384    -0.693766224960    12.000000000000
      Gh(C)          -2.455126829744    -2.834215185244    -0.685529127556    12.000000000000
      Gh(C)          -3.681819101071    -0.709325795652    -0.685015239812    12.000000000000
      Gh(C)           4.893012695903    -2.825200197815    -0.692896842125    12.000000000000
      Gh(C)          -0.000000995123     5.650447273849    -0.692661298719    12.000000000000
      Gh(C)           6.134775190322    -0.680554946258    -0.692689567314    12.000000000000
      Gh(C)           2.478131560845     5.653576659148    -0.692477445311    12.000000000000
      Gh(C)           1.221422482727    -4.970127147116    -0.694412982408    12.000000000000
      Gh(C)          -3.693162305975     3.542796862009    -0.694509355284    12.000000000000
      Gh(C)          -1.221428442955    -4.970118395779    -0.694525744240    12.000000000000
      Gh(C)          -4.914521729952     1.427175354812    -0.694647717372    12.000000000000
      Gh(C)           3.656787097669    -4.972955318422    -0.692315724426    12.000000000000
      Gh(C)          -2.478138452116     5.653574330345    -0.692192920302    12.000000000000
      Gh(C)          -3.693141660574    -3.542790311162    -0.691750155240    12.000000000000
      Gh(C)          -4.914512405063    -1.427181092211    -0.691717222471    12.000000000000
      Gh(C)          -0.000005930936    -5.650438379197    -0.693056802840    12.000000000000
      Gh(C)          -4.893020406111     2.825188506736    -0.693518075881    12.000000000000
      Gh(C)           2.478126071288    -5.653573636072    -0.693406325219    12.000000000000
      Gh(C)          -3.656798632268     4.972956089858    -0.693589544586    12.000000000000
      Gh(C)          -4.892999400866    -2.825191859243    -0.693050877823    12.000000000000
      Gh(C)          -2.478128420093    -5.653566262190    -0.693681512866    12.000000000000
      Gh(C)          -6.134770425341     0.680548674073    -0.693980439532    12.000000000000
      Gh(C)          -3.656788755199    -4.972944115154    -0.692530012243    12.000000000000
      Gh(C)          -6.134764964923    -0.680554007665    -0.692710043109    12.000000000000
      Gh(H)           5.835288573806     3.369275802771    -0.689148668358     1.007825032230
      Gh(H)           7.073859250737     1.228217156716    -0.693493244436     1.007825032230
      Gh(H)           4.600663342164     5.512380710270    -0.693261024208     1.007825032230
      Gh(H)           5.835283465295    -3.369306148912    -0.697351309440     1.007825032230
      Gh(H)          -0.000012073316     6.738530581953    -0.697010543727     1.007825032230
      Gh(H)           7.073861249820    -1.228227034927    -0.693198305408     1.007825032230
      Gh(H)           2.473313809789     6.740684199211    -0.692944166241     1.007825032230
      Gh(H)           4.600668569371    -5.512376221359    -0.692725721595     1.007825032230
      Gh(H)          -2.473318602548     6.740681627423    -0.692642819616     1.007825032230
      Gh(H)          -0.000010190238    -6.738528268635    -0.688527117856     1.007825032230
      Gh(H)          -5.835301836354     3.369270858113    -0.689012646210     1.007825032230
      Gh(H)           2.473308001821    -6.740685466612    -0.692835994794     1.007825032230
      Gh(H)          -4.600674763218     5.512377934420    -0.693095695885     1.007825032230
      Gh(H)          -5.835279428845    -3.369289055963    -0.697630615320     1.007825032230
      Gh(H)          -2.473300269450    -6.740679170323    -0.693285311338     1.007825032230
      Gh(H)          -7.073857688778     1.228220380657    -0.693577235917     1.007825032230
      Gh(H)          -4.600673708095    -5.512362761970    -0.692898029617     1.007825032230
      Gh(H)          -7.073856856419    -1.228220724160    -0.693293161874     1.007825032230

  Running in c1 symmetry.

  Rotational constants: A =      0.00161  B =      0.00161  C =      0.00110 [cm^-1]
  Rotational constants: A =     48.25855  B =     48.25316  C =     33.02251 [MHz]
  Nuclear repulsion =  178.879455044809106

  Charge       = -1
  Multiplicity = 1
  Electrons    = 42
  Nalpha       = 21
  Nbeta        = 21

  ==> Algorithm <==

  SCF Algorithm Type is DF.
  DIIS enabled.
  MOM disabled.
  Fractional occupation disabled.
  Guess Type is SAD.
  Energy threshold   = 1.00e-08
  Density threshold  = 1.00e-08
  Integral threshold = 1.00e-12

  ==> Primary Basis <==

  Basis Set: JUN-CC-PVDZ
    Blend: JUN-CC-PVDZ
    Number of shells: 526
    Number of basis functions: 1152
    Number of Cartesian functions: 1211
    Spherical Harmonics?: true
    Max angular momentum: 2

   => Loading Basis Set <=

    Name: (JUN-CC-PVDZ AUX)
    Role: JKFIT
    Keyword: DF_BASIS_SCF
    atoms 1     entry B          line    90 file /home/gridsan/tfroembgen/.conda/envs/psi4test/share/psi4/basis/jun-cc-pvdz-jkfit.gbs 
    atoms 2-5   entry F          line   314 file /home/gridsan/tfroembgen/.conda/envs/psi4test/share/psi4/basis/jun-cc-pvdz-jkfit.gbs 
    atoms 6-59  entry C          line   146 file /home/gridsan/tfroembgen/.conda/envs/psi4test/share/psi4/basis/jun-cc-pvdz-jkfit.gbs 
    atoms 60-77 entry H          line    70 file /home/gridsan/tfroembgen/.conda/envs/psi4test/share/psi4/basis/jun-cc-pvdz-jkfit.gbs 

  ==> Integral Setup <==

  ==> DiskDFJK: Density-Fitted J/K Matrices <==

    J tasked:                  Yes
    K tasked:                  Yes
    wK tasked:                  No
    OpenMP threads:             12
    Integrals threads:          12
    Memory [MiB]:            22888
    Algorithm:                Core
    Integral Cache:           LOAD
    Schwarz Cutoff:          1E-12
    Fitting Condition:       1E-10

   => Auxiliary Basis Set <=

  Basis Set: (JUN-CC-PVDZ AUX)
    Blend: JUN-CC-PVDZ-JKFIT
    Number of shells: 1755
    Number of basis functions: 5075
    Number of Cartesian functions: 5819
    Spherical Harmonics?: true
    Max angular momentum: 3

  Minimum eigenvalue in the overlap matrix is 8.3802054147E-10.
  Reciprocal condition number of the overlap matrix is 3.7323753201E-11.
    Using canonical orthogonalization.
  Overall, 14 of 1152 possible MOs eliminated.


  ==> Pre-Iterations <==

  SCF Guess: Superposition of Atomic Densities via on-the-fly atomic UHF (no occupation information).

   -------------------------
    Irrep   Nso     Nmo    
   -------------------------
     A       1152    1138 
   -------------------------
    Total    1152    1138
   -------------------------

  ==> Iterations <==

                           Total Energy        Delta E     RMS |[F,P]|

   @DF-RHF iter SAD:  -421.23044353116427   -4.21230e+02   0.00000e+00 
   @DF-RHF iter   1:  -422.64983017913551   -1.41939e+00   5.29895e-04 ADIIS/DIIS
   @DF-RHF iter   2:  -422.73263433048237   -8.28042e-02   3.23039e-04 ADIIS/DIIS
   @DF-RHF iter   3:  -422.77120825122057   -3.85739e-02   1.73969e-05 DIIS
   @DF-RHF iter   4:  -422.77156888519113   -3.60634e-04   2.75380e-06 DIIS
   @DF-RHF iter   5:  -422.77157753374939   -8.64856e-06   7.03506e-07 DIIS
   @DF-RHF iter   6:  -422.77157809416542   -5.60416e-07   1.45137e-07 DIIS
   @DF-RHF iter   7:  -422.77157811523386   -2.10684e-08   1.58534e-08 DIIS
   @DF-RHF iter   8:  -422.77157811545379   -2.19927e-10   6.59762e-09 DIIS
  Energy and wave function converged.


  ==> Post-Iterations <==

    Orbital Energies [Eh]
    ---------------------

    Doubly Occupied:                                                      

       1A    -26.067085     2A    -26.067022     3A    -26.066989  
       4A    -26.066905     5A     -7.539234     6A     -1.410938  
       7A     -1.351233     8A     -1.351184     9A     -1.351046  
      10A     -0.602215    11A     -0.528423    12A     -0.528395  
      13A     -0.528336    14A     -0.447283    15A     -0.447241  
      16A     -0.408450    17A     -0.408415    18A     -0.408355  
      19A     -0.384974    20A     -0.384928    21A     -0.384883  

    Virtual:                                                              

      22A      0.082146    23A      0.083603    24A      0.083606  
      25A      0.091325    26A      0.091329    27A      0.103081  
      28A      0.103901    29A      0.106249    30A      0.119846  
      31A      0.119848    32A      0.122236    33A      0.122240  
      34A      0.132906    35A      0.137722    36A      0.137737  
      37A      0.138712    38A      0.138725    39A      0.139449  
      40A      0.139468    41A      0.147802    42A      0.150911  
      43A      0.150916    44A      0.159036    45A      0.159648  
      46A      0.160618    47A      0.165393    48A      0.170248  
      49A      0.171396    50A      0.172706    51A      0.172713  
      52A      0.173436    53A      0.179945    54A      0.179960  
      55A      0.181607    56A      0.181613    57A      0.187624  
      58A      0.187659    59A      0.188605    60A      0.189864  
      61A      0.189880    62A      0.193121    63A      0.193124  
      64A      0.196489    65A      0.196507    66A      0.197188  
      67A      0.202955    68A      0.202970    69A      0.207112  
      70A      0.207115    71A      0.211977    72A      0.212411  
      73A      0.212419    74A      0.213080    75A      0.216618  
      76A      0.216625    77A      0.217351    78A      0.219786  
      79A      0.219799    80A      0.222433    81A      0.225992  
      82A      0.225995    83A      0.228351    84A      0.234334  
      85A      0.238272    86A      0.238274    87A      0.238874  
      88A      0.239422    89A      0.242180    90A      0.243893  
      91A      0.243935    92A      0.252541    93A      0.253012  
      94A      0.253020    95A      0.254059    96A      0.254200  
      97A      0.256333    98A      0.257275    99A      0.262839  
     100A      0.262840   101A      0.266850   102A      0.266868  
     103A      0.270032   104A      0.270045   105A      0.274416  
     106A      0.274423   107A      0.275284   108A      0.277656  
     109A      0.277675   110A      0.282226   111A      0.282230  
     112A      0.283467   113A      0.288185   114A      0.289865  
     115A      0.289873   116A      0.293917   117A      0.295008  
     118A      0.295039   119A      0.296443   120A      0.296452  
     121A      0.301116   122A      0.307358   123A      0.308130  
     124A      0.313247   125A      0.313262   126A      0.315117  
     127A      0.316036   128A      0.316042   129A      0.321453  
     130A      0.321465   131A      0.322803   132A      0.322805  
     133A      0.327018   134A      0.327053   135A      0.331595  
     136A      0.337292   137A      0.337302   138A      0.341186  
     139A      0.342416   140A      0.343234   141A      0.343258  
     142A      0.345812   143A      0.346869   144A      0.346877  
     145A      0.347121   146A      0.347127   147A      0.355317  
     148A      0.356439   149A      0.359209   150A      0.364815  
     151A      0.364843   152A      0.366331   153A      0.370782  
     154A      0.370821   155A      0.376880   156A      0.384360  
     157A      0.384374   158A      0.385211   159A      0.386015  
     160A      0.386033   161A      0.391238   162A      0.391601  
     163A      0.391650   164A      0.395420   165A      0.395424  
     166A      0.396681   167A      0.402117   168A      0.404824  
     169A      0.404932   170A      0.406385   171A      0.407503  
     172A      0.407579   173A      0.417354   174A      0.419098  
     175A      0.419130   176A      0.424722   177A      0.424942  
     178A      0.425707   179A      0.429607   180A      0.430667  
     181A      0.430683   182A      0.431023   183A      0.432297  
     184A      0.435103   185A      0.435455   186A      0.435531  
     187A      0.438314   188A      0.438393   189A      0.441222  
     190A      0.446023   191A      0.446103   192A      0.446217  
     193A      0.448107   194A      0.448542   195A      0.450703  
     196A      0.450751   197A      0.454893   198A      0.454938  
     199A      0.458427   200A      0.466262   201A      0.466310  
     202A      0.468299   203A      0.468410   204A      0.474239  
     205A      0.477924   206A      0.477975   207A      0.480562  
     208A      0.484018   209A      0.486231   210A      0.486262  
     211A      0.491735   212A      0.492497   213A      0.496283  
     214A      0.496300   215A      0.498628   216A      0.498706  
     217A      0.499022   218A      0.503656   219A      0.504705  
     220A      0.504772   221A      0.506525   222A      0.506593  
     223A      0.509833   224A      0.511469   225A      0.511679  
     226A      0.512230   227A      0.512283   228A      0.514278  
     229A      0.518066   230A      0.519419   231A      0.519467  
     232A      0.522529   233A      0.523120   234A      0.523972  
     235A      0.533214   236A      0.536650   237A      0.536699  
     238A      0.538580   239A      0.538615   240A      0.542753  
     241A      0.548099   242A      0.548134   243A      0.549662  
     244A      0.549917   245A      0.549939   246A      0.551962  
     247A      0.553343   248A      0.553349   249A      0.561785  
     250A      0.563217   251A      0.563242   252A      0.565545  
     253A      0.565751   254A      0.567791   255A      0.570823  
     256A      0.571326   257A      0.572194   258A      0.575704  
     259A      0.581883   260A      0.581913   261A      0.585809  
     262A      0.591519   263A      0.591545   264A      0.592426  
     265A      0.594375   266A      0.594505   267A      0.594674  
     268A      0.595355   269A      0.598345   270A      0.598373  
     271A      0.598874   272A      0.610085   273A      0.614441  
     274A      0.614484   275A      0.615050   276A      0.616593  
     277A      0.622807   278A      0.622932   279A      0.629272  
     280A      0.633909   281A      0.633918   282A      0.635527  
     283A      0.635580   284A      0.635625   285A      0.641720  
     286A      0.641772   287A      0.643967   288A      0.646700  
     289A      0.646717   290A      0.647278   291A      0.655571  
     292A      0.659794   293A      0.659845   294A      0.660563  
     295A      0.662973   296A      0.662977   297A      0.665654  
     298A      0.676267   299A      0.676305   300A      0.676949  
     301A      0.676972   302A      0.679645   303A      0.679660  
     304A      0.679898   305A      0.685536   306A      0.685548  
     307A      0.692148   308A      0.692169   309A      0.693246  
     310A      0.702493   311A      0.702719   312A      0.705563  
     313A      0.710093   314A      0.711702   315A      0.711711  
     316A      0.713643   317A      0.713681   318A      0.713997  
     319A      0.719090   320A      0.719166   321A      0.720453  
     322A      0.728161   323A      0.734617   324A      0.738623  
     325A      0.743229   326A      0.744604   327A      0.744623  
     328A      0.745878   329A      0.748170   330A      0.748182  
     331A      0.755706   332A      0.759655   333A      0.759660  
     334A      0.765686   335A      0.765733   336A      0.767366  
     337A      0.767450   338A      0.776713   339A      0.776739  
     340A      0.782842   341A      0.782882   342A      0.785727  
     343A      0.785771   344A      0.794319   345A      0.795426  
     346A      0.795468   347A      0.796593   348A      0.796849  
     349A      0.799447   350A      0.808426   351A      0.810519  
     352A      0.810528   353A      0.819377   354A      0.819802  
     355A      0.825245   356A      0.825606   357A      0.825614  
     358A      0.831590   359A      0.837416   360A      0.837436  
     361A      0.841834   362A      0.841858   363A      0.842187  
     364A      0.843116   365A      0.847425   366A      0.849492  
     367A      0.849672   368A      0.853201   369A      0.853226  
     370A      0.856885   371A      0.862931   372A      0.863887  
     373A      0.863999   374A      0.864028   375A      0.867886  
     376A      0.867963   377A      0.869669   378A      0.869720  
     379A      0.872066   380A      0.874809   381A      0.883093  
     382A      0.901421   383A      0.901425   384A      0.914252  
     385A      0.914274   386A      0.938729   387A      0.938873  
     388A      0.943066   389A      0.944279   390A      0.944390  
     391A      0.946861   392A      0.949352   393A      0.949365  
     394A      0.957696   395A      0.957740   396A      0.964712  
     397A      0.964743   398A      0.965875   399A      0.969584  
     400A      0.974768   401A      1.001264   402A      1.001281  
     403A      1.003221   404A      1.016010   405A      1.024536  
     406A      1.024561   407A      1.035191   408A      1.035235  
     409A      1.043052   410A      1.049521   411A      1.057915  
     412A      1.057930   413A      1.076864   414A      1.078770  
     415A      1.102339   416A      1.102396   417A      1.122664  
     418A      1.122724   419A      1.127229   420A      1.128615  
     421A      1.128628   422A      1.139296   423A      1.139335  
     424A      1.163563   425A      1.165873   426A      1.165892  
     427A      1.173910   428A      1.227038   429A      1.227108  
     430A      1.230931   431A      1.231078   432A      1.234595  
     433A      1.245273   434A      1.246982   435A      1.246988  
     436A      1.266256   437A      1.266305   438A      1.285263  
     439A      1.288558   440A      1.288566   441A      1.294376  
     442A      1.302647   443A      1.346450   444A      1.346571  
     445A      1.360216   446A      1.367095   447A      1.367150  
     448A      1.375507   449A      1.375644   450A      1.375679  
     451A      1.389260   452A      1.389355   453A      1.398201  
     454A      1.398731   455A      1.401866   456A      1.429561  
     457A      1.441594   458A      1.441638   459A      1.488251  
     460A      1.516752   461A      1.517290   462A      1.534497  
     463A      1.534520   464A      1.540472   465A      1.541566  
     466A      1.541657   467A      1.544554   468A      1.554667  
     469A      1.555543   470A      1.619673   471A      1.627112  
     472A      1.627246   473A      1.630814   474A      1.632072  
     475A      1.639484   476A      1.641368   477A      1.641441  
     478A      1.648304   479A      1.698746   480A      1.709222  
     481A      1.711375   482A      1.722626   483A      1.725330  
     484A      1.732574   485A      1.739858   486A      1.739962  
     487A      1.758478   488A      1.758868   489A      1.759817  
     490A      1.760687   491A      1.775863   492A      1.811930  
     493A      1.813495   494A      1.813592   495A      1.814687  
     496A      1.816676   497A      1.821420   498A      1.825748  
     499A      1.826049   500A      1.831597   501A      1.840504  
     502A      1.840578   503A      1.847940   504A      1.859841  
     505A      1.861203   506A      1.867431   507A      1.867796  
     508A      1.876497   509A      1.884724   510A      1.896172  
     511A      1.896615   512A      1.898280   513A      1.898585  
     514A      1.898937   515A      1.899633   516A      1.901437  
     517A      1.904405   518A      1.905047   519A      1.910310  
     520A      1.910363   521A      1.916315   522A      1.916543  
     523A      1.920173   524A      1.928261   525A      1.928975  
     526A      1.945262   527A      1.946122   528A      1.946245  
     529A      1.949610   530A      1.952489   531A      1.954913  
     532A      1.955279   533A      1.961045   534A      1.961323  
     535A      1.967683   536A      1.967748   537A      1.977363  
     538A      1.977513   539A      1.978349   540A      1.980926  
     541A      1.981646   542A      1.983236   543A      1.989136  
     544A      1.989546   545A      1.997695   546A      1.998318  
     547A      2.004231   548A      2.004457   549A      2.005019  
     550A      2.006623   551A      2.007226   552A      2.007749  
     553A      2.012027   554A      2.023953   555A      2.024049  
     556A      2.039526   557A      2.040915   558A      2.041276  
     559A      2.043873   560A      2.044464   561A      2.044624  
     562A      2.053504   563A      2.053546   564A      2.054409  
     565A      2.057695   566A      2.057752   567A      2.064113  
     568A      2.066428   569A      2.068851   570A      2.068873  
     571A      2.071439   572A      2.071559   573A      2.072058  
     574A      2.076385   575A      2.091776   576A      2.091828  
     577A      2.099608   578A      2.099864   579A      2.127307  
     580A      2.137763   581A      2.137806   582A      2.142413  
     583A      2.148782   584A      2.149311   585A      2.149453  
     586A      2.150288   587A      2.156377   588A      2.156585  
     589A      2.164291   590A      2.164509   591A      2.167494  
     592A      2.169263   593A      2.173290   594A      2.184778  
     595A      2.184855   596A      2.189160   597A      2.192192  
     598A      2.196456   599A      2.199067   600A      2.199119  
     601A      2.208647   602A      2.208680   603A      2.208952  
     604A      2.209896   605A      2.209905   606A      2.218065  
     607A      2.218122   608A      2.218218   609A      2.219158  
     610A      2.219419   611A      2.219465   612A      2.223285  
     613A      2.224628   614A      2.224680   615A      2.230002  
     616A      2.230014   617A      2.231833   618A      2.233681  
     619A      2.233700   620A      2.237218   621A      2.239803  
     622A      2.239855   623A      2.241198   624A      2.245595  
     625A      2.245946   626A      2.246067   627A      2.247503  
     628A      2.248006   629A      2.248047   630A      2.250963  
     631A      2.251148   632A      2.254282   633A      2.254782  
     634A      2.254812   635A      2.258841   636A      2.259020  
     637A      2.265216   638A      2.266159   639A      2.268571  
     640A      2.270864   641A      2.271005   642A      2.288438  
     643A      2.288464   644A      2.307384   645A      2.308019  
     646A      2.313467   647A      2.313487   648A      2.318350  
     649A      2.318527   650A      2.321137   651A      2.321152  
     652A      2.324403   653A      2.338114   654A      2.338997  
     655A      2.339116   656A      2.343831   657A      2.343911  
     658A      2.345037   659A      2.355617   660A      2.355639  
     661A      2.361773   662A      2.361795   663A      2.368089  
     664A      2.379193   665A      2.379245   666A      2.387118  
     667A      2.398288   668A      2.398391   669A      2.399335  
     670A      2.399451   671A      2.403147   672A      2.409730  
     673A      2.415314   674A      2.415324   675A      2.420305  
     676A      2.429234   677A      2.430113   678A      2.437610  
     679A      2.437704   680A      2.440784   681A      2.440916  
     682A      2.441415   683A      2.441504   684A      2.442490  
     685A      2.446873   686A      2.449184   687A      2.449240  
     688A      2.449604   689A      2.459957   690A      2.460119  
     691A      2.460661   692A      2.463340   693A      2.467576  
     694A      2.479772   695A      2.479852   696A      2.486775  
     697A      2.488819   698A      2.489035   699A      2.491988  
     700A      2.492016   701A      2.500596   702A      2.501787  
     703A      2.501857   704A      2.517443   705A      2.517463  
     706A      2.517883   707A      2.521840   708A      2.525909  
     709A      2.525979   710A      2.533018   711A      2.533235  
     712A      2.536530   713A      2.538730   714A      2.542129  
     715A      2.542184   716A      2.545959   717A      2.556019  
     718A      2.556106   719A      2.556149   720A      2.572418  
     721A      2.572421   722A      2.575121   723A      2.575157  
     724A      2.584510   725A      2.594017   726A      2.596928  
     727A      2.605551   728A      2.605610   729A      2.612440  
     730A      2.613252   731A      2.618839   732A      2.618960  
     733A      2.619384   734A      2.619422   735A      2.627266  
     736A      2.630224   737A      2.630282   738A      2.635182  
     739A      2.642906   740A      2.650361   741A      2.650511  
     742A      2.655477   743A      2.675184   744A      2.675244  
     745A      2.693025   746A      2.695022   747A      2.695100  
     748A      2.702209   749A      2.702260   750A      2.702734  
     751A      2.702762   752A      2.703212   753A      2.717362  
     754A      2.719700   755A      2.719996   756A      2.722980  
     757A      2.727209   758A      2.727613   759A      2.729194  
     760A      2.729228   761A      2.746121   762A      2.746297  
     763A      2.761994   764A      2.762044   765A      2.770891  
     766A      2.771161   767A      2.777785   768A      2.780633  
     769A      2.781414   770A      2.784848   771A      2.785094  
     772A      2.789153   773A      2.789197   774A      2.794370  
     775A      2.794452   776A      2.814179   777A      2.814343  
     778A      2.815261   779A      2.816391   780A      2.816506  
     781A      2.819884   782A      2.828560   783A      2.828637  
     784A      2.829366   785A      2.838786   786A      2.843284  
[...]
     709A      1.372195   710A      1.380086   711A      1.391696  
     712A      1.404373   713A      1.405012   714A      1.405044  
     715A      1.408546   716A      1.408581   717A      1.412943  
     718A      1.412996   719A      1.420082   720A      1.423152  
     721A      1.429060   722A      1.429108   723A      1.429635  
     724A      1.434763   725A      1.436386   726A      1.436418  
     727A      1.440035   728A      1.440315   729A      1.440423  
     730A      1.446195   731A      1.448921   732A      1.448962  
     733A      1.450533   734A      1.464865   735A      1.464887  
     736A      1.475993   737A      1.476154   738A      1.516604  
     739A      1.516615   740A      1.521510   741A      1.521536  
     742A      1.532370   743A      1.552359   744A      1.577533  
     745A      1.599793   746A      1.600355   747A      1.600539  
     748A      1.609049   749A      1.609306   750A      1.609350  
     751A      1.613023   752A      1.613208   753A      1.615183  
     754A      1.622527   755A      1.622613   756A      1.627312  
     757A      1.631712   758A      1.632016   759A      1.640575  
     760A      1.640590   761A      1.643547   762A      1.644007  
     763A      1.644099   764A      1.644611   765A      1.652813  
     766A      1.652839   767A      1.655387   768A      1.661402  
     769A      1.661421   770A      1.663014   771A      1.667609  
     772A      1.676424   773A      1.676444   774A      1.676821  
     775A      1.676895   776A      1.677059   777A      1.683880  
     778A      1.686796   779A      1.686847   780A      1.696093  
     781A      1.698801   782A      1.699151   783A      1.699195  
     784A      1.701586   785A      1.704821   786A      1.704895  
     787A      1.715904   788A      1.715926   789A      1.741696  
     790A      1.746724   791A      1.746909   792A      1.751458  
     793A      1.760535   794A      1.760556   795A      1.761080  
     796A      1.761918   797A      1.776874   798A      1.776897  
     799A      1.791705   800A      1.791725   801A      1.816799  
     802A      1.816841   803A      1.817450   804A      1.819662  
     805A      1.824700   806A      1.824799   807A      1.831282  
     808A      1.831337   809A      1.837067   810A      1.840714  
     811A      1.842417   812A      1.843318   813A      1.861026  
     814A      1.861076   815A      1.863666   816A      1.863735  
     817A      1.864174   818A      1.869392   819A      1.872789  
     820A      1.880195   821A      1.880248   822A      1.896280  
     823A      1.896370   824A      1.899759   825A      1.903013  
     826A      1.903135   827A      1.908580   828A      1.908733  
     829A      1.915079   830A      1.915344   831A      1.917739  
     832A      1.917886   833A      1.919255   834A      1.922050  
     835A      1.922135   836A      1.940469   837A      1.942161  
     838A      1.942378   839A      1.942553   840A      1.946776  
     841A      1.946806   842A      1.954610   843A      1.954682  
     844A      1.955643   845A      1.955679   846A      1.958034  
     847A      1.972409   848A      1.983806   849A      1.983856  
     850A      1.991023   851A      1.997130   852A      1.998812  
     853A      1.998820   854A      2.005751   855A      2.008343  
     856A      2.012644   857A      2.012814   858A      2.027882  
     859A      2.029435   860A      2.030353   861A      2.030857  
     862A      2.030896   863A      2.031521   864A      2.031600  
     865A      2.048147   866A      2.052358   867A      2.052706  
     868A      2.058045   869A      2.058512   870A      2.061683  
     871A      2.062098   872A      2.068665   873A      2.071610  
     874A      2.072174   875A      2.072537   876A      2.077762  
     877A      2.077786   878A      2.083105   879A      2.086801  
     880A      2.086864   881A      2.093426   882A      2.095151  
     883A      2.096578   884A      2.096872   885A      2.100643  
     886A      2.100705   887A      2.108326   888A      2.108385  
     889A      2.108920   890A      2.111304   891A      2.111516  
     892A      2.115590   893A      2.115735   894A      2.119584  
     895A      2.119649   896A      2.121033   897A      2.121095  
     898A      2.127038   899A      2.127122   900A      2.134345  
     901A      2.134592   902A      2.136048   903A      2.136117  
     904A      2.143226   905A      2.143248   906A      2.156355  
     907A      2.160034   908A      2.160098   909A      2.163129  
     910A      2.163190   911A      2.171471   912A      2.178767  
     913A      2.178836   914A      2.190622   915A      2.191007  
     916A      2.192515   917A      2.193870   918A      2.195816  
     919A      2.195909   920A      2.199969   921A      2.219686  
     922A      2.220325   923A      2.220356   924A      2.228128  
     925A      2.228685   926A      2.229634   927A      2.229891  
     928A      2.243306   929A      2.243655   930A      2.244151  
     931A      2.244569   932A      2.247336   933A      2.260198  
     934A      2.260308   935A      2.270258   936A      2.270268  
     937A      2.272121   938A      2.272166   939A      2.281060  
     940A      2.300199   941A      2.306684   942A      2.310657  
     943A      2.312537   944A      2.321271   945A      2.322530  
     946A      2.331052   947A      2.331159   948A      2.331166  
     949A      2.334119   950A      2.350831   951A      2.351508  
     952A      2.352574   953A      2.352664   954A      2.366411  
     955A      2.366537   956A      2.374701   957A      2.379910  
     958A      2.415946   959A      2.424019   960A      2.424415  
     961A      2.424439   962A      2.436464   963A      2.441242  
     964A      2.441284   965A      2.469998   966A      2.473020  
     967A      2.473171   968A      2.485599   969A      2.485613  
     970A      2.502312   971A      2.519735   972A      2.529861  
     973A      2.530307   974A      2.544914   975A      2.545940  
     976A      2.545968   977A      2.554509   978A      2.554572  
     979A      2.554829   980A      2.559910   981A      2.559914  
     982A      2.573017   983A      2.573051   984A      2.574682  
     985A      2.575233   986A      2.586144   987A      2.586261  
     988A      2.587401   989A      2.589802   990A      2.591403  
     991A      2.606637   992A      2.623744   993A      2.623793  
     994A      2.627038   995A      2.631504   996A      2.632043  
     997A      2.641309   998A      2.641371   999A      2.650847  
    1000A      2.651202  1001A      2.656864  1002A      2.682274  
    1003A      2.683447  1004A      2.684027  1005A      2.687163  
    1006A      2.702180  1007A      2.702504  1008A      2.713043  
    1009A      2.713050  1010A      2.718762  1011A      2.718783  
    1012A      2.723028  1013A      2.723259  1014A      2.739122  
    1015A      2.752357  1016A      2.752743  1017A      2.777578  
    1018A      2.794818  1019A      2.794977  1020A      2.816628  
    1021A      2.821760  1022A      2.822407  1023A      2.823349  
    1024A      2.827113  1025A      2.828157  1026A      2.852798  
    1027A      2.852962  1028A      2.856062  1029A      2.858344  
    1030A      2.859608  1031A      2.859704  1032A      2.869335  
    1033A      2.917187  1034A      2.917213  1035A      2.924610  
    1036A      2.933624  1037A      2.933684  1038A      2.949778  
    1039A      2.949796  1040A      2.963098  1041A      3.008506  
    1042A      3.008652  1043A      3.011884  1044A      3.029587  
    1045A      3.064266  1046A      3.064311  1047A      3.070703  
    1048A      3.070820  1049A      3.109737  1050A      3.110537  
    1051A      3.128620  1052A      3.129922  1053A      3.130173  
    1054A      3.137464  1055A      3.146664  1056A      3.146706  
    1057A      3.147168  1058A      3.149344  1059A      3.149358  
    1060A      3.158132  1061A      3.158484  1062A      3.166149  
    1063A      3.166567  1064A      3.191777  1065A      3.211147  
    1066A      3.219332  1067A      3.237777  1068A      3.274085  
    1069A      3.276959  1070A      3.277106  1071A      3.282205  
    1072A      3.282375  1073A      3.416367  1074A      3.416839  
    1075A      3.443138  1076A      3.481432  1077A      3.484099  
    1078A      3.549508  1079A      3.577273  1080A      3.579272  
    1081A      3.593876  1082A      3.626663  1083A      3.628630  
    1084A      3.663110  1085A      3.669141  1086A      3.769238  
    1087A      3.782817  1088A      3.783763  1089A      3.870923  
    1090A      3.870930  1091A      3.913270  1092A      3.913385  
    1093A      3.976933  1094A      4.010909  1095A      4.033723  
    1096A      4.045499  1097A      4.081680  1098A      4.207663  
    1099A      4.213206  1100A      4.213394  1101A      4.337292  
    1102A      5.748926  1103A      5.748927  1104A      5.750234  
    1105A      5.754243  1106A      5.754254  1107A      5.760394  
    1108A      5.760396  1109A      5.760716  1110A      5.781262  
    1111A      5.781319  1112A      5.781847  1113A      6.020320  
    1114A      6.020652  1115A      6.021761  1116A      6.193740  
    1117A      6.327048  1118A      6.327377  1119A      6.375991  
    1120A      6.376347  1121A      6.377247  1122A      7.168846  
    1123A      7.168959  1124A      7.225855  1125A      7.225983  
    1126A      7.253663  1127A      7.271271  1128A      7.271335  
    1129A      7.284027  1130A      7.467665  1131A      7.470145  
    1132A      7.470333  1133A      7.614646  1134A     12.600532  
    1135A     42.910981  1136A     42.915764  1137A     42.915796  
    1138A     42.940548  

    Final Occupation by Irrep:
              A 
    DOCC [   171 ]
    NA   [   171 ]
    NB   [   171 ]

  @DF-RHF Final Energy: -2055.89189813348366

   => Energetics <=

    Nuclear Repulsion Energy =           6452.5568002797772351
    One-Electron Energy =              -15636.4345651459534565
    Two-Electron Energy =                7127.9858667326925570
    Total Energy =                      -2055.8918981334836644

Computation Completed


Properties will be evaluated at   0.000000,   0.000000,   0.000000 [a0]

Properties computed using the SCF density matrix


 Multipole Moments:

 ------------------------------------------------------------------------------------
     Multipole            Electronic (a.u.)      Nuclear  (a.u.)        Total (a.u.)
 ------------------------------------------------------------------------------------

 L = 1.  Multiply by 2.5417464519 to convert [e a0] to [Debye]
 Dipole X            :          0.0000479            0.0000419            0.0000898
 Dipole Y            :          0.0000253           -0.0000426           -0.0000173
 Dipole Z            :        447.9489980         -447.9527105           -0.0037124
 Magnitude           :                                                    0.0037136

 ------------------------------------------------------------------------------------

*** tstop() called on d-6-8-1 at Sat Jan 20 23:58:56 2024
Module time:
	user time   =    2401.38 seconds =      40.02 minutes
	system time =      74.23 seconds =       1.24 minutes
	total time  =        446 seconds =       7.43 minutes
Total time:
	user time   =    7197.15 seconds =     119.95 minutes
	system time =     190.84 seconds =       3.18 minutes
	total time  =       1018 seconds =      16.97 minutes
  Constructing Basis Sets for SAPT...

   => Loading Basis Set <=

    Name: (JUN-CC-PVDZ AUX)
    Role: RIFIT
    Keyword: DF_BASIS_SAPT
    atoms 1     entry B          line    56 file /home/gridsan/tfroembgen/.conda/envs/psi4test/share/psi4/basis/jun-cc-pvdz-ri.gbs 
    atoms 2-5   entry F          line   232 file /home/gridsan/tfroembgen/.conda/envs/psi4test/share/psi4/basis/jun-cc-pvdz-ri.gbs 
    atoms 6-59  entry C          line   100 file /home/gridsan/tfroembgen/.conda/envs/psi4test/share/psi4/basis/jun-cc-pvdz-ri.gbs 
    atoms 60-77 entry H          line    30 file /home/gridsan/tfroembgen/.conda/envs/psi4test/share/psi4/basis/jun-cc-pvdz-ri.gbs 

   => Loading Basis Set <=

    Name: (JUN-CC-PVDZ AUX)
    Role: JKFIT
    Keyword: DF_BASIS_ELST
    atoms 1     entry B          line    90 file /home/gridsan/tfroembgen/.conda/envs/psi4test/share/psi4/basis/jun-cc-pvdz-jkfit.gbs 
    atoms 2-5   entry F          line   314 file /home/gridsan/tfroembgen/.conda/envs/psi4test/share/psi4/basis/jun-cc-pvdz-jkfit.gbs 
    atoms 6-59  entry C          line   146 file /home/gridsan/tfroembgen/.conda/envs/psi4test/share/psi4/basis/jun-cc-pvdz-jkfit.gbs 
    atoms 60-77 entry H          line    70 file /home/gridsan/tfroembgen/.conda/envs/psi4test/share/psi4/basis/jun-cc-pvdz-jkfit.gbs 


  //>>>>>>>>>>>>>>>>>>>>>>>>>>>>>>>>>>>//
  //               SSAPT0              //
  //<<<<<<<<<<<<<<<<<<<<<<<<<<<<<<<<<<<//


*** tstart() called on d-6-8-1
*** at Sat Jan 20 23:58:57 2024

        SAPT0  
    Ed Hohenstein
     6 June 2009

      Orbital Information
  --------------------------
    NSO        =      1152
    NMO        =      1138
    NRI        =      4087
    NRI (Elst) =      5075
    NOCC A     =        21
    NOCC B     =       171
    FOCC A     =         5
    FOCC B     =        54
    NVIR A     =      1117
    NVIR B     =       967

    Elst10,r            =     0.009217815499 [Eh]
    Exch10              =     0.000000624285 [Eh]
    Exch10 (S^2)        =     0.000000624293 [Eh]

    Iter     Energy [mEh]          dE [mEh]         Residual      Time [s]
       1      -0.00703086       0.007030856       0.575635279           214
       2      -0.00818114       0.001150283       0.294882142           329
       3      -0.00860725       0.000426109       0.061157755           347
       4      -0.00862238       0.000015129       0.011885370           363
       5      -0.00860726      -0.000015119       0.001499715           376
       6      -0.00860878       0.000001522       0.000303237           389
       7      -0.00860871      -0.000000067       0.000070020           402
       8      -0.00860869      -0.000000023       0.000011689           416
       9      -0.00860869       0.000000001       0.000003675           430
      10      -0.00860869       0.000000001       0.000000650           445

    CHF Iterations converged


    Iter     Energy [mEh]          dE [mEh]         Residual      Time [s]
       1      -5.33724951       5.337249506      38.446132514           109
       2      -3.60838449      -1.728865015       4.905144013           154
       3      -3.60584045      -0.002544044       1.699301553           169
       4      -3.68960725       0.083766801       0.387293861           185
       5      -3.69378712       0.004179867       0.108091503           201
       6      -3.69219933      -0.001587785       0.050358554           248
       7      -3.69165873      -0.000540600       0.019978847           306
       8      -3.69188850       0.000229774       0.010471241           324
       9      -3.69197041       0.000081908       0.005644311           342
      10      -3.69191841      -0.000052003       0.004129981           358
      11      -3.69190771      -0.000010696       0.001900205           374
      12      -3.69191696       0.000009252       0.000880612           390
      13      -3.69192134       0.000004376       0.000348789           405
      14      -3.69192087      -0.000000474       0.000114091           421
      15      -3.69191986      -0.000001002       0.000034953           436
      16      -3.69191999       0.000000124       0.000020554           452
      17      -3.69192011       0.000000123       0.000009734           467
      18      -3.69192010      -0.000000013       0.000003270           483
      19      -3.69192008      -0.000000019       0.000001329           500
      20      -3.69192008      -0.000000002       0.000000471           515

    CHF Iterations converged

    Ind20,r (A<-B)      =    -0.000008608694 [Eh]
    Ind20,r (B<-A)      =    -0.003691920078 [Eh]
    Ind20,r             =    -0.003700528772 [Eh]
    Exch-Ind20,r (A<-B) =     0.000000335646 [Eh]
    Exch-Ind20,r (B<-A) =     0.000000501842 [Eh]
    Exch-Ind20,r        =     0.000000837488 [Eh]
    Disp20              =    -0.000816109172 [Eh]
    Disp20 (SS)         =    -0.000408054586 [Eh]
    Disp20 (OS)         =    -0.000408054586 [Eh]
    Exch-Disp20         =     0.000000971470 [Eh]
    Exch-Disp20 (SS)    =     0.000000749770 [Eh]
    Exch-Disp20 (OS)    =     0.000000221701 [Eh]

    SAPT Results 
  --------------------------------------------------------------------------------------------------------
    Electrostatics                  9.21781550 [mEh]       5.78426655 [kcal/mol]      24.20137126 [kJ/mol]
      Elst10,r                      9.21781550 [mEh]       5.78426655 [kcal/mol]      24.20137126 [kJ/mol]

    Exchange                        0.00062429 [mEh]       0.00039174 [kcal/mol]       0.00163906 [kJ/mol]
      Exch10                        0.00062429 [mEh]       0.00039174 [kcal/mol]       0.00163906 [kJ/mol]
      Exch10(S^2)                   0.00062429 [mEh]       0.00039175 [kcal/mol]       0.00163908 [kJ/mol]

    Induction                      -3.66880405 [mEh]      -2.30220930 [kcal/mol]      -9.63244371 [kJ/mol]
      Ind20,r                      -3.70052877 [mEh]      -2.32211686 [kcal/mol]      -9.71573695 [kJ/mol]
      Exch-Ind20,r                  0.00083749 [mEh]       0.00052553 [kcal/mol]       0.00219883 [kJ/mol]
      delta HF,r (2)                0.03088723 [mEh]       0.01938203 [kcal/mol]       0.08109441 [kJ/mol]

    Dispersion                     -0.81513770 [mEh]      -0.51150663 [kcal/mol]      -2.14014374 [kJ/mol]
      Disp20                       -0.81610917 [mEh]      -0.51211624 [kcal/mol]      -2.14269434 [kJ/mol]
      Exch-Disp20                   0.00097147 [mEh]       0.00060961 [kcal/mol]       0.00255059 [kJ/mol]
      Disp20 (SS)                  -0.40805459 [mEh]      -0.25605812 [kcal/mol]      -1.07134717 [kJ/mol]
      Disp20 (OS)                  -0.40805459 [mEh]      -0.25605812 [kcal/mol]      -1.07134717 [kJ/mol]
      Exch-Disp20 (SS)              0.00074977 [mEh]       0.00047049 [kcal/mol]       0.00196852 [kJ/mol]
      Exch-Disp20 (OS)              0.00022170 [mEh]       0.00013912 [kcal/mol]       0.00058207 [kJ/mol]

  Total HF                          5.54963573 [mEh]       3.48244900 [kcal/mol]      14.57056660 [kJ/mol]
  Total SAPT0                       4.73449803 [mEh]       2.97094237 [kcal/mol]      12.43042286 [kJ/mol]

  Special recipe for scaled SAPT0 (see Manual):
    Electrostatics sSAPT0           9.21781550 [mEh]       5.78426655 [kcal/mol]      24.20137126 [kJ/mol]
    Exchange sSAPT0                 0.00062429 [mEh]       0.00039174 [kcal/mol]       0.00163906 [kJ/mol]
    Induction sSAPT0               -3.66880405 [mEh]      -2.30220930 [kcal/mol]      -9.63244371 [kJ/mol]
    Dispersion sSAPT0              -0.81513770 [mEh]      -0.51150663 [kcal/mol]      -2.14014374 [kJ/mol]
  Total sSAPT0                      4.73449803 [mEh]       2.97094237 [kcal/mol]      12.43042286 [kJ/mol]
  --------------------------------------------------------------------------------------------------------

*** tstop() called on d-6-8-1 at Sun Jan 21 01:03:00 2024
Module time:
	user time   =    6991.52 seconds =     116.53 minutes
	system time =     633.13 seconds =      10.55 minutes
	total time  =       3843 seconds =      64.05 minutes
Total time:
	user time   =   14189.99 seconds =     236.50 minutes
	system time =     824.00 seconds =      13.73 minutes
	total time  =       4862 seconds =      81.03 minutes

    Psi4 stopped on: Sunday, 21 January 2024 01:03AM
    Psi4 wall time for execution: 1:21:03.25

*** Psi4 exiting successfully. Buy a developer a beer!
