
    -----------------------------------------------------------------------
          Psi4: An Open-Source Ab Initio Electronic Structure Package
                               Psi4 1.9 release

                         Git: Rev {} zzzzzzz 


    D. G. A. Smith, L. A. Burns, A. C. Simmonett, R. M. Parrish,
    M. C. Schieber, R. Galvelis, P. Kraus, H. Kruse, R. Di Remigio,
    A. Alenaizan, A. M. James, S. Lehtola, J. P. Misiewicz, M. Scheurer,
    R. A. Shaw, J. B. Schriber, Y. Xie, Z. L. Glick, D. A. Sirianni,
    J. S. O'Brien, J. M. Waldrop, A. Kumar, E. G. Hohenstein,
    B. P. Pritchard, B. R. Brooks, H. F. Schaefer III, A. Yu. Sokolov,
    K. Patkowski, A. E. DePrince III, U. Bozkaya, R. A. King,
    F. A. Evangelista, J. M. Turney, T. D. Crawford, C. D. Sherrill,
    J. Chem. Phys. 152(18) 184108 (2020). https://doi.org/10.1063/5.0006002

                            Additional Code Authors
    E. T. Seidl, C. L. Janssen, E. F. Valeev, M. L. Leininger,
    J. F. Gonthier, R. M. Richard, H. R. McAlexander, M. Saitow, X. Wang,
    P. Verma, M. H. Lechner, A. Jiang, S. Behnle, A. G. Heide,
    M. F. Herbst, and D. L. Poole

             Previous Authors, Complete List of Code Contributors,
                       and Citations for Specific Modules
    https://github.com/psi4/psi4/blob/master/codemeta.json
    https://github.com/psi4/psi4/graphs/contributors
    http://psicode.org/psi4manual/master/introduction.html#citing-psifour

    -----------------------------------------------------------------------


    Psi4 started on: Friday, 26 January 2024 11:22PM

    Process ID: 602502
    Host:       n2cn0444
    PSIDATADIR: /opt/software/pc2/EB-SW/software/PSI4/1.9-foss-2022a/share/psi4
    Memory:     500.0 MiB
    Threads:    16
    
  ==> Input File <==

--------------------------------------------------------------------------
memory 64 GB # how much memory is available ! Depends on the nodes/cores !

molecule dimer {
# monomer A
+1 1    # Charge and multiplicity
C  0.680067 -1.215929 4.408042
C -0.680504 -1.215545 4.406014
N -1.085635  0.102779 4.405016
C  0.000108  0.884180 4.401740
C -2.477365  0.570758 4.355610
N  1.085222  0.102779 4.405016
H  1.385146 -2.033368 4.415870
H -1.385302 -2.033214 4.406204
H -0.000009  1.965269 4.399993
C  2.478117  0.567877 4.421908
H  2.490592  1.658130 4.394563
H  2.967028  0.220701 5.335354
H  3.001428  0.176405 3.546425
H -2.857359  0.490799 3.333539
H -3.082679 -0.042306 5.025694
H -2.518128  1.610706 4.682594
--
# monomer B
0 1     # Charge and multiplicity
C   -3.66844126402057      7.80375217008252      0.00190004133558
C   -4.84759871934653      7.13124183134024     -0.00046653359696
C   -4.89495929917518      5.69633040353158     -0.00103944469517
C   -3.65374067877320      4.98073034095895      0.00662099703436
C   -2.40942512149445      7.11398103667468      0.00209438359570
C   -2.42547734410473      5.68112195090346     -0.00491050527438
C   -1.19474401643570      7.78614419430947      0.00356656413763
C   0.03795902893699      7.09942164575698      0.00139585983271
C   0.03033258741920      5.66948955970466     -0.00408752508301
C   -1.20098450790502      4.96927034791531      0.00488220885047
C   1.27795782581485      7.77285944319479      0.00277170839332
C   2.48535808472416      7.08769688523756      0.00049722048857
C   2.48612868491717      5.65477081024076     -0.00644052849921
C   1.25408291964399      4.95607811366431      0.00518741308898
C   3.75171459140595      7.76391215098033      0.00062407186893
C   4.92356605618520      7.07878077698995     -0.00143240883900
C   4.95560727132542      5.64344746336949     -0.00159282164606
C   3.70680153420475      4.94121020833308      0.00349873852374
H   -3.65852113775815      8.89082741913536      0.00358502958574
H   -1.18921332975660      8.87412108735996      0.00753844057883
H   1.28429423888630      8.86083343548850      0.00693053253426
H   3.75354208679975      8.85103527897216      0.00214659618464
H   5.86995870320703      7.61379483465560     -0.00235777588134
H   -5.78823170750226      7.67630221293400     -0.00202638095293
C   -6.09197395869619      4.99326001364347     -0.00291168518608
C   -6.12866148031747      3.58258016879823     -0.00171050815740
C   -3.66457974004527      3.56418217974434     -0.00463560277484
C   -4.89429820469869      2.86108077590057      0.00453338221034
C   -2.43733499489796      2.84761165708481      0.00719617576166
C   -1.20922785759670      3.54788693497833     -0.00648285103018
C   1.24714157216223      3.53468075142962     -0.00729145743546
C   0.01517603956900      2.83311183930540      0.00439272578912
C   2.46764517244071      2.82128997725533      0.00449278391269
C   3.70254947457969      3.52466015442405     -0.00899517692985
C   6.14498038638375      4.92757236613191     -0.00282626685777
C   6.16658835886151      3.51658447594213     -0.00065971342101
C   4.92460995845939      2.80840792535402      0.00587903281610
H   7.08990550964105      5.46688776622306     -0.00658814770723
H   -7.03104175110130      5.54268795285765     -0.00714490013730
C   -7.33969804112295      2.85841153457957     -0.00333767559888
C   -7.36488195805880      1.47032337158330     -0.00157213747140
C   -4.90350460894690      1.44442681216000     -0.00628840166334
C   -6.13225715261081      0.73993935705394      0.00600164231964
C   -3.67687480051673      0.72669714267312      0.00433931473643
C   -2.44565658606518      1.42964113326212     -0.00597039546461
C   -1.22360068130162      0.71532450163492      0.00545886906656
C   0.00763786931376      1.41738314923765      0.00392452278437
C   1.23121980774686      0.70211669058719     -0.01490206287210
C   2.46082110053113      1.40329203612573      0.00460244601878
C   3.68443025419614      0.68719842821222      0.00377365974158
C   4.91870890153864      1.39173456118907     -0.00862816189375
C   7.36980207796101      2.77948220318441     -0.00242013321349
C   7.38016266612146      1.39121750785509     -0.00087345036788
C   6.13979953912259      0.67411862320065      0.00545489144369
H   -8.27919079934664      3.40711804112415     -0.00763522772059
H   8.31511347147953      3.31811809662368     -0.00663070901292
C   -8.59175593758115      0.72483255304480     -0.00123170985383
C   -8.59902460370342     -0.63263980622873      0.00089141472904
C   -6.13981313911873     -0.67413663715361     -0.00609792660607
C   -7.38018411213749     -1.39126618958160      0.00131813493501
C   -4.91868448025621     -1.39175501803000      0.00624257154343
C   -3.68443829568458     -0.68723731573599     -0.00478966852105
C   -2.46081704024768     -1.40334517882457      0.00575341766833
C   -1.23116201232071     -0.70217386488055     -0.00636696112346
C   -0.00756962538737     -1.41741884941102      0.00108956317991
C   1.22364771588843     -0.71527537726392      0.01109518512883
C   2.44567064933149     -1.42964328900682     -0.00065482763106
C   3.67686670284649     -0.72670743155550     -0.00479541202602
C   6.13224884641929     -0.73997883984993     -0.00632338623858
C   4.90351914550401     -1.44445752054090      0.00751768830159
C   8.59901484869081      0.63260386666793     -0.00101133422380
C   8.59174548810050     -0.72485086719319      0.00072504603735
C   7.36486276438985     -1.47033266560598      0.00049486934466
H   -9.52830597181814      1.27684744919284     -0.00270163681798
H   9.54141097460619      1.17457248844457     -0.00206336648518
C   -7.36983790976868     -2.77954514593389      0.00312634335708
C   -4.92459910905015     -2.80843725734101     -0.00460528907921
C   -6.16662249566744     -3.51665219282533      0.00169655107992
C   -3.70251035970491     -3.52468154912026      0.00571878010666
C   -2.46764698511392     -2.82132596280400     -0.00632585824990
C   -0.01513347410770     -2.83314164539971     -0.00604426974092
C   -1.24712184122656     -3.53473217556300      0.00551968366725
C   1.20924506964357     -3.54791467864352      0.00805871345849
C   2.43733602215464     -2.84764173817541     -0.00608104485234
C   4.89430234377080     -2.86112296828604     -0.00526030478103
C   3.66461525504104     -3.56421984553201      0.00761911515957
C   6.12863901474565     -3.58258405771778      0.00096495711699
C   7.33967266469532     -2.85841330737039      0.00248018319869
H   -9.54144911125902     -1.17456346666430      0.00226083090216
H   9.52826186807155     -1.27691907390448      0.00197485379837
H   -8.31516504384864     -3.31814985321231      0.00729857188773
H   8.27915514249207     -3.40714078989363      0.00681973918158
C   -6.14499418870218     -4.92764727278338      0.00302254913999
C   -3.70678334799751     -4.94126171411716     -0.00679841894792
C   -4.95559005800169     -5.64349397349412      0.00116871569699
C   -2.48612132622665     -5.65478557440947      0.00614125209662
C   -1.25405833548005     -4.95612205000132     -0.00503435388927
C   1.20101257386816     -4.96928038819302     -0.00385322963129
C   -0.03033667441341     -5.66952030313900      0.00398997003238
C   3.65375010132847     -4.98074377541453     -0.00309522988330
C   2.42549269587528     -5.68117463552727      0.00628170066869
C   6.09196561781097     -4.99325796338655      0.00325918379042
C   4.89497644461045     -5.69634842095790      0.00202298796027
H   -7.08989238804069     -5.46699984223871      0.00742531082125
H   7.03105520920009     -5.54265853633254      0.00683896355417
C   -4.92354532219813     -7.07882109967734      0.00061394679214
C   -2.48534208823777     -7.08772807792913     -0.00189594564379
C   -3.75168589177895     -7.76394715763627     -0.00170126671874
C   -0.03794895698805     -7.09946487446944     -0.00168022049625
C   -1.27795610040136     -7.77290438466689     -0.00366491325785
C   2.40944432072629     -7.11402201200282     -0.00081701968533
C   1.19474993715296     -7.78618536556242     -0.00296931056689
C   4.84762105249800     -7.13126211057943      0.00168979497423
C   3.66847160587561     -7.80378799294376     -0.00065863938960
H   -5.86994035041618     -7.61383059804164      0.00215798365757
H   5.78824962538815     -7.67633218931421      0.00281691445618
H   -3.75352693944918     -8.85107156923607     -0.00353718114765
H   -1.28430440589466     -8.86087539249706     -0.00809229711623
H   1.18922157469537     -8.87416062058945     -0.00706194725726
H   3.65854661482387     -8.89086063405326     -0.00231318081200

    units angstrom      # Angstroms are the default
    no_reorient         # Geometry fixed, default
    symmetry c1         # C1 symmetry, default
}

set {
    scf_type DF         # Density fitting, faster than exact integrals
    freeze_core True    # Freeze core electrons
    basis jun-cc-pVDZ   # Jun-cc-pVDZ basis set, recommended for sSAPT0 in https://doi.org/10.1063/1.4867135
}

energy('ssapt0')        # Compute sSAPT0 energy, includes also SAPT0
--------------------------------------------------------------------------

  Memory set to  59.605 GiB by Python driver.

Scratch directory: /tmp/
   => Loading Basis Set <=

    Name: JUN-CC-PVDZ
    Role: ORBITAL
    Keyword: BASIS
    atoms 1-2, 4-5, 10, 17-34, 41-53, 56-70, 73-89, 92-104, 109-119, 122-130 entry C          line   164 file /opt/software/pc2/EB-SW/software/PSI4/1.9-foss-2022a/share/psi4/basis/jun-cc-pvdz.gbs 
    atoms 3, 6                                                               entry N          line   198 file /opt/software/pc2/EB-SW/software/PSI4/1.9-foss-2022a/share/psi4/basis/jun-cc-pvdz.gbs 
    atoms 7-9, 11-16, 35-40, 54-55, 71-72, 90-91, 105-108, 120-121, 131-136  entry H          line    36 file /opt/software/pc2/EB-SW/software/PSI4/1.9-foss-2022a/share/psi4/basis/jun-cc-pvdz.gbs 

   => Loading Basis Set <=

    Name: JUN-CC-PVDZ
    Role: ORBITAL
    Keyword: BASIS
    atoms 1-2, 4-5, 10, 17-34, 41-53, 56-70, 73-89, 92-104, 109-119, 122-130 entry C          line   164 file /opt/software/pc2/EB-SW/software/PSI4/1.9-foss-2022a/share/psi4/basis/jun-cc-pvdz.gbs 
    atoms 3, 6                                                               entry N          line   198 file /opt/software/pc2/EB-SW/software/PSI4/1.9-foss-2022a/share/psi4/basis/jun-cc-pvdz.gbs 
    atoms 7-9, 11-16, 35-40, 54-55, 71-72, 90-91, 105-108, 120-121, 131-136  entry H          line    36 file /opt/software/pc2/EB-SW/software/PSI4/1.9-foss-2022a/share/psi4/basis/jun-cc-pvdz.gbs 


  //>>>>>>>>>>>>>>>>>>>>>>>>>>>>>>>>>>>//
  //              Dimer HF             //
  //<<<<<<<<<<<<<<<<<<<<<<<<<<<<<<<<<<<//

   => Libint2 <=

    Primary   basis highest AM E, G, H:  5, 4, 3
    Auxiliary basis highest AM E, G, H:  6, 5, 4
    Onebody   basis highest AM E, G, H:  6, 5, 4
    Solid Harmonics ordering:            gaussian

*** tstart() called on n2cn0444
*** at Fri Jan 26 23:22:39 2024

   => Loading Basis Set <=

    Name: JUN-CC-PVDZ
    Role: ORBITAL
    Keyword: BASIS
    atoms 1-2, 4-5, 10, 17-34, 41-53, 56-70, 73-89, 92-104, 109-119, 122-130 entry C          line   164 file /opt/software/pc2/EB-SW/software/PSI4/1.9-foss-2022a/share/psi4/basis/jun-cc-pvdz.gbs 
    atoms 3, 6                                                               entry N          line   198 file /opt/software/pc2/EB-SW/software/PSI4/1.9-foss-2022a/share/psi4/basis/jun-cc-pvdz.gbs 
    atoms 7-9, 11-16, 35-40, 54-55, 71-72, 90-91, 105-108, 120-121, 131-136  entry H          line    36 file /opt/software/pc2/EB-SW/software/PSI4/1.9-foss-2022a/share/psi4/basis/jun-cc-pvdz.gbs 


         ---------------------------------------------------------
                                   SCF
               by Justin Turney, Rob Parrish, Andy Simmonett
                          and Daniel G. A. Smith
                              RHF Reference
                       16 Threads,  61035 MiB Core
         ---------------------------------------------------------

  ==> Geometry <==

    Molecular point group: c1
    Full point group: C1

    Geometry (in Angstrom), charge = 1, multiplicity = 1:

       Center              X                  Y                   Z               Mass       
    ------------   -----------------  -----------------  -----------------  -----------------
         C            0.680062820275    -1.215917226251     4.072572876375    12.000000000000
         C           -0.680508179725    -1.215533226251     4.070544876375    12.000000000000
         N           -1.085639179725     0.102790773749     4.069546876375    14.003074004430
         C            0.000103820275     0.884191773749     4.066270876375    12.000000000000
         C           -2.477369179725     0.570769773749     4.020140876375    12.000000000000
         N            1.085217820275     0.102790773749     4.069546876375    14.003074004430
         H            1.385141820275    -2.033356226251     4.080400876375     1.007825032230
         H           -1.385306179725    -2.033202226251     4.070734876375     1.007825032230
         H           -0.000013179725     1.965280773749     4.064523876375     1.007825032230
         C            2.478112820275     0.567888773749     4.086438876375    12.000000000000
         H            2.490587820275     1.658141773750     4.059093876375     1.007825032230
         H            2.967023820275     0.220712773749     4.999884876375     1.007825032230
         H            3.001423820275     0.176416773749     3.210955876375     1.007825032230
         H           -2.857363179725     0.490810773749     2.998069876375     1.007825032230
         H           -3.082683179725    -0.042294226251     4.690224876375     1.007825032230
         H           -2.518132179725     1.610717773749     4.347124876375     1.007825032230
         C           -3.668445443746     7.803763943832    -0.333569082289    12.000000000000
         C           -4.847602899072     7.131253605090    -0.335935657221    12.000000000000
         C           -4.894963478901     5.696342177281    -0.336508568320    12.000000000000
         C           -3.653744858499     4.980742114708    -0.328848126590    12.000000000000
         C           -2.409429301220     7.113992810424    -0.333374740029    12.000000000000
         C           -2.425481523830     5.681133724653    -0.340379628899    12.000000000000
         C           -1.194748196161     7.786155968059    -0.331902559487    12.000000000000
         C            0.037954849212     7.099433419506    -0.334073263792    12.000000000000
         C            0.030328407694     5.669501333454    -0.339556648708    12.000000000000
         C           -1.200988687630     4.969282121665    -0.330586914774    12.000000000000
         C            1.277953646089     7.772871216944    -0.332697415231    12.000000000000
         C            2.485353904999     7.087708658987    -0.334971903136    12.000000000000
         C            2.486124505192     5.654782583990    -0.341909652124    12.000000000000
         C            1.254078739919     4.956089887414    -0.330281710536    12.000000000000
         C            3.751710411681     7.763923924730    -0.334845051756    12.000000000000
         C            4.923561876460     7.078792550739    -0.336901532464    12.000000000000
         C            4.955603091600     5.643459237119    -0.337061945271    12.000000000000
         C            3.706797354479     4.941221982083    -0.331970385101    12.000000000000
         H           -3.658525317484     8.890839192885    -0.331884094039     1.007825032230
         H           -1.189217509482     8.874132861109    -0.327930683046     1.007825032230
         H            1.284290059161     8.860845209238    -0.328538591090     1.007825032230
         H            3.753537907074     8.851047052722    -0.333322527440     1.007825032230
         H            5.869954523482     7.613806608405    -0.337826899506     1.007825032230
         H           -5.788235887228     7.676313986684    -0.337495504577     1.007825032230
         C           -6.091978138422     4.993271787393    -0.338380808811    12.000000000000
         C           -6.128665660043     3.582591942548    -0.337179631782    12.000000000000
         C           -3.664583919771     3.564193953494    -0.340104726399    12.000000000000
         C           -4.894302384424     2.861092549650    -0.330935741414    12.000000000000
         C           -2.437339174623     2.847623430834    -0.328272947863    12.000000000000
         C           -1.209232037322     3.547898708728    -0.341951974655    12.000000000000
         C            1.247137392437     3.534692525179    -0.342760581060    12.000000000000
         C            0.015171859844     2.833123613055    -0.331076397835    12.000000000000
         C            2.467640992715     2.821301751005    -0.330976339712    12.000000000000
         C            3.702545294854     3.524671928174    -0.344464300554    12.000000000000
         C            6.144976206658     4.927584139881    -0.338295390482    12.000000000000
         C            6.166584179136     3.516596249692    -0.336128837046    12.000000000000
         C            4.924605778734     2.808419699104    -0.329590090808    12.000000000000
         H            7.089901329916     5.466899539973    -0.342057271332     1.007825032230
         H           -7.031045930827     5.542699726607    -0.342614023762     1.007825032230
         C           -7.339702220848     2.858423308329    -0.338806799223    12.000000000000
         C           -7.364886137784     1.470335145333    -0.337041261096    12.000000000000
         C           -4.903508788672     1.444438585909    -0.341757525288    12.000000000000
         C           -6.132261332336     0.739951130803    -0.329467481305    12.000000000000
         C           -3.676878980242     0.726708916423    -0.331129808888    12.000000000000
         C           -2.445660765791     1.429652907012    -0.341439519089    12.000000000000
         C           -1.223604861027     0.715336275384    -0.330010254558    12.000000000000
         C            0.007633689588     1.417394922987    -0.331544600840    12.000000000000
         C            1.231215628021     0.702128464337    -0.350371186497    12.000000000000
         C            2.460816920806     1.403303809875    -0.330866677606    12.000000000000
         C            3.684426074471     0.687210201962    -0.331695463883    12.000000000000
         C            4.918704721813     1.391746334939    -0.344097285518    12.000000000000
         C            7.369797898236     2.779493976934    -0.337889256838    12.000000000000
         C            7.380158486396     1.391229281605    -0.336342573992    12.000000000000
         C            6.139795359397     0.674130396950    -0.330014232181    12.000000000000
         H           -8.279194979072     3.407129814874    -0.343104351345     1.007825032230
         H            8.315109291754     3.318129870373    -0.342099832637     1.007825032230
         C           -8.591760117307     0.724844326794    -0.336700833478    12.000000000000
         C           -8.599028783429    -0.632628032479    -0.334577708895    12.000000000000
         C           -6.139817318844    -0.674124863404    -0.341567050231    12.000000000000
         C           -7.380188291863    -1.391254415832    -0.334150988689    12.000000000000
         C           -4.918688659982    -1.391743244281    -0.329226552081    12.000000000000
         C           -3.684442475410    -0.687225541986    -0.340258792146    12.000000000000
         C           -2.460821219973    -1.403333405075    -0.329715705956    12.000000000000
         C           -1.231166192046    -0.702162091131    -0.341836084748    12.000000000000
         C           -0.007573805113    -1.417407075662    -0.334379560445    12.000000000000
         C            1.223643536163    -0.715263603514    -0.324373938496    12.000000000000
         C            2.445666469606    -1.429631515257    -0.336123951256    12.000000000000
         C            3.676862523121    -0.726695657806    -0.340264535651    12.000000000000
         C            6.132244666694    -0.739967066100    -0.341792509863    12.000000000000
         C            4.903514965779    -1.444445746791    -0.327951435323    12.000000000000
         C            8.599010668965     0.632615640417    -0.336480457848    12.000000000000
         C            8.591741308375    -0.724839093444    -0.334744077587    12.000000000000
         C            7.364858584664    -1.470320891856    -0.334974254280    12.000000000000
         H           -9.528310151544     1.276859222942    -0.338170760442     1.007825032230
         H            9.541406794881     1.174584262194    -0.337532490110     1.007825032230
         C           -7.369842089494    -2.779533372184    -0.332342780267    12.000000000000
         C           -4.924603288776    -2.808425483592    -0.340074412704    12.000000000000
         C           -6.166626675393    -3.516640419076    -0.333772572545    12.000000000000
         C           -3.702514539430    -3.524669775371    -0.329750343518    12.000000000000
         C           -2.467651164839    -2.821314189055    -0.341794981874    12.000000000000
         C           -0.015137653833    -2.833129871650    -0.341513393365    12.000000000000
         C           -1.247126020952    -3.534720401814    -0.329949439957    12.000000000000
         C            1.209240889918    -3.547902904894    -0.327410410166    12.000000000000
         C            2.437331842429    -2.847629964426    -0.341550168477    12.000000000000
         C            4.894298164045    -2.861111194537    -0.340729428406    12.000000000000
         C            3.664611075316    -3.564208071783    -0.327850008465    12.000000000000
         C            6.128634835020    -3.582572283968    -0.334504166508    12.000000000000
         C            7.339668484970    -2.858401533621    -0.332988940426    12.000000000000
         H           -9.541453290984    -1.174551692915    -0.333208292722     1.007825032230
         H            9.528257688346    -1.276907300155    -0.333494269826     1.007825032230
         H           -8.315169223574    -3.318138079463    -0.328170551737     1.007825032230
         H            8.279150962767    -3.407129016144    -0.328649384443     1.007825032230
         C           -6.144998368428    -4.927635499034    -0.332446574485    12.000000000000
         C           -3.706787527723    -4.941249940368    -0.342267542572    12.000000000000
         C           -4.955594237727    -5.643482199745    -0.334300407928    12.000000000000
         C           -2.486125505952    -5.654773800660    -0.329327871528    12.000000000000
         C           -1.254062515205    -4.956110276252    -0.340503477514    12.000000000000
         C            1.201008394143    -4.969268614444    -0.339322353256    12.000000000000
         C           -0.030340854139    -5.669508529390    -0.331479153592    12.000000000000
         C            3.653745921603    -4.980732001665    -0.338564353508    12.000000000000
         C            2.425488516150    -5.681162861778    -0.329187422956    12.000000000000
         C            6.091961438086    -4.993246189637    -0.332209939834    12.000000000000
         C            4.894972264885    -5.696336647208    -0.333446135664    12.000000000000
         H           -7.089896567766    -5.466988068489    -0.328043812803     1.007825032230
         H            7.031051029475    -5.542646762583    -0.328630160070     1.007825032230
         C           -4.923549501924    -7.078809325928    -0.334855176832    12.000000000000
         C           -2.485346267963    -7.087716304180    -0.337365069268    12.000000000000
         C           -3.751690071504    -7.763935383887    -0.337170390343    12.000000000000
         C           -0.037953136713    -7.099453100720    -0.337149344121    12.000000000000
         C           -1.277960280127    -7.772892610917    -0.339134036882    12.000000000000
         C            2.409440141001    -7.114010238253    -0.336286143310    12.000000000000
         C            1.194745757428    -7.786173591813    -0.338438434191    12.000000000000
         C            4.847616872773    -7.131250336830    -0.333779328650    12.000000000000
         C            3.668467426150    -7.803776219194    -0.336127763014    12.000000000000
         H           -5.869944530142    -7.613818824292    -0.333311139967     1.007825032230
         H            5.788245445663    -7.676320415565    -0.332652209168     1.007825032230
         H           -3.753531119175    -8.851059795487    -0.339006304772     1.007825032230
         H           -1.284308585620    -8.860863618748    -0.343561420741     1.007825032230
         H            1.189217394970    -8.874148846840    -0.342531070882     1.007825032230
         H            3.658542435098    -8.890848860304    -0.337782304437     1.007825032230

  Running in c1 symmetry.

  Rotational constants: A =      0.00066  B =      0.00065  C =      0.00035 [cm^-1]
  Rotational constants: A =     19.65632  B =     19.52824  C =     10.50436 [MHz]
  Nuclear repulsion = 18207.844281747915375

  Charge       = 1
  Multiplicity = 1
  Electrons    = 652
  Nalpha       = 326
  Nbeta        = 326

  ==> Algorithm <==

  SCF Algorithm Type is DF.
  DIIS enabled.
  MOM disabled.
  Fractional occupation disabled.
  Guess Type is SAD.
  Energy threshold   = 1.00e-08
  Density threshold  = 1.00e-08
  Integral threshold = 1.00e-12

  ==> Primary Basis <==

  Basis Set: JUN-CC-PVDZ
    Blend: JUN-CC-PVDZ
    Number of shells: 923
    Number of basis functions: 2019
    Number of Cartesian functions: 2122
    Spherical Harmonics?: true
    Max angular momentum: 2

   => Loading Basis Set <=

    Name: (JUN-CC-PVDZ AUX)
    Role: JKFIT
    Keyword: DF_BASIS_SCF
    atoms 1-2, 4-5, 10, 17-34, 41-53, 56-70, 73-89, 92-104, 109-119, 122-130 entry C          line   146 file /opt/software/pc2/EB-SW/software/PSI4/1.9-foss-2022a/share/psi4/basis/jun-cc-pvdz-jkfit.gbs 
    atoms 3, 6                                                               entry N          line   202 file /opt/software/pc2/EB-SW/software/PSI4/1.9-foss-2022a/share/psi4/basis/jun-cc-pvdz-jkfit.gbs 
    atoms 7-9, 11-16, 35-40, 54-55, 71-72, 90-91, 105-108, 120-121, 131-136  entry H          line    70 file /opt/software/pc2/EB-SW/software/PSI4/1.9-foss-2022a/share/psi4/basis/jun-cc-pvdz-jkfit.gbs 

  ==> Integral Setup <==

  ==> DiskDFJK: Density-Fitted J/K Matrices <==

    J tasked:                  Yes
    K tasked:                  Yes
    wK tasked:                  No
    OpenMP threads:             16
    Integrals threads:          16
    Memory [MiB]:            45776
    Algorithm:                Disk
    Integral Cache:           SAVE
    Schwarz Cutoff:          1E-12
    Fitting Condition:       1E-10

   => Auxiliary Basis Set <=

  Basis Set: (JUN-CC-PVDZ AUX)
    Blend: JUN-CC-PVDZ-JKFIT
    Number of shells: 3078
    Number of basis functions: 8896
    Number of Cartesian functions: 10198
    Spherical Harmonics?: true
    Max angular momentum: 3

  Minimum eigenvalue in the overlap matrix is 8.4781096708E-11.
  Reciprocal condition number of the overlap matrix is 3.5426186617E-12.
    Using canonical orthogonalization.
  Overall, 39 of 2019 possible MOs eliminated.


  ==> Pre-Iterations <==

  SCF Guess: Superposition of Atomic Densities via on-the-fly atomic UHF (no occupation information).

   -------------------------
    Irrep   Nso     Nmo    
   -------------------------
     A       2019    1980 
   -------------------------
    Total    2019    1980
   -------------------------

  ==> Iterations <==

                           Total Energy        Delta E     RMS |[F,P]|

   @DF-RHF iter SAD: -3967.21541310170687   -3.96722e+03   0.00000e+00 
   @DF-RHF iter   1: -3952.12012948278243    1.50953e+01   7.15739e-04 DIIS/ADIIS
   @DF-RHF iter   2: -3953.50678901334641   -1.38666e+00   2.35318e-04 DIIS/ADIIS
   @DF-RHF iter   3: -3953.63021775187826   -1.23429e-01   1.03629e-04 DIIS/ADIIS
   @DF-RHF iter   4: -3953.65369157073383   -2.34738e-02   4.35788e-05 DIIS
   @DF-RHF iter   5: -3953.65847536592628   -4.78380e-03   1.13440e-05 DIIS
   @DF-RHF iter   6: -3953.65896411344011   -4.88748e-04   4.65899e-06 DIIS
   @DF-RHF iter   7: -3953.65915355576681   -1.89442e-04   2.23902e-06 DIIS
   @DF-RHF iter   8: -3953.65921712317186   -6.35674e-05   1.11750e-06 DIIS
   @DF-RHF iter   9: -3953.65923528370195   -1.81605e-05   3.63045e-07 DIIS
   @DF-RHF iter  10: -3953.65923653272239   -1.24902e-06   1.43872e-07 DIIS
   @DF-RHF iter  11: -3953.65923668318737   -1.50465e-07   6.12903e-08 DIIS
   @DF-RHF iter  12: -3953.65923671606197   -3.28746e-08   3.09223e-08 DIIS
   @DF-RHF iter  13: -3953.65923672459166   -8.52970e-09   1.19433e-08 DIIS
   @DF-RHF iter  14: -3953.65923672538975   -7.98082e-10   6.29698e-09 DIIS
  Energy and wave function converged.


  ==> Post-Iterations <==

    Orbital Energies [Eh]
    ---------------------

    Doubly Occupied:                                                      

       1A    -15.804110     2A    -15.803540     3A    -11.499168  
       4A    -11.429701     5A    -11.428149     6A    -11.420233  
       7A    -11.419500     8A    -11.335132     9A    -11.334645  
      10A    -11.334269    11A    -11.333717    12A    -11.333587  
      13A    -11.333056    14A    -11.332849    15A    -11.332800  
      16A    -11.332624    17A    -11.332275    18A    -11.332160  
      19A    -11.331474    20A    -11.331414    21A    -11.331282  
      22A    -11.331209    23A    -11.331051    24A    -11.330449  
      25A    -11.330288    26A    -11.330222    27A    -11.330097  
      28A    -11.330071    29A    -11.329975    30A    -11.329065  
      31A    -11.328909    32A    -11.327367    33A    -11.327227  
      34A    -11.327124    35A    -11.327022    36A    -11.326923  
      37A    -11.326817    38A    -11.326763    39A    -11.326752  
      40A    -11.326122    41A    -11.326103    42A    -11.325794  
      43A    -11.325627    44A    -11.324613    45A    -11.324534  
      46A    -11.324482    47A    -11.324428    48A    -11.324397  
      49A    -11.324356    50A    -11.324266    51A    -11.323977  
      52A    -11.323933    53A    -11.323630    54A    -11.323551  
      55A    -11.323541    56A    -11.323481    57A    -11.323479  
      58A    -11.323463    59A    -11.323453    60A    -11.323415  
      61A    -11.323294    62A    -11.323243    63A    -11.322977  
      64A    -11.322934    65A    -11.322539    66A    -11.322515  
      67A    -11.322466    68A    -11.322410    69A    -11.322401  
      70A    -11.322364    71A    -11.322235    72A    -11.322208  
      73A    -11.322184    74A    -11.322142    75A    -11.322083  
      76A    -11.321615    77A    -11.321593    78A    -11.321269  
      79A    -11.321265    80A    -11.315140    81A    -11.315126  
      82A    -11.315099    83A    -11.315069    84A    -11.315064  
      85A    -11.315040    86A    -11.315019    87A    -11.314982  
      88A    -11.314443    89A    -11.314410    90A    -11.314167  
      91A    -11.314089    92A    -11.312745    93A    -11.312745  
      94A    -11.312715    95A    -11.312691    96A    -11.311881  
      97A    -11.311866    98A    -11.311274    99A    -11.311268  
     100A    -11.311244   101A    -11.311215   102A    -11.310407  
     103A    -11.310393   104A     -1.547286   105A     -1.403039  
     106A     -1.322449   107A     -1.305279   108A     -1.304802  
     109A     -1.285005   110A     -1.284929   111A     -1.281590  
     112A     -1.264244   113A     -1.259422   114A     -1.254090  
     115A     -1.253694   116A     -1.236553   117A     -1.236546  
     118A     -1.220913   119A     -1.220837   120A     -1.218171  
     121A     -1.208067   122A     -1.207066   123A     -1.207050  
     124A     -1.192640   125A     -1.179791   126A     -1.177783  
     127A     -1.177486   128A     -1.175327   129A     -1.173613  
     130A     -1.158975   131A     -1.152273   132A     -1.152215  
     133A     -1.138950   134A     -1.138924   135A     -1.132137  
     136A     -1.132068   137A     -1.129935   138A     -1.110054  
     139A     -1.110049   140A     -1.103833   141A     -1.100699  
     142A     -1.100634   143A     -1.090585   144A     -1.088871  
     145A     -1.087845   146A     -1.087637   147A     -1.071019  
     148A     -1.069694   149A     -1.066746   150A     -1.064892  
     151A     -1.064828   152A     -1.052495   153A     -1.034824  
     154A     -1.034757   155A     -1.018288   156A     -1.018261  
     157A     -0.992022   158A     -0.971569   159A     -0.971450  
     160A     -0.970752   161A     -0.966829   162A     -0.966787  
     163A     -0.966545   164A     -0.958254   165A     -0.958147  
     166A     -0.955176   167A     -0.955049   168A     -0.953774  
     169A     -0.934161   170A     -0.929396   171A     -0.914442  
     172A     -0.912574   173A     -0.912362   174A     -0.910000  
     175A     -0.907149   176A     -0.897572   177A     -0.897529  
     178A     -0.889460   179A     -0.889420   180A     -0.886910  
     181A     -0.849340   182A     -0.849109   183A     -0.846553  
     184A     -0.845650   185A     -0.845635   186A     -0.845126  
     187A     -0.845124   188A     -0.830634   189A     -0.826061  
     190A     -0.819889   191A     -0.814535   192A     -0.795285  
     193A     -0.790511   194A     -0.790261   195A     -0.788500  
     196A     -0.787940   197A     -0.787767   198A     -0.786234  
     199A     -0.782978   200A     -0.782753   201A     -0.778035  
     202A     -0.777944   203A     -0.761916   204A     -0.761837  
     205A     -0.759920   206A     -0.756133   207A     -0.751730  
     208A     -0.750489   209A     -0.748303   210A     -0.748247  
     211A     -0.744985   212A     -0.744954   213A     -0.741952  
     214A     -0.715591   215A     -0.714185   216A     -0.714010  
     217A     -0.713391   218A     -0.713388   219A     -0.711671  
     220A     -0.705061   221A     -0.704886   222A     -0.702654  
     223A     -0.701364   224A     -0.700136   225A     -0.699533  
     226A     -0.699429   227A     -0.696342   228A     -0.692149  
     229A     -0.688535   230A     -0.685956   231A     -0.676749  
     232A     -0.676679   233A     -0.671573   234A     -0.671537  
     235A     -0.666020   236A     -0.665346   237A     -0.663196  
     238A     -0.662761   239A     -0.662606   240A     -0.661473  
     241A     -0.658115   242A     -0.657702   243A     -0.657606  
     244A     -0.657310   245A     -0.654065   246A     -0.653998  
     247A     -0.652351   248A     -0.640372   249A     -0.640287  
     250A     -0.638358   251A     -0.638262   252A     -0.636398  
     253A     -0.635778   254A     -0.632644   255A     -0.632593  
     256A     -0.628897   257A     -0.628742   258A     -0.622204  
     259A     -0.621981   260A     -0.621228   261A     -0.619435  
     262A     -0.617293   263A     -0.613611   264A     -0.608023  
     265A     -0.607446   266A     -0.601680   267A     -0.601118  
     268A     -0.596065   269A     -0.595964   270A     -0.592360  
     271A     -0.590063   272A     -0.590022   273A     -0.580208  
     274A     -0.580033   275A     -0.577859   276A     -0.577815  
     277A     -0.571261   278A     -0.571218   279A     -0.565696  
     280A     -0.560857   281A     -0.559626   282A     -0.559559  
     283A     -0.559215   284A     -0.559180   285A     -0.555492  
     286A     -0.542962   287A     -0.539322   288A     -0.539316  
     289A     -0.536242   290A     -0.533588   291A     -0.529722  
     292A     -0.529650   293A     -0.522983   294A     -0.512051  
     295A     -0.511877   296A     -0.506637   297A     -0.506557  
     298A     -0.506385   299A     -0.496081   300A     -0.495578  
     301A     -0.492803   302A     -0.471342   303A     -0.471328  
     304A     -0.451461   305A     -0.451400   306A     -0.449195  
     307A     -0.447035   308A     -0.446999   309A     -0.417693  
     310A     -0.417651   311A     -0.414319   312A     -0.405791  
     313A     -0.403969   314A     -0.403594   315A     -0.394054  
     316A     -0.393885   317A     -0.372468   318A     -0.367459  
     319A     -0.367421   320A     -0.363465   321A     -0.348798  
     322A     -0.318483   323A     -0.318375   324A     -0.316491  
     325A     -0.267310   326A     -0.267199  

    Virtual:                                                              

     327A     -0.074610   328A     -0.074354   329A     -0.048585  
     330A     -0.031994   331A     -0.030047   332A     -0.029960  
     333A     -0.028091   334A     -0.025969   335A     -0.020233  
     336A     -0.011754   337A     -0.008058   338A     -0.004281  
     339A     -0.003159   340A     -0.002510   341A      0.001219  
     342A      0.001743   343A      0.002288   344A      0.002939  
     345A      0.003765   346A      0.004476   347A      0.005259  
     348A      0.005320   349A      0.008252   350A      0.010112  
     351A      0.014314   352A      0.014634   353A      0.014982  
     354A      0.015216   355A      0.015935   356A      0.018662  
     357A      0.019184   358A      0.020062   359A      0.021353  
     360A      0.022203   361A      0.023519   362A      0.026167  
     363A      0.026187   364A      0.030588   365A      0.034383  
     366A      0.036245   367A      0.036794   368A      0.039287  
     369A      0.040815   370A      0.041860   371A      0.042126  
     372A      0.042472   373A      0.043262   374A      0.045286  
     375A      0.046426   376A      0.046509   377A      0.048523  
     378A      0.049347   379A      0.051789   380A      0.053314  
     381A      0.053800   382A      0.053883   383A      0.054203  
     384A      0.054644   385A      0.054803   386A      0.055680  
     387A      0.057781   388A      0.059109   389A      0.059524  
     390A      0.060229   391A      0.064101   392A      0.066253  
     393A      0.068565   394A      0.068775   395A      0.071293  
     396A      0.074092   397A      0.076111   398A      0.077092  
     399A      0.077187   400A      0.079715   401A      0.081250  
     402A      0.081348   403A      0.082754   404A      0.083929  
     405A      0.084323   406A      0.085636   407A      0.086968  
     408A      0.089184   409A      0.091769   410A      0.092116  
     411A      0.092358   412A      0.092673   413A      0.094044  
     414A      0.097294   415A      0.097755   416A      0.101153  
     417A      0.102855   418A      0.105962   419A      0.106704  
     420A      0.106937   421A      0.107629   422A      0.108156  
     423A      0.108469   424A      0.109068   425A      0.111271  
     426A      0.112823   427A      0.113320   428A      0.114666  
     429A      0.115257   430A      0.115532   431A      0.117079  
     432A      0.117948   433A      0.118264   434A      0.119646  
     435A      0.121019   436A      0.127535   437A      0.127821  
     438A      0.128597   439A      0.130445   440A      0.131307  
     441A      0.131647   442A      0.132917   443A      0.135467  
     444A      0.136033   445A      0.136124   446A      0.138282  
     447A      0.138675   448A      0.139378   449A      0.141465  
     450A      0.145013   451A      0.146619   452A      0.147194  
     453A      0.147448   454A      0.148517   455A      0.150099  
     456A      0.150226   457A      0.150805   458A      0.151283  
     459A      0.152245   460A      0.153167   461A      0.153394  
     462A      0.153572   463A      0.154768   464A      0.155237  
     465A      0.156099   466A      0.156807   467A      0.157997  
     468A      0.160392   469A      0.160486   470A      0.160998  
     471A      0.162114   472A      0.164945   473A      0.166402  
     474A      0.166742   475A      0.167451   476A      0.168778  
     477A      0.169874   478A      0.170990   479A      0.173343  
     480A      0.173751   481A      0.174659   482A      0.175095  
     483A      0.175248   484A      0.175636   485A      0.177605  
     486A      0.178065   487A      0.181061   488A      0.181184  
     489A      0.182156   490A      0.183057   491A      0.184398  
     492A      0.184482   493A      0.186554   494A      0.189215  
     495A      0.189839   496A      0.191446   497A      0.192303  
     498A      0.192631   499A      0.192812   500A      0.195071  
     501A      0.196786   502A      0.197302   503A      0.198257  
     504A      0.198746   505A      0.200933   506A      0.201111  
     507A      0.201631   508A      0.203460   509A      0.203695  
     510A      0.205331   511A      0.207205   512A      0.207713  
     513A      0.208996   514A      0.209481   515A      0.209613  
     516A      0.211220   517A      0.212569   518A      0.213188  
     519A      0.213283   520A      0.214401   521A      0.216703  
     522A      0.219568   523A      0.220406   524A      0.220804  
     525A      0.221438   526A      0.222343   527A      0.222894  
     528A      0.225067   529A      0.226413   530A      0.227007  
     531A      0.228253   532A      0.228881   533A      0.229291  
     534A      0.230293   535A      0.230710   536A      0.231481  
     537A      0.233460   538A      0.233658   539A      0.236332  
     540A      0.237039   541A      0.237319   542A      0.237736  
     543A      0.238031   544A      0.240066   545A      0.243265  
     546A      0.245325   547A      0.246191   548A      0.247107  
     549A      0.247543   550A      0.248741   551A      0.249412  
     552A      0.250068   553A      0.250461   554A      0.253000  
     555A      0.253903   556A      0.254920   557A      0.255205  
     558A      0.257227   559A      0.257901   560A      0.258233  
     561A      0.258674   562A      0.259907   563A      0.261180  
     564A      0.262304   565A      0.263273   566A      0.263618  
     567A      0.263987   568A      0.264745   569A      0.265880  
     570A      0.268177   571A      0.268758   572A      0.269817  
     573A      0.271097   574A      0.271306   575A      0.272099  
     576A      0.272559   577A      0.274476   578A      0.274663  
     579A      0.274899   580A      0.275513   581A      0.276920  
     582A      0.277509   583A      0.278753   584A      0.279355  
     585A      0.281205   586A      0.281319   587A      0.282934  
     588A      0.285559   589A      0.286663   590A      0.287938  
     591A      0.288119   592A      0.288553   593A      0.289010  
     594A      0.289345   595A      0.290377   596A      0.290933  
     597A      0.292220   598A      0.294089   599A      0.294963  
     600A      0.295798   601A      0.298152   602A      0.298956  
     603A      0.300803   604A      0.301463   605A      0.302153  
     606A      0.303120   607A      0.303509   608A      0.305167  
     609A      0.305487   610A      0.305744   611A      0.308878  
     612A      0.309632   613A      0.310414   614A      0.310843  
     615A      0.311497   616A      0.311951   617A      0.312194  
     618A      0.315008   619A      0.316410   620A      0.317333  
     621A      0.319383   622A      0.319767   623A      0.320986  
     624A      0.322291   625A      0.322395   626A      0.322617  
     627A      0.324103   628A      0.324549   629A      0.326183  
     630A      0.326767   631A      0.327296   632A      0.329219  
     633A      0.331466   634A      0.332081   635A      0.332487  
     636A      0.332938   637A      0.334545   638A      0.335048  
     639A      0.335379   640A      0.335823   641A      0.336462  
     642A      0.336842   643A      0.337153   644A      0.338628  
     645A      0.339967   646A      0.340144   647A      0.341534  
     648A      0.342813   649A      0.343220   650A      0.343977  
     651A      0.344880   652A      0.345043   653A      0.345538  
     654A      0.345891   655A      0.347001   656A      0.348635  
     657A      0.349156   658A      0.349706   659A      0.350379  
     660A      0.350884   661A      0.352013   662A      0.352893  
     663A      0.353744   664A      0.355834   665A      0.356547  
     666A      0.356648   667A      0.357398   668A      0.359279  
     669A      0.360613   670A      0.360712   671A      0.361460  
     672A      0.362017   673A      0.364683   674A      0.365625  
     675A      0.366927   676A      0.368480   677A      0.369191  
     678A      0.369864   679A      0.370108   680A      0.371177  
     681A      0.371930   682A      0.372915   683A      0.373163  
     684A      0.374258   685A      0.374701   686A      0.376592  
     687A      0.376986   688A      0.379278   689A      0.379992  
     690A      0.380698   691A      0.381279   692A      0.382766  
     693A      0.383121   694A      0.383715   695A      0.386436  
     696A      0.388043   697A      0.391575   698A      0.392027  
     699A      0.392493   700A      0.393001   701A      0.393287  
     702A      0.394320   703A      0.395077   704A      0.395629  
     705A      0.396162   706A      0.396936   707A      0.398192  
     708A      0.399610   709A      0.400244   710A      0.401572  
     711A      0.403181   712A      0.405437   713A      0.405561  
     714A      0.406357   715A      0.406763   716A      0.407702  
     717A      0.408002   718A      0.408864   719A      0.410338  
     720A      0.410944   721A      0.411944   722A      0.412330  
     723A      0.412689   724A      0.414151   725A      0.414334  
     726A      0.415334   727A      0.415640   728A      0.416175  
     729A      0.417485   730A      0.418538   731A      0.419139  
     732A      0.420124   733A      0.423694   734A      0.423995  
     735A      0.427060   736A      0.428639   737A      0.429502  
     738A      0.430767   739A      0.432141   740A      0.432203  
     741A      0.435560   742A      0.435838   743A      0.437136  
     744A      0.437320   745A      0.438502   746A      0.439478  
     747A      0.441261   748A      0.441765   749A      0.443516  
     750A      0.444784   751A      0.445517   752A      0.445925  
     753A      0.446389   754A      0.448306   755A      0.450448  
     756A      0.452503   757A      0.452904   758A      0.453759  
     759A      0.454231   760A      0.454806   761A      0.457405  
     762A      0.459038   763A      0.459473   764A      0.460121  
     765A      0.460979   766A      0.461773   767A      0.462258  
     768A      0.464242   769A      0.465170   770A      0.468852  
     771A      0.469755   772A      0.470700   773A      0.471468  
     774A      0.472477   775A      0.474169   776A      0.477525  
     777A      0.478489   778A      0.480258   779A      0.481028  
     780A      0.482011   781A      0.483333   782A      0.484876  
     783A      0.489815   784A      0.492218   785A      0.493364  
     786A      0.497731   787A      0.500307   788A      0.501695  
     789A      0.503317   790A      0.504462   791A      0.504747  
     792A      0.506142   793A      0.506902   794A      0.508291  
     795A      0.508551   796A      0.510257   797A      0.511394  
     798A      0.511917   799A      0.513590   800A      0.515749  
     801A      0.516285   802A      0.516905   803A      0.518012  
     804A      0.518535   805A      0.522747   806A      0.522996  
     807A      0.523640   808A      0.526930   809A      0.528097  
     810A      0.529970   811A      0.530341   812A      0.531023  
     813A      0.532754   814A      0.533348   815A      0.534861  
     816A      0.537353   817A      0.538716   818A      0.542855  
     819A      0.543760   820A      0.544705   821A      0.544980  
     822A      0.546657   823A      0.550326   824A      0.554550  
     825A      0.557999   826A      0.558919   827A      0.560257  
     828A      0.560628   829A      0.566112   830A      0.567485  
     831A      0.568712   832A      0.569855   833A      0.575329  
     834A      0.577505   835A      0.578651   836A      0.585815  
     837A      0.586708   838A      0.589482   839A      0.592746  
     840A      0.593160   841A      0.594331   842A      0.597583  
     843A      0.598013   844A      0.598487   845A      0.599418  
     846A      0.604010   847A      0.606075   848A      0.606196  
     849A      0.609729   850A      0.617827   851A      0.621909  
     852A      0.624244   853A      0.625037   854A      0.625191  
     855A      0.627458   856A      0.629220   857A      0.629656  
     858A      0.632955   859A      0.636883   860A      0.637591  
     861A      0.637955   862A      0.639665   863A      0.642097  
     864A      0.642762   865A      0.647524   866A      0.648249  
     867A      0.657572   868A      0.659537   869A      0.668146  
     870A      0.670768   871A      0.673142   872A      0.678133  
     873A      0.678541   874A      0.680209   875A      0.681056  
     876A      0.682143   877A      0.683263   878A      0.686845  
     879A      0.687777   880A      0.691694   881A      0.702244  
     882A      0.710620   883A      0.716472   884A      0.719368  
     885A      0.723678   886A      0.724998   887A      0.726005  
     888A      0.727996   889A      0.728530   890A      0.730388  
     891A      0.732221   892A      0.734620   893A      0.738137  
     894A      0.739920   895A      0.741471   896A      0.744749  
     897A      0.746163   898A      0.747120   899A      0.751592  
     900A      0.752609   901A      0.753689   902A      0.756316  
     903A      0.757082   904A      0.758290   905A      0.759875  
     906A      0.761937   907A      0.762887   908A      0.766312  
     909A      0.767296   910A      0.767838   911A      0.769286  
     912A      0.771170   913A      0.774979   914A      0.775198  
     915A      0.776312   916A      0.777557   917A      0.781591  
     918A      0.785920   919A      0.787082   920A      0.787731  
     921A      0.790556   922A      0.791985   923A      0.793094  
     924A      0.794014   925A      0.795416   926A      0.796530  
     927A      0.798984   928A      0.800914   929A      0.803163  
     930A      0.804995   931A      0.806773   932A      0.807750  
     933A      0.809116   934A      0.810743   935A      0.811557  
     936A      0.814899   937A      0.815671   938A      0.816994  
     939A      0.817321   940A      0.818546   941A      0.822710  
     942A      0.824651   943A      0.825345   944A      0.827402  
     945A      0.828220   946A      0.828766   947A      0.831373  
     948A      0.833245   949A      0.833917   950A      0.834719  
     951A      0.837801   952A      0.838933   953A      0.842053  
     954A      0.843716   955A      0.846526   956A      0.847382  
     957A      0.848268   958A      0.850434   959A      0.853098  
     960A      0.854804   961A      0.855350   962A      0.857442  
     963A      0.858365   964A      0.859356   965A      0.859846  
     966A      0.860605   967A      0.860904   968A      0.861758  
     969A      0.862645   970A      0.865660   971A      0.866280  
     972A      0.869620   973A      0.870916   974A      0.871551  
     975A      0.872796   976A      0.875013   977A      0.875104  
     978A      0.876566   979A      0.877830   980A      0.879492  
     981A      0.883113   982A      0.883607   983A      0.885884  
     984A      0.886964   985A      0.887635   986A      0.889506  
     987A      0.891150   988A      0.892499   989A      0.893296  
     990A      0.893846   991A      0.896137   992A      0.896247  
     993A      0.897065   994A      0.898343   995A      0.900967  
     996A      0.902243   997A      0.904713   998A      0.907870  
     999A      0.908571  1000A      0.910657  1001A      0.912047  
    1002A      0.916023  1003A      0.920165  1004A      0.921543  
    1005A      0.924431  1006A      0.925846  1007A      0.926427  
    1008A      0.928125  1009A      0.932091  1010A      0.933489  
    1011A      0.934753  1012A      0.935375  1013A      0.937528  
    1014A      0.940263  1015A      0.942185  1016A      0.943026  
    1017A      0.943223  1018A      0.945769  1019A      0.946305  
    1020A      0.946826  1021A      0.950243  1022A      0.951426  
    1023A      0.954903  1024A      0.955672  1025A      0.956593  
    1026A      0.957817  1027A      0.960680  1028A      0.962300  
    1029A      0.962675  1030A      0.963144  1031A      0.965385  
    1032A      0.967469  1033A      0.968606  1034A      0.970055  
    1035A      0.973252  1036A      0.975197  1037A      0.975472  
    1038A      0.977224  1039A      0.978566  1040A      0.980763  
    1041A      0.982770  1042A      0.983631  1043A      0.986482  
    1044A      0.986950  1045A      0.987494  1046A      0.988271  
    1047A      0.990120  1048A      0.991078  1049A      0.991653  
    1050A      0.992729  1051A      0.994005  1052A      0.994884  
    1053A      0.996564  1054A      0.997139  1055A      0.997802  
    1056A      0.999352  1057A      1.001168  1058A      1.002782  
    1059A      1.003199  1060A      1.005042  1061A      1.005834  
    1062A      1.006754  1063A      1.007659  1064A      1.008744  
    1065A      1.009493  1066A      1.010557  1067A      1.011220  
    1068A      1.011687  1069A      1.012011  1070A      1.013435  
    1071A      1.014414  1072A      1.014459  1073A      1.015359  
    1074A      1.016928  1075A      1.017325  1076A      1.018034  
    1077A      1.019469  1078A      1.020723  1079A      1.021312  
    1080A      1.022746  1081A      1.024075  1082A      1.024633  
    1083A      1.025261  1084A      1.026015  1085A      1.027550  
    1086A      1.027942  1087A      1.028088  1088A      1.028963  
    1089A      1.029965  1090A      1.030388  1091A      1.031931  
    1092A      1.033419  1093A      1.034356  1094A      1.035223  
    1095A      1.036407  1096A      1.037296  1097A      1.038193  
    1098A      1.039489  1099A      1.040834  1100A      1.041175  
    1101A      1.042238  1102A      1.043003  1103A      1.045937  
    1104A      1.047513  1105A      1.048781  1106A      1.049452  
    1107A      1.049707  1108A      1.053433  1109A      1.056859  
    1110A      1.057226  1111A      1.057495  1112A      1.059205  
    1113A      1.062843  1114A      1.064844  1115A      1.066291  
    1116A      1.068084  1117A      1.069044  1118A      1.070795  
    1119A      1.071211  1120A      1.072665  1121A      1.075201  
    1122A      1.077542  1123A      1.078373  1124A      1.080345  
    1125A      1.081008  1126A      1.083496  1127A      1.085973  
    1128A      1.086505  1129A      1.087469  1130A      1.088333  
    1131A      1.089329  1132A      1.091090  1133A      1.094235  
    1134A      1.095240  1135A      1.095996  1136A      1.096960  
    1137A      1.097765  1138A      1.102536  1139A      1.103277  
    1140A      1.104840  1141A      1.105551  1142A      1.107947  
    1143A      1.109169  1144A      1.110156  1145A      1.112425  
    1146A      1.115275  1147A      1.116160  1148A      1.122133  
    1149A      1.124462  1150A      1.124842  1151A      1.125850  
    1152A      1.128161  1153A      1.128671  1154A      1.131610  
    1155A      1.132545  1156A      1.136981  1157A      1.140022  
    1158A      1.140206  1159A      1.143095  1160A      1.143888  
    1161A      1.146242  1162A      1.150401  1163A      1.151274  
    1164A      1.153293  1165A      1.154066  1166A      1.157619  
    1167A      1.159053  1168A      1.160105  1169A      1.160988  
    1170A      1.166671  1171A      1.167580  1172A      1.167931  
    1173A      1.169935  1174A      1.173706  1175A      1.174629  
    1176A      1.180273  1177A      1.182526  1178A      1.183436  
    1179A      1.183513  1180A      1.188418  1181A      1.190104  
    1182A      1.191057  1183A      1.192669  1184A      1.197095  
    1185A      1.197883  1186A      1.201300  1187A      1.201957  
    1188A      1.202781  1189A      1.205025  1190A      1.208600  
    1191A      1.211023  1192A      1.213356  1193A      1.215672  
    1194A      1.219588  1195A      1.225601  1196A      1.226736  
    1197A      1.229712  1198A      1.230155  1199A      1.231378  
    1200A      1.232001  1201A      1.233480  1202A      1.235149  
    1203A      1.236711  1204A      1.238419  1205A      1.241406  
    1206A      1.243003  1207A      1.244235  1208A      1.245138  
    1209A      1.247231  1210A      1.252099  1211A      1.253998  
    1212A      1.257962  1213A      1.259031  1214A      1.260157  
    1215A      1.260455  1216A      1.260861  1217A      1.262217  
    1218A      1.264772  1219A      1.266678  1220A      1.267125  
    1221A      1.267911  1222A      1.271247  1223A      1.272211  
    1224A      1.273292  1225A      1.275836  1226A      1.277498  
    1227A      1.277759  1228A      1.278113  1229A      1.278720  
    1230A      1.282070  1231A      1.282694  1232A      1.291911  
    1233A      1.292169  1234A      1.293427  1235A      1.300560  
    1236A      1.301181  1237A      1.302738  1238A      1.303145  
    1239A      1.304885  1240A      1.308469  1241A      1.310548  
    1242A      1.310750  1243A      1.311692  1244A      1.314302  
    1245A      1.316578  1246A      1.320368  1247A      1.326923  
    1248A      1.327487  1249A      1.328575  1250A      1.334628  
    1251A      1.335885  1252A      1.337164  1253A      1.338163  
    1254A      1.342835  1255A      1.346338  1256A      1.346699  
    1257A      1.347628  1258A      1.348454  1259A      1.351135  
    1260A      1.352750  1261A      1.353541  1262A      1.354535  
    1263A      1.357182  1264A      1.359055  1265A      1.362194  
    1266A      1.363597  1267A      1.366190  1268A      1.367559  
    1269A      1.367633  1270A      1.371219  1271A      1.372978  
    1272A      1.374376  1273A      1.375860  1274A      1.376398  
    1275A      1.377563  1276A      1.378057  1277A      1.380256  
    1278A      1.382968  1279A      1.385106  1280A      1.386216  
    1281A      1.388839  1282A      1.390930  1283A      1.392501  
    1284A      1.395124  1285A      1.396064  1286A      1.396866  
    1287A      1.407632  1288A      1.408663  1289A      1.409396  
    1290A      1.410805  1291A      1.412838  1292A      1.414987  
    1293A      1.415999  1294A      1.416642  1295A      1.421878  
    1296A      1.422643  1297A      1.424514  1298A      1.425793  
    1299A      1.427350  1300A      1.432685  1301A      1.432846  
    1302A      1.438406  1303A      1.441652  1304A      1.442086  
    1305A      1.443659  1306A      1.451419  1307A      1.454855  
    1308A      1.457011  1309A      1.461098  1310A      1.472138  
    1311A      1.478841  1312A      1.479098  1313A      1.482773  
    1314A      1.489155  1315A      1.489601  1316A      1.505469  
    1317A      1.508806  1318A      1.518987  1319A      1.522774  
    1320A      1.531277  1321A      1.533102  1322A      1.535851  
    1323A      1.537294  1324A      1.537377  1325A      1.540272  
    1326A      1.541001  1327A      1.542220  1328A      1.544492  
    1329A      1.547765  1330A      1.549052  1331A      1.549831  
    1332A      1.551517  1333A      1.551933  1334A      1.552856  
    1335A      1.553545  1336A      1.554770  1337A      1.557125  
    1338A      1.558964  1339A      1.559647  1340A      1.561496  
    1341A      1.562231  1342A      1.564419  1343A      1.565521  
    1344A      1.566511  1345A      1.568261  1346A      1.569306  
    1347A      1.573201  1348A      1.573609  1349A      1.574189  
    1350A      1.574976  1351A      1.575388  1352A      1.576269  
    1353A      1.576831  1354A      1.581075  1355A      1.582231  
    1356A      1.582977  1357A      1.584486  1358A      1.584977  
    1359A      1.588329  1360A      1.588829  1361A      1.590035  
    1362A      1.591230  1363A      1.594180  1364A      1.595782  
    1365A      1.598429  1366A      1.598972  1367A      1.602408  
    1368A      1.603930  1369A      1.604540  1370A      1.605117  
    1371A      1.606102  1372A      1.606794  1373A      1.607307  
    1374A      1.609031  1375A      1.610722  1376A      1.614635  
    1377A      1.615455  1378A      1.617382  1379A      1.618579  
    1380A      1.625111  1381A      1.626191  1382A      1.628783  
    1383A      1.631079  1384A      1.634082  1385A      1.634995  
    1386A      1.635189  1387A      1.637892  1388A      1.638676  
    1389A      1.646773  1390A      1.647398  1391A      1.647918  
    1392A      1.651144  1393A      1.653139  1394A      1.654039  
    1395A      1.657777  1396A      1.658395  1397A      1.658717  
    1398A      1.658836  1399A      1.662210  1400A      1.663674  
    1401A      1.670985  1402A      1.676400  1403A      1.679655  
    1404A      1.684785  1405A      1.685091  1406A      1.685473  
    1407A      1.688522  1408A      1.689347  1409A      1.697403  
    1410A      1.702544  1411A      1.703180  1412A      1.706642  
    1413A      1.717356  1414A      1.721498  1415A      1.725736  
    1416A      1.726378  1417A      1.726814  1418A      1.737292  
    1419A      1.737485  1420A      1.742445  1421A      1.750947  
    1422A      1.757080  1423A      1.760191  1424A      1.761652  
    1425A      1.762627  1426A      1.765314  1427A      1.766043  
    1428A      1.768005  1429A      1.768133  1430A      1.769030  
    1431A      1.772118  1432A      1.773245  1433A      1.774108  
    1434A      1.776059  1435A      1.778233  1436A      1.779963  
    1437A      1.782392  1438A      1.784517  1439A      1.787242  
    1440A      1.794643  1441A      1.795621  1442A      1.797761  
    1443A      1.798493  1444A      1.799228  1445A      1.799601  
    1446A      1.800984  1447A      1.804127  1448A      1.806992  
    1449A      1.810279  1450A      1.811250  1451A      1.813950  
    1452A      1.815365  1453A      1.815835  1454A      1.816728  
    1455A      1.819948  1456A      1.820989  1457A      1.821293  
    1458A      1.821579  1459A      1.823916  1460A      1.824811  
    1461A      1.825405  1462A      1.825740  1463A      1.825872  
    1464A      1.829549  1465A      1.834821  1466A      1.838670  
    1467A      1.842105  1468A      1.845881  1469A      1.846332  
    1470A      1.849347  1471A      1.850934  1472A      1.852051  
    1473A      1.853909  1474A      1.855482  1475A      1.857797  
    1476A      1.858400  1477A      1.858803  1478A      1.859618  
    1479A      1.862280  1480A      1.863424  1481A      1.864624  
    1482A      1.868538  1483A      1.872679  1484A      1.875112  
    1485A      1.875387  1486A      1.877393  1487A      1.878779  
    1488A      1.880089  1489A      1.880515  1490A      1.881760  
    1491A      1.883792  1492A      1.885333  1493A      1.885845  
    1494A      1.887103  1495A      1.892260  1496A      1.894207  
    1497A      1.895863  1498A      1.897256  1499A      1.898375  
    1500A      1.899372  1501A      1.900352  1502A      1.901379  
    1503A      1.905622  1504A      1.906977  1505A      1.908538  
    1506A      1.910158  1507A      1.911028  1508A      1.911443  
    1509A      1.912215  1510A      1.918506  1511A      1.919713  
    1512A      1.922254  1513A      1.925721  1514A      1.929479  
    1515A      1.930883  1516A      1.931075  1517A      1.932407  
    1518A      1.932886  1519A      1.933989  1520A      1.939989  
    1521A      1.943588  1522A      1.945638  1523A      1.946613  
    1524A      1.949145  1525A      1.951728  1526A      1.952602  
    1527A      1.953452  1528A      1.954886  1529A      1.955321  
    1530A      1.957366  1531A      1.957963  1532A      1.959720  
    1533A      1.960695  1534A      1.961409  1535A      1.963074  
    1536A      1.964170  1537A      1.966168  1538A      1.968478  
    1539A      1.972229  1540A      1.973773  1541A      1.975350  
    1542A      1.976865  1543A      1.980589  1544A      1.982082  
    1545A      1.984306  1546A      1.987342  1547A      1.989720  
    1548A      1.991979  1549A      1.994094  1550A      1.995268  
    1551A      1.996698  1552A      1.997880  1553A      1.999013  
    1554A      2.000072  1555A      2.002193  1556A      2.004658  
    1557A      2.005837  1558A      2.008184  1559A      2.008522  
    1560A      2.008736  1561A      2.015100  1562A      2.017350  
    1563A      2.019010  1564A      2.019842  1565A      2.020807  
    1566A      2.021177  1567A      2.021613  1568A      2.023324  
    1569A      2.025243  1570A      2.025707  1571A      2.026007  
    1572A      2.027537  1573A      2.028656  1574A      2.029889  
    1575A      2.030252  1576A      2.031173  1577A      2.032919  
    1578A      2.034369  1579A      2.035447  1580A      2.036802  
    1581A      2.038274  1582A      2.039452  1583A      2.040411  
    1584A      2.043435  1585A      2.044928  1586A      2.045588  
    1587A      2.049446  1588A      2.051024  1589A      2.052164  
    1590A      2.052825  1591A      2.054309  1592A      2.055371  
    1593A      2.056006  1594A      2.057099  1595A      2.057206  
    1596A      2.058864  1597A      2.063722  1598A      2.065103  
    1599A      2.066045  1600A      2.067124  1601A      2.067519  
    1602A      2.068071  1603A      2.068696  1604A      2.071197  
    1605A      2.074575  1606A      2.075435  1607A      2.078562  
    1608A      2.079464  1609A      2.081467  1610A      2.082892  
    1611A      2.083340  1612A      2.083618  1613A      2.083996  
    1614A      2.085342  1615A      2.094738  1616A      2.095328  
    1617A      2.096293  1618A      2.097079  1619A      2.097360  
    1620A      2.098107  1621A      2.100591  1622A      2.101312  
    1623A      2.103264  1624A      2.103838  1625A      2.109485  
    1626A      2.110509  1627A      2.113380  1628A      2.118347  
    1629A      2.119328  1630A      2.120426  1631A      2.120952  
    1632A      2.126310  1633A      2.127223  1634A      2.127776  
    1635A      2.128995  1636A      2.129690  1637A      2.132620  
    1638A      2.133884  1639A      2.135869  1640A      2.137413  
    1641A      2.138908  1642A      2.139268  1643A      2.140072  
    1644A      2.143059  1645A      2.144341  1646A      2.148709  
    1647A      2.149216  1648A      2.149630  1649A      2.153417  
    1650A      2.155991  1651A      2.157547  1652A      2.160819  
    1653A      2.161326  1654A      2.162693  1655A      2.164184  
    1656A      2.165257  1657A      2.167134  1658A      2.170639  
    1659A      2.171691  1660A      2.173112  1661A      2.174772  
    1662A      2.174935  1663A      2.175375  1664A      2.178114  
    1665A      2.182334  1666A      2.187903  1667A      2.189358  
    1668A      2.189739  1669A      2.192486  1670A      2.198237  
    1671A      2.204543  1672A      2.205482  1673A      2.206726  
    1674A      2.209568  1675A      2.210605  1676A      2.215297  
    1677A      2.216548  1678A      2.220637  1679A      2.221629  
    1680A      2.225262  1681A      2.231326  1682A      2.231788  
    1683A      2.232117  1684A      2.236000  1685A      2.241488  
    1686A      2.243067  1687A      2.246512  1688A      2.246945  
    1689A      2.259754  1690A      2.261545  1691A      2.262675  
    1692A      2.263887  1693A      2.264683  1694A      2.265102  
    1695A      2.267153  1696A      2.268703  1697A      2.269308  
    1698A      2.269512  1699A      2.271738  1700A      2.274872  
    1701A      2.276827  1702A      2.278987  1703A      2.279596  
    1704A      2.279877  1705A      2.280837  1706A      2.281111  
    1707A      2.281754  1708A      2.283442  1709A      2.284800  
    1710A      2.285618  1711A      2.301606  1712A      2.307425  
    1713A      2.311467  1714A      2.321141  1715A      2.324661  
    1716A      2.325792  1717A      2.328241  1718A      2.329353  
    1719A      2.333850  1720A      2.340609  1721A      2.355877  
    1722A      2.356275  1723A      2.357967  1724A      2.361045  
    1725A      2.365189  1726A      2.369004  1727A      2.380643  
    1728A      2.382145  1729A      2.383514  1730A      2.389087  
    1731A      2.389753  1732A      2.401398  1733A      2.402657  
    1734A      2.404639  1735A      2.406050  1736A      2.407344  
    1737A      2.409869  1738A      2.410210  1739A      2.430325  
    1740A      2.430816  1741A      2.431615  1742A      2.440988  
    1743A      2.446988  1744A      2.447751  1745A      2.450351  
    1746A      2.456094  1747A      2.476133  1748A      2.476815  
    1749A      2.478403  1750A      2.481102  1751A      2.481677  
    1752A      2.482505  1753A      2.485802  1754A      2.487386  
    1755A      2.489093  1756A      2.489197  1757A      2.491208  
    1758A      2.491686  1759A      2.494777  1760A      2.501333  
    1761A      2.509078  1762A      2.511791  1763A      2.520883  
    1764A      2.523126  1765A      2.523941  1766A      2.524741  
    1767A      2.526146  1768A      2.527501  1769A      2.529597  
    1770A      2.529867  1771A      2.530846  1772A      2.535410  
    1773A      2.540156  1774A      2.540240  1775A      2.550743  
    1776A      2.551133  1777A      2.552576  1778A      2.553253  
    1779A      2.556597  1780A      2.557478  1781A      2.559951  
    1782A      2.570241  1783A      2.578215  1784A      2.580282  
    1785A      2.581757  1786A      2.582855  1787A      2.585795  
    1788A      2.586430  1789A      2.588061  1790A      2.593790  
    1791A      2.596721  1792A      2.597161  1793A      2.600635  
    1794A      2.602706  1795A      2.607413  1796A      2.608916  
    1797A      2.610691  1798A      2.611407  1799A      2.617981  
    1800A      2.618400  1801A      2.623102  1802A      2.623586  
    1803A      2.625228  1804A      2.627126  1805A      2.628510  
    1806A      2.628992  1807A      2.630286  1808A      2.630796  
    1809A      2.633202  1810A      2.634838  1811A      2.641401  
    1812A      2.660191  1813A      2.667724  1814A      2.668923  
    1815A      2.669348  1816A      2.670182  1817A      2.671328  
    1818A      2.671850  1819A      2.690512  1820A      2.695139  
    1821A      2.696020  1822A      2.703299  1823A      2.708007  
    1824A      2.709814  1825A      2.713062  1826A      2.717216  
    1827A      2.718540  1828A      2.729277  1829A      2.734708  
    1830A      2.735025  1831A      2.737300  1832A      2.737732  
    1833A      2.737847  1834A      2.741786  1835A      2.745973  
    1836A      2.749904  1837A      2.750715  1838A      2.751341  
    1839A      2.754144  1840A      2.756299  1841A      2.765664  
    1842A      2.766351  1843A      2.770956  1844A      2.776374  
    1845A      2.780037  1846A      2.780699  1847A      2.780703  
    1848A      2.784217  1849A      2.789624  1850A      2.800507  
    1851A      2.801741  1852A      2.802192  1853A      2.807780  
    1854A      2.809761  1855A      2.812663  1856A      2.815151  
    1857A      2.823538  1858A      2.828904  1859A      2.829851  
    1860A      2.851770  1861A      2.856346  1862A      2.858044  
    1863A      2.859110  1864A      2.868961  1865A      2.870801  
    1866A      2.875061  1867A      2.875661  1868A      2.902512  
    1869A      2.906350  1870A      2.906933  1871A      2.916236  
    1872A      2.932544  1873A      2.934237  1874A      2.966606  
    1875A      2.967099  1876A      2.977010  1877A      2.980938  
    1878A      2.985254  1879A      2.986826  1880A      2.988640  
    1881A      2.991883  1882A      2.994355  1883A      2.994605  
    1884A      3.006087  1885A      3.010238  1886A      3.035498  
    1887A      3.048631  1888A      3.053237  1889A      3.054142  
    1890A      3.061189  1891A      3.066300  1892A      3.066872  
    1893A      3.071836  1894A      3.074332  1895A      3.081715  
    1896A      3.083271  1897A      3.086861  1898A      3.088770  
    1899A      3.090159  1900A      3.091081  1901A      3.092189  
    1902A      3.095931  1903A      3.100866  1904A      3.102512  
    1905A      3.102541  1906A      3.113917  1907A      3.116189  
    1908A      3.116462  1909A      3.133704  1910A      3.134905  
    1911A      3.160451  1912A      3.192143  1913A      3.199403  
    1914A      3.199456  1915A      3.200539  1916A      3.201206  
    1917A      3.203430  1918A      3.207671  1919A      3.210929  
    1920A      3.213887  1921A      3.214583  1922A      3.236766  
    1923A      3.237833  1924A      3.238640  1925A      3.246610  
    1926A      3.297742  1927A      3.298838  1928A      3.307539  
    1929A      3.351923  1930A      3.363882  1931A      3.369304  
    1932A      3.370975  1933A      3.384315  1934A      3.389766  
    1935A      3.399392  1936A      3.401618  1937A      3.405341  
    1938A      3.407584  1939A      3.412827  1940A      3.423376  
    1941A      3.424614  1942A      3.437955  1943A      3.445771  
    1944A      3.479646  1945A      3.493134  1946A      3.512338  
    1947A      3.514442  1948A      3.521594  1949A      3.527706  
    1950A      3.573915  1951A      3.585908  1952A      3.593155  
    1953A      3.604256  1954A      3.606603  1955A      3.642735  
    1956A      3.684874  1957A      3.689135  1958A      3.691572  
    1959A      3.700401  1960A      3.716723  1961A      3.717640  
    1962A      3.780970  1963A      3.781412  1964A      3.810116  
    1965A      3.812436  1966A      3.847662  1967A      3.857381  
    1968A      3.876949  1969A      3.882871  1970A      3.885292  
    1971A      3.886937  1972A      3.900439  1973A      3.902346  
    1974A      3.912409  1975A      3.959035  1976A      3.961352  
    1977A      4.012126  1978A      4.173672  1979A      4.243986  
    1980A      4.347805  

    Final Occupation by Irrep:
              A 
    DOCC [   326 ]
    NA   [   326 ]
    NB   [   326 ]

  @DF-RHF Final Energy: -3953.65923672538975

   => Energetics <=

    Nuclear Repulsion Energy =          18207.8442817479153746
    One-Electron Energy =              -41621.7002335216457141
    Two-Electron Energy =               19460.1967150483396836
    Total Energy =                      -3953.6592367253906559

Computation Completed


Properties will be evaluated at   0.000000,   0.000000,   0.000000 [a0]

Properties computed using the SCF density matrix


 Multipole Moments:

 ------------------------------------------------------------------------------------
     Multipole            Electronic (a.u.)      Nuclear  (a.u.)        Total (a.u.)
 ------------------------------------------------------------------------------------

 L = 1.  Multiply by 2.5417464519 to convert [e a0] to [Debye]
 Dipole X            :          0.0018059            0.0004804            0.0022864
 Dipole Y            :         -1.5974407            1.8866171            0.2891764
 Dipole Z            :        -20.5025727           26.6655497            6.1629770
 Magnitude           :                                                    6.1697580

 ------------------------------------------------------------------------------------

*** tstop() called on n2cn0444 at Sat Jan 27 00:22:19 2024
Module time:
	user time   =   27552.83 seconds =     459.21 minutes
	system time =    1715.62 seconds =      28.59 minutes
	total time  =       3580 seconds =      59.67 minutes
Total time:
	user time   =   27552.83 seconds =     459.21 minutes
	system time =    1715.62 seconds =      28.59 minutes
	total time  =       3580 seconds =      59.67 minutes

  //>>>>>>>>>>>>>>>>>>>>>>>>>>>>>>>>>>>//
  //            Monomer A HF           //
  //<<<<<<<<<<<<<<<<<<<<<<<<<<<<<<<<<<<//

   => Libint2 <=

    Primary   basis highest AM E, G, H:  5, 4, 3
    Auxiliary basis highest AM E, G, H:  6, 5, 4
    Onebody   basis highest AM E, G, H:  6, 5, 4
    Solid Harmonics ordering:            gaussian

*** tstart() called on n2cn0444
*** at Sat Jan 27 00:22:19 2024

   => Loading Basis Set <=

    Name: JUN-CC-PVDZ
    Role: ORBITAL
    Keyword: BASIS
    atoms 1-2, 4-5, 10, 17-34, 41-53, 56-70, 73-89, 92-104, 109-119, 122-130 entry C          line   164 file /opt/software/pc2/EB-SW/software/PSI4/1.9-foss-2022a/share/psi4/basis/jun-cc-pvdz.gbs 
    atoms 3, 6                                                               entry N          line   198 file /opt/software/pc2/EB-SW/software/PSI4/1.9-foss-2022a/share/psi4/basis/jun-cc-pvdz.gbs 
    atoms 7-9, 11-16, 35-40, 54-55, 71-72, 90-91, 105-108, 120-121, 131-136  entry H          line    36 file /opt/software/pc2/EB-SW/software/PSI4/1.9-foss-2022a/share/psi4/basis/jun-cc-pvdz.gbs 


         ---------------------------------------------------------
                                   SCF
               by Justin Turney, Rob Parrish, Andy Simmonett
                          and Daniel G. A. Smith
                              RHF Reference
                       16 Threads,  61035 MiB Core
         ---------------------------------------------------------

  ==> Geometry <==

    Molecular point group: c1
    Full point group: C1

    Geometry (in Angstrom), charge = 1, multiplicity = 1:

       Center              X                  Y                   Z               Mass       
    ------------   -----------------  -----------------  -----------------  -----------------
         C            0.680062820275    -1.215917226251     4.072572876375    12.000000000000
         C           -0.680508179725    -1.215533226251     4.070544876375    12.000000000000
         N           -1.085639179725     0.102790773749     4.069546876375    14.003074004430
[...]
    1582A      2.191076  1583A      2.192163  1584A      2.192378  
    1585A      2.194647  1586A      2.196059  1587A      2.196772  
    1588A      2.197857  1589A      2.199452  1590A      2.200177  
    1591A      2.201012  1592A      2.201669  1593A      2.202829  
    1594A      2.204117  1595A      2.205706  1596A      2.207781  
    1597A      2.211399  1598A      2.211980  1599A      2.212735  
    1600A      2.215051  1601A      2.219966  1602A      2.221381  
    1603A      2.222612  1604A      2.222991  1605A      2.223985  
    1606A      2.224966  1607A      2.226583  1608A      2.228795  
    1609A      2.231698  1610A      2.232552  1611A      2.233230  
    1612A      2.235198  1613A      2.239281  1614A      2.239521  
    1615A      2.240173  1616A      2.242928  1617A      2.243781  
    1618A      2.246384  1619A      2.249522  1620A      2.250458  
    1621A      2.254807  1622A      2.258382  1623A      2.261214  
    1624A      2.265139  1625A      2.265746  1626A      2.268661  
    1627A      2.270363  1628A      2.276355  1629A      2.278133  
    1630A      2.283558  1631A      2.284546  1632A      2.288467  
    1633A      2.291767  1634A      2.292655  1635A      2.296906  
    1636A      2.297397  1637A      2.304545  1638A      2.304973  
    1639A      2.309529  1640A      2.310319  1641A      2.313344  
    1642A      2.318773  1643A      2.324495  1644A      2.325532  
    1645A      2.326201  1646A      2.328481  1647A      2.329760  
    1648A      2.330363  1649A      2.331489  1650A      2.332408  
    1651A      2.334109  1652A      2.335659  1653A      2.337410  
    1654A      2.341504  1655A      2.342464  1656A      2.342954  
    1657A      2.343405  1658A      2.344808  1659A      2.345646  
    1660A      2.346049  1661A      2.346928  1662A      2.349475  
    1663A      2.349852  1664A      2.360766  1665A      2.370672  
    1666A      2.373783  1667A      2.379784  1668A      2.383351  
    1669A      2.385171  1670A      2.386754  1671A      2.389404  
    1672A      2.393567  1673A      2.398192  1674A      2.399876  
    1675A      2.405542  1676A      2.416787  1677A      2.418945  
    1678A      2.421345  1679A      2.423955  1680A      2.428635  
    1681A      2.432234  1682A      2.435845  1683A      2.444181  
    1684A      2.445084  1685A      2.452801  1686A      2.453304  
    1687A      2.455568  1688A      2.465041  1689A      2.465808  
    1690A      2.468590  1691A      2.469390  1692A      2.472124  
    1693A      2.472438  1694A      2.491837  1695A      2.492095  
    1696A      2.494345  1697A      2.498209  1698A      2.503070  
    1699A      2.508171  1700A      2.509154  1701A      2.512026  
    1702A      2.516668  1703A      2.528382  1704A      2.537025  
    1705A      2.540245  1706A      2.540598  1707A      2.542037  
    1708A      2.543675  1709A      2.544268  1710A      2.546112  
    1711A      2.547412  1712A      2.548610  1713A      2.550050  
    1714A      2.552073  1715A      2.555411  1716A      2.556737  
    1717A      2.557592  1718A      2.559271  1719A      2.564712  
    1720A      2.571891  1721A      2.572104  1722A      2.579229  
    1723A      2.583029  1724A      2.585252  1725A      2.586254  
    1726A      2.586454  1727A      2.587700  1728A      2.589147  
    1729A      2.589496  1730A      2.593369  1731A      2.595866  
    1732A      2.601921  1733A      2.602702  1734A      2.613444  
    1735A      2.614852  1736A      2.615143  1737A      2.615961  
    1738A      2.616774  1739A      2.620204  1740A      2.621138  
    1741A      2.633290  1742A      2.641639  1743A      2.643613  
    1744A      2.645593  1745A      2.646342  1746A      2.649489  
    1747A      2.649767  1748A      2.651258  1749A      2.654094  
    1750A      2.658060  1751A      2.659566  1752A      2.666292  
    1753A      2.666833  1754A      2.668188  1755A      2.670449  
    1756A      2.671602  1757A      2.673447  1758A      2.674865  
    1759A      2.679156  1760A      2.680443  1761A      2.684513  
    1762A      2.686838  1763A      2.688032  1764A      2.689020  
    1765A      2.691925  1766A      2.692220  1767A      2.692737  
    1768A      2.694059  1769A      2.696373  1770A      2.697721  
    1771A      2.698323  1772A      2.705976  1773A      2.720665  
    1774A      2.730617  1775A      2.731626  1776A      2.731907  
    1777A      2.732577  1778A      2.733167  1779A      2.740534  
    1780A      2.745914  1781A      2.754434  1782A      2.762888  
    1783A      2.763372  1784A      2.771523  1785A      2.777065  
    1786A      2.780650  1787A      2.781425  1788A      2.784677  
    1789A      2.799865  1790A      2.800217  1791A      2.802311  
    1792A      2.802556  1793A      2.803296  1794A      2.810824  
    1795A      2.813029  1796A      2.815775  1797A      2.816619  
    1798A      2.817950  1799A      2.818544  1800A      2.820110  
    1801A      2.828848  1802A      2.833079  1803A      2.833579  
    1804A      2.840982  1805A      2.844031  1806A      2.844509  
    1807A      2.845900  1808A      2.848452  1809A      2.866413  
    1810A      2.866519  1811A      2.867302  1812A      2.872110  
    1813A      2.873028  1814A      2.876320  1815A      2.880590  
    1816A      2.895797  1817A      2.896204  1818A      2.897097  
    1819A      2.913020  1820A      2.918537  1821A      2.918908  
    1822A      2.927068  1823A      2.928685  1824A      2.930937  
    1825A      2.936145  1826A      2.937070  1827A      2.950094  
    1828A      2.957403  1829A      2.965550  1830A      2.967096  
    1831A      2.968830  1832A      2.975522  1833A      2.978132  
    1834A      2.993799  1835A      2.995185  1836A      2.999676  
    1837A      3.030421  1838A      3.031530  1839A      3.037283  
    1840A      3.042387  1841A      3.046569  1842A      3.048661  
    1843A      3.049708  1844A      3.056630  1845A      3.058213  
    1846A      3.060081  1847A      3.064196  1848A      3.073521  
    1849A      3.081439  1850A      3.104883  1851A      3.110206  
    1852A      3.114421  1853A      3.114829  1854A      3.123859  
    1855A      3.130155  1856A      3.131128  1857A      3.138355  
    1858A      3.139149  1859A      3.143061  1860A      3.144875  
    1861A      3.149943  1862A      3.151109  1863A      3.151546  
    1864A      3.152650  1865A      3.155652  1866A      3.158691  
    1867A      3.162582  1868A      3.168350  1869A      3.174443  
    1870A      3.177335  1871A      3.177914  1872A      3.194864  
    1873A      3.195639  1874A      3.219424  1875A      3.220721  
    1876A      3.254261  1877A      3.261239  1878A      3.262302  
    1879A      3.263392  1880A      3.263872  1881A      3.266342  
    1882A      3.269663  1883A      3.273086  1884A      3.275864  
    1885A      3.277051  1886A      3.299803  1887A      3.300823  
    1888A      3.302815  1889A      3.304758  1890A      3.312512  
    1891A      3.347929  1892A      3.359665  1893A      3.364548  
    1894A      3.367931  1895A      3.375778  1896A      3.417453  
    1897A      3.432200  1898A      3.433665  1899A      3.437641  
    1900A      3.450578  1901A      3.459180  1902A      3.466184  
    1903A      3.467731  1904A      3.468526  1905A      3.472426  
    1906A      3.475322  1907A      3.478727  1908A      3.490815  
    1909A      3.491977  1910A      3.510031  1911A      3.512578  
    1912A      3.541182  1913A      3.547993  1914A      3.576720  
    1915A      3.578851  1916A      3.586904  1917A      3.590882  
    1918A      3.605968  1919A      3.650359  1920A      3.651346  
    1921A      3.658741  1922A      3.669208  1923A      3.670626  
    1924A      3.707473  1925A      3.750853  1926A      3.752785  
    1927A      3.755387  1928A      3.766322  1929A      3.766768  
    1930A      3.779213  1931A      3.785162  1932A      3.827968  
    1933A      3.844167  1934A      3.844644  1935A      3.873220  
    1936A      3.875643  1937A      3.879307  1938A      3.911692  
    1939A      3.921355  1940A      3.943469  1941A      3.948973  
    1942A      3.949701  1943A      3.952306  1944A      3.966136  
    1945A      3.968840  1946A      3.976868  1947A      3.984147  
    1948A      4.024940  1949A      4.027783  1950A      4.078384  
    1951A      4.235810  1952A      4.241060  1953A      4.249405  
    1954A      4.313995  1955A      4.414431  1956A      4.468888  
    1957A      4.484890  1958A      4.528594  1959A      4.770487  
    1960A      4.808808  1961A      4.859071  1962A      4.889275  
    1963A      4.963883  1964A      5.073843  1965A      5.082201  
    1966A      5.087772  1967A      5.135391  1968A      5.157707  
    1969A      5.401577  1970A      5.435088  1971A      5.761916  
    1972A      5.767142  1973A      6.077277  1974A     18.215281  
    1975A     18.469823  1976A     18.487110  1977A     18.577914  
    1978A     18.868380  1979A     25.360882  1980A     25.394744  

    Final Occupation by Irrep:
              A 
    DOCC [   300 ]
    NA   [   300 ]
    NB   [   300 ]

  @DF-RHF Final Energy: -3650.34091940883491

   => Energetics <=

    Nuclear Repulsion Energy =          15611.4211649754324753
    One-Electron Energy =              -36072.1721168444419163
    Two-Electron Energy =               16810.4100324601749890
    Total Energy =                      -3650.3409194088344520

Computation Completed


Properties will be evaluated at   0.000000,   0.000000,   0.000000 [a0]

Properties computed using the SCF density matrix


 Multipole Moments:

 ------------------------------------------------------------------------------------
     Multipole            Electronic (a.u.)      Nuclear  (a.u.)        Total (a.u.)
 ------------------------------------------------------------------------------------

 L = 1.  Multiply by 2.5417464519 to convert [e a0] to [Debye]
 Dipole X            :         -0.0007200            0.0002112           -0.0005089
 Dipole Y            :          0.0044517           -0.0044281            0.0000237
 Dipole Z            :        380.3533663         -380.3634684           -0.0101021
 Magnitude           :                                                    0.0101149

 ------------------------------------------------------------------------------------

*** tstop() called on n2cn0444 at Sat Jan 27 01:43:03 2024
Module time:
	user time   =   18554.73 seconds =     309.25 minutes
	system time =    1177.13 seconds =      19.62 minutes
	total time  =       3086 seconds =      51.43 minutes
Total time:
	user time   =   51662.04 seconds =     861.03 minutes
	system time =    3290.29 seconds =      54.84 minutes
	total time  =       8424 seconds =     140.40 minutes
  Constructing Basis Sets for SAPT...

   => Loading Basis Set <=

    Name: (JUN-CC-PVDZ AUX)
    Role: RIFIT
    Keyword: DF_BASIS_SAPT
    atoms 1-2, 4-5, 10, 17-34, 41-53, 56-70, 73-89, 92-104, 109-119, 122-130 entry C          line   100 file /opt/software/pc2/EB-SW/software/PSI4/1.9-foss-2022a/share/psi4/basis/jun-cc-pvdz-ri.gbs 
    atoms 3, 6                                                               entry N          line   144 file /opt/software/pc2/EB-SW/software/PSI4/1.9-foss-2022a/share/psi4/basis/jun-cc-pvdz-ri.gbs 
    atoms 7-9, 11-16, 35-40, 54-55, 71-72, 90-91, 105-108, 120-121, 131-136  entry H          line    30 file /opt/software/pc2/EB-SW/software/PSI4/1.9-foss-2022a/share/psi4/basis/jun-cc-pvdz-ri.gbs 

   => Loading Basis Set <=

    Name: (JUN-CC-PVDZ AUX)
    Role: JKFIT
    Keyword: DF_BASIS_ELST
    atoms 1-2, 4-5, 10, 17-34, 41-53, 56-70, 73-89, 92-104, 109-119, 122-130 entry C          line   146 file /opt/software/pc2/EB-SW/software/PSI4/1.9-foss-2022a/share/psi4/basis/jun-cc-pvdz-jkfit.gbs 
    atoms 3, 6                                                               entry N          line   202 file /opt/software/pc2/EB-SW/software/PSI4/1.9-foss-2022a/share/psi4/basis/jun-cc-pvdz-jkfit.gbs 
    atoms 7-9, 11-16, 35-40, 54-55, 71-72, 90-91, 105-108, 120-121, 131-136  entry H          line    70 file /opt/software/pc2/EB-SW/software/PSI4/1.9-foss-2022a/share/psi4/basis/jun-cc-pvdz-jkfit.gbs 


  //>>>>>>>>>>>>>>>>>>>>>>>>>>>>>>>>>>>//
  //               SSAPT0              //
  //<<<<<<<<<<<<<<<<<<<<<<<<<<<<<<<<<<<//


*** tstart() called on n2cn0444
*** at Sat Jan 27 01:43:05 2024

        SAPT0  
    Ed Hohenstein
     6 June 2009

      Orbital Information
  --------------------------
    NSO        =      2019
    NMO        =      1980
    NRI        =      7157
    NRI (Elst) =      8896
    NOCC A     =        26
    NOCC B     =       300
    FOCC A     =         7
    FOCC B     =        96
    NVIR A     =      1954
    NVIR B     =      1680

    Elst10,r            =    -0.012218860763 [Eh]
    Exch10              =     0.000992889628 [Eh]
    Exch10 (S^2)        =     0.000992808636 [Eh]

    Iter     Energy [mEh]          dE [mEh]         Residual      Time [s]
       1      -0.07666018       0.076660184       1.304253120           273
       2      -0.08457437       0.007914187       0.398259358           525
       3      -0.08786072       0.003286353       0.042833475           736
       4      -0.08766153      -0.000199192       0.010703290           979
       5      -0.08766202       0.000000485       0.003483513          1170
       6      -0.08766957       0.000007556       0.000849992          1349
       7      -0.08766959       0.000000015       0.000367979          1540
       8      -0.08766914      -0.000000445       0.000133993          1735
       9      -0.08766915       0.000000004       0.000057162          1925
      10      -0.08766920       0.000000050       0.000016652          2072
      11      -0.08766919      -0.000000001       0.000005316          2290
      12      -0.08766919      -0.000000003       0.000001945          2495
      13      -0.08766919      -0.000000001       0.000000503          2716

    CHF Iterations converged


    Iter     Energy [mEh]          dE [mEh]         Residual      Time [s]
       1     -13.02112676      13.021126764      62.056318594           324
       2      -8.40316052      -4.617966240       7.482427319           608
       3      -8.37451498      -0.028645545       2.570405433           867
       4      -8.53554858       0.161033602       0.822057088          1112
       5      -8.55751282       0.021964239       0.291284294          1412
       6      -8.55521395      -0.002298874       0.198430103          1752
       7      -8.55035770      -0.004856247       0.082240421          1981
       8      -8.55070863       0.000350934       0.045624749          2247
       9      -8.55181701       0.001108373       0.028521571          2514
      10      -8.55157607      -0.000240935       0.023748876          2826
      11      -8.55133749      -0.000238577       0.010397924          3197
      12      -8.55133033      -0.000007161       0.005003650          3598
      13      -8.55138039       0.000050058       0.002113972          3981
      14      -8.55139462       0.000014227       0.001103514          4293
      15      -8.55138797      -0.000006643       0.000717278          4639
      16      -8.55137943      -0.000008545       0.000316546          4953
      17      -8.55138357       0.000004138       0.000128129          5266
      18      -8.55138461       0.000001037       0.000053034          5570
      19      -8.55138419      -0.000000412       0.000035025          5890
      20      -8.55138384      -0.000000356       0.000015968          6180
      21      -8.55138395       0.000000118       0.000007899          6498
      22      -8.55138401       0.000000058       0.000003428          6813
      23      -8.55138400      -0.000000014       0.000001604          7136
      24      -8.55138399      -0.000000012       0.000001000          7510
      25      -8.55138399       0.000000000       0.000000613          7806

    CHF Iterations converged

    Ind20,r (A<-B)      =    -0.000087669191 [Eh]
    Ind20,r (B<-A)      =    -0.008551383987 [Eh]
    Ind20,r             =    -0.008639053177 [Eh]
    Exch-Ind20,r (A<-B) =     0.000068506624 [Eh]
    Exch-Ind20,r (B<-A) =     0.000146819908 [Eh]
    Exch-Ind20,r        =     0.000215326533 [Eh]
    Disp20              =    -0.012303681114 [Eh]
    Disp20 (SS)         =    -0.006151840557 [Eh]
    Disp20 (OS)         =    -0.006151840557 [Eh]
    Exch-Disp20         =     0.000163645168 [Eh]
    Exch-Disp20 (SS)    =     0.000106843321 [Eh]
    Exch-Disp20 (OS)    =     0.000056801848 [Eh]

    SAPT Results 
  --------------------------------------------------------------------------------------------------------
    Electrostatics                -12.21886076 [mEh]      -7.66745089 [kcal/mol]     -32.08061451 [kJ/mol]
      Elst10,r                    -12.21886076 [mEh]      -7.66745089 [kcal/mol]     -32.08061451 [kJ/mol]

    Exchange                        0.99288963 [mEh]       0.62304765 [kcal/mol]       2.60683136 [kJ/mol]
      Exch10                        0.99288963 [mEh]       0.62304765 [kcal/mol]       2.60683136 [kJ/mol]
      Exch10(S^2)                   0.99280864 [mEh]       0.62299682 [kcal/mol]       2.60661871 [kJ/mol]

    Induction                      -8.81147688 [mEh]      -5.52928522 [kcal/mol]     -23.13452935 [kJ/mol]
      Ind20,r                      -8.63905318 [mEh]      -5.42108771 [kcal/mol]     -22.68183099 [kJ/mol]
      Exch-Ind20,r                  0.21532653 [mEh]       0.13511944 [kcal/mol]       0.56533973 [kJ/mol]
      delta HF,r (2)               -0.38775023 [mEh]      -0.24331694 [kcal/mol]      -1.01803810 [kJ/mol]

    Dispersion                    -12.14003595 [mEh]      -7.61798757 [kcal/mol]     -31.87365998 [kJ/mol]
      Disp20                      -12.30368111 [mEh]      -7.72067646 [kcal/mol]     -32.30331031 [kJ/mol]
      Exch-Disp20                   0.16364517 [mEh]       0.10268889 [kcal/mol]       0.42965033 [kJ/mol]
      Disp20 (SS)                  -6.15184056 [mEh]      -3.86033823 [kcal/mol]     -16.15165516 [kJ/mol]
      Disp20 (OS)                  -6.15184056 [mEh]      -3.86033823 [kcal/mol]     -16.15165516 [kJ/mol]
      Exch-Disp20 (SS)              0.10684332 [mEh]       0.06704520 [kcal/mol]       0.28051710 [kJ/mol]
      Exch-Disp20 (OS)              0.05680185 [mEh]       0.03564370 [kcal/mol]       0.14913323 [kJ/mol]

  Total HF                        -20.03744801 [mEh]     -12.57368846 [kcal/mol]     -52.60831251 [kJ/mol]
  Total SAPT0                     -32.17748396 [mEh]     -20.19167603 [kcal/mol]     -84.48197249 [kJ/mol]

  Special recipe for scaled SAPT0 (see Manual):
    Electrostatics sSAPT0         -12.21886076 [mEh]      -7.66745089 [kcal/mol]     -32.08061451 [kJ/mol]
    Exchange sSAPT0                 0.99288963 [mEh]       0.62304765 [kcal/mol]       2.60683136 [kJ/mol]
    Induction sSAPT0               -8.81142417 [mEh]      -5.52925215 [kcal/mol]     -23.13439098 [kJ/mol]
    Dispersion sSAPT0             -12.13999589 [mEh]      -7.61796243 [kcal/mol]     -31.87355482 [kJ/mol]
  Total sSAPT0                    -32.17739120 [mEh]     -20.19161782 [kcal/mol]     -84.48172896 [kJ/mol]
  --------------------------------------------------------------------------------------------------------

*** tstop() called on n2cn0444 at Sat Jan 27 11:32:15 2024
Module time:
	user time   =   76481.93 seconds =    1274.70 minutes
	system time =    3384.49 seconds =      56.41 minutes
	total time  =      35350 seconds =     589.17 minutes
Total time:
	user time   =  128145.48 seconds =    2135.76 minutes
	system time =    6674.78 seconds =     111.25 minutes
	total time  =      43776 seconds =     729.60 minutes

    Psi4 stopped on: Saturday, 27 January 2024 11:32AM
    Psi4 wall time for execution: 12:09:37.36

*** Psi4 exiting successfully. Buy a developer a beer!
