
    -----------------------------------------------------------------------
          Psi4: An Open-Source Ab Initio Electronic Structure Package
                               Psi4 1.9 release

                         Git: Rev {} zzzzzzz 


    D. G. A. Smith, L. A. Burns, A. C. Simmonett, R. M. Parrish,
    M. C. Schieber, R. Galvelis, P. Kraus, H. Kruse, R. Di Remigio,
    A. Alenaizan, A. M. James, S. Lehtola, J. P. Misiewicz, M. Scheurer,
    R. A. Shaw, J. B. Schriber, Y. Xie, Z. L. Glick, D. A. Sirianni,
    J. S. O'Brien, J. M. Waldrop, A. Kumar, E. G. Hohenstein,
    B. P. Pritchard, B. R. Brooks, H. F. Schaefer III, A. Yu. Sokolov,
    K. Patkowski, A. E. DePrince III, U. Bozkaya, R. A. King,
    F. A. Evangelista, J. M. Turney, T. D. Crawford, C. D. Sherrill,
    J. Chem. Phys. 152(18) 184108 (2020). https://doi.org/10.1063/5.0006002

                            Additional Code Authors
    E. T. Seidl, C. L. Janssen, E. F. Valeev, M. L. Leininger,
    J. F. Gonthier, R. M. Richard, H. R. McAlexander, M. Saitow, X. Wang,
    P. Verma, M. H. Lechner, A. Jiang, S. Behnle, A. G. Heide,
    M. F. Herbst, and D. L. Poole

             Previous Authors, Complete List of Code Contributors,
                       and Citations for Specific Modules
    https://github.com/psi4/psi4/blob/master/codemeta.json
    https://github.com/psi4/psi4/graphs/contributors
    http://psicode.org/psi4manual/master/introduction.html#citing-psifour

    -----------------------------------------------------------------------


    Psi4 started on: Saturday, 20 January 2024 10:10PM

    Process ID: 2018438
    Host:       d-6-1-4
    PSIDATADIR: /home/gridsan/tfroembgen/.conda/envs/psi4test/share/psi4
    Memory:     500.0 MiB
    Threads:    12
    
  ==> Input File <==

--------------------------------------------------------------------------
memory 32 GB # how much memory is available ! Depends on the nodes/cores !

molecule dimer {
# monomer A
-1 1    # Charge and multiplicity
B -1.977592e-04  2.742729e-04 -2.399966
F  1.123153e-16  1.430594e-17 -0.987181
F  1.147860e+00  6.757812e-01 -2.871107
F  1.191806e-02 -1.332011e+00 -2.870905
F -1.159666e+00  6.560735e-01 -2.870826
--
# monomer B
0 1     # Charge and multiplicity
C   1.22531237526482      0.70753866091955      0.00613762728373
C   1.22532433589282     -0.70753852257020     -0.00619318228664
C   -0.00000567409046      1.41496628609039     -0.00672680580738
C   2.45644923379077      1.41832825917820      0.00902448468363
C   0.00001130712078     -1.41497612663474      0.00347275151708
C   -1.22530046906674      0.70754574598412      0.00838914760619
C   2.45643823516184     -1.41832293188077     -0.00843833914343
C   -0.00000085313587      2.83680140328112     -0.00913035594137
C   3.68182717731192      0.70931832800114     -0.00808954934571
C   2.45512052870677      2.83422403348893     -0.00819210630633
C   3.68182158506039     -0.70933346742900      0.00798293467272
C   -1.22531311884624     -0.70752714354401     -0.00512042085974
C   1.22670006104402      3.54346985599427      0.00816696660346
C   0.00000526469929     -2.83678176723568      0.00832091913869
C   -2.45643555300670      1.41831729028492      0.00842454345199
C   2.45512389762097     -2.83422965658853      0.00783102630520
C   -1.22671388474763      3.54346943575023      0.00827029982280
C   4.91451777504333      1.42717324448953     -0.00160886631602
C   3.69315067131765      3.54279566454522     -0.00155906667985
C   -2.45643712022637     -1.41831290883911     -0.00846337726810
C   1.22670532178455     -3.54347386990643     -0.00780316414624
C   -2.45512491866593      2.83421703463423     -0.00818572995999
C   4.91452486062398     -1.42718653794377      0.00136387641845
C   1.22142509354026      4.97013443726031      0.00150231067809
C   4.89300870916237      2.82518837202648     -0.00039219795739
C   -1.22669652864725     -3.54347062507680     -0.00753595973677
C   -3.68181849668397      0.70932533873199     -0.00807686886569
C   3.69314758099218     -3.54280096939050      0.00148176697923
C   -1.22143177215231      4.97012866986289      0.00168580605083
C   6.13477145276790      0.68054831910577     -0.00083909176631
C   3.65678936045204      4.97295361556775     -0.00065042889723
C   -2.45512642789169     -2.83421472106065      0.00758666850712
C   -3.68181869921921     -0.70932533146830      0.00810055625144
C   4.89301309775526     -2.82519973363176      0.00021895393805
C   -0.00000059327114      5.65044773803267      0.00045449734393
C   6.13477559217374     -0.68055448207492      0.00042622874941
C   2.47813196269732      5.65357712333155      0.00063835075260
C   1.22142288457925     -4.97012668293268     -0.00129718634452
C   -3.69316190412301      3.54279732619245     -0.00139355922051
C   -1.22142804110313     -4.97011793159564     -0.00140994817719
C   -4.91452132810043      1.42717581899491     -0.00153192130862
C   3.65678749952045     -4.97295485423912      0.00080007163680
C   -2.47813805026426      5.65357479452875      0.00092287576113
C   -3.69314125872231     -3.54278984697859      0.00136564082345
C   -4.91451200321153     -1.42718062802730      0.00139857359209
C   -0.00000552908399     -5.65043791501335      0.00005899322272
C   -4.89302000425900      2.82518897091939     -0.00040227981744
C   2.47812647313991     -5.65357317188818     -0.00029052915548
C   -3.65679823041642      4.97295655404175     -0.00047374852278
C   -4.89299899901461     -2.82519139505969      0.00006491824035
C   -2.47812801824129     -5.65356579800621     -0.00056571680280
C   -6.13477002348955      0.68054913825639     -0.00086464346868
C   -3.65678835334731     -4.97294365097028      0.00058578382008
C   -6.13476456307132     -0.68055354348201      0.00040575295444
H   5.83528897565761      3.36927626695423      0.00396712770529
H   7.07385965258860      1.22821762089947     -0.00037744837300
H   4.60066374401555      5.51238117445323     -0.00014522814529
H   5.83528386714679     -3.36930568472863     -0.00423551337640
H   -0.00001167146422      6.73853104613662     -0.00389474766392
H   7.07386165167227     -1.22822657074368     -0.00008250934481
H   2.47331421164041      6.74068466339473      0.00017162982210
H   4.60066897122302     -5.51237575717576      0.00039007446835
H   -2.47331820069565      6.74068209160650      0.00047297644710
H   -0.00000978838621     -6.73852780445195      0.00458867820736
H   -5.83530143450167      3.36927132229595      0.00410314985360
H   2.47330840367253     -6.74068500242887      0.00027980126949
H   -4.60067436136587      5.51237839860371      0.00002010017831
H   -5.83527902699321     -3.36928859177951     -0.00451481925734
H   -2.47329986759855     -6.74067870613986     -0.00016951527498
H   -7.07385728692578      1.22822084484047     -0.00046143985387
H   -4.60067330624313     -5.51236229778631      0.00021776644566
H   -7.07385645456741     -1.22822025997701     -0.00017736581114

    units angstrom      # Angstroms are the default
    no_reorient         # Geometry fixed, default
    symmetry c1         # C1 symmetry, default
}

set {
    scf_type DF         # Density fitting, faster than exact integrals
    freeze_core True    # Freeze core electrons
    basis jun-cc-pVDZ   # Jun-cc-pVDZ basis set, recommended for sSAPT0 in https://doi.org/10.1063/1.4867135
}

energy('ssapt0')        # Compute sSAPT0 energy, includes also SAPT0
--------------------------------------------------------------------------

  Memory set to  29.802 GiB by Python driver.

Scratch directory: /state/partition1/slurm_tmp/24778925.4294967291.0/
   => Loading Basis Set <=

    Name: JUN-CC-PVDZ
    Role: ORBITAL
    Keyword: BASIS
    atoms 1     entry B          line   130 file /home/gridsan/tfroembgen/.conda/envs/psi4test/share/psi4/basis/jun-cc-pvdz.gbs 
    atoms 2-5   entry F          line   266 file /home/gridsan/tfroembgen/.conda/envs/psi4test/share/psi4/basis/jun-cc-pvdz.gbs 
    atoms 6-59  entry C          line   164 file /home/gridsan/tfroembgen/.conda/envs/psi4test/share/psi4/basis/jun-cc-pvdz.gbs 
    atoms 60-77 entry H          line    36 file /home/gridsan/tfroembgen/.conda/envs/psi4test/share/psi4/basis/jun-cc-pvdz.gbs 

   => Loading Basis Set <=

    Name: JUN-CC-PVDZ
    Role: ORBITAL
    Keyword: BASIS
    atoms 1     entry B          line   130 file /home/gridsan/tfroembgen/.conda/envs/psi4test/share/psi4/basis/jun-cc-pvdz.gbs 
    atoms 2-5   entry F          line   266 file /home/gridsan/tfroembgen/.conda/envs/psi4test/share/psi4/basis/jun-cc-pvdz.gbs 
    atoms 6-59  entry C          line   164 file /home/gridsan/tfroembgen/.conda/envs/psi4test/share/psi4/basis/jun-cc-pvdz.gbs 
    atoms 60-77 entry H          line    36 file /home/gridsan/tfroembgen/.conda/envs/psi4test/share/psi4/basis/jun-cc-pvdz.gbs 


  //>>>>>>>>>>>>>>>>>>>>>>>>>>>>>>>>>>>//
  //              Dimer HF             //
  //<<<<<<<<<<<<<<<<<<<<<<<<<<<<<<<<<<<//

   => Libint2 <=

    Primary   basis highest AM E, G, H:  7, 7, 4
    Auxiliary basis highest AM E, G, H:  7, 7, 5
    Onebody   basis highest AM E, G, H:  7, 7, 5
    Solid Harmonics ordering:            gaussian

*** tstart() called on d-6-1-4
*** at Sat Jan 20 22:10:10 2024

   => Loading Basis Set <=

    Name: JUN-CC-PVDZ
    Role: ORBITAL
    Keyword: BASIS
    atoms 1     entry B          line   130 file /home/gridsan/tfroembgen/.conda/envs/psi4test/share/psi4/basis/jun-cc-pvdz.gbs 
    atoms 2-5   entry F          line   266 file /home/gridsan/tfroembgen/.conda/envs/psi4test/share/psi4/basis/jun-cc-pvdz.gbs 
    atoms 6-59  entry C          line   164 file /home/gridsan/tfroembgen/.conda/envs/psi4test/share/psi4/basis/jun-cc-pvdz.gbs 
    atoms 60-77 entry H          line    36 file /home/gridsan/tfroembgen/.conda/envs/psi4test/share/psi4/basis/jun-cc-pvdz.gbs 


         ---------------------------------------------------------
                                   SCF
               by Justin Turney, Rob Parrish, Andy Simmonett
                          and Daniel G. A. Smith
                              RHF Reference
                       12 Threads,  30517 MiB Core
         ---------------------------------------------------------

  ==> Geometry <==

    Molecular point group: c1
    Full point group: C1

    Geometry (in Angstrom), charge = -1, multiplicity = 1:

       Center              X                  Y                   Z               Mass       
    ------------   -----------------  -----------------  -----------------  -----------------
         B           -0.000198161052     0.000273808717    -2.122716585900    11.009305360000
         F           -0.000000401852    -0.000000464183    -0.709931585900    18.998403162730
         F            1.147859598148     0.675780735817    -2.593857585900    18.998403162730
         F            0.011917658148    -1.332011464183    -2.593655585900    18.998403162730
         F           -1.159666401852     0.656073035817    -2.593576585900    18.998403162730
         C            1.225311973413     0.707538196736     0.283387041383    12.000000000000
         C            1.225323934041    -0.707538986754     0.271056231813    12.000000000000
         C           -0.000006075942     1.414965821907     0.270522608292    12.000000000000
         C            2.456448831939     1.418327794995     0.286273898783    12.000000000000
         C            0.000010905269    -1.414976590818     0.280722165617    12.000000000000
         C           -1.225300870919     0.707545281801     0.285638561706    12.000000000000
         C            2.456437833310    -1.418323396064     0.268811074956    12.000000000000
         C           -0.000001254988     2.836800939098     0.268119058158    12.000000000000
         C            3.681826775460     0.709317863818     0.269159864754    12.000000000000
         C            2.455120126855     2.834223569306     0.269057307793    12.000000000000
         C            3.681821183209    -0.709333931612     0.285232348772    12.000000000000
         C           -1.225313520698    -0.707527607727     0.272128993240    12.000000000000
         C            1.226699659192     3.543469391811     0.285416380703    12.000000000000
         C            0.000004862847    -2.836782231419     0.285570333238    12.000000000000
         C           -2.456435954859     1.418316826102     0.285673957552    12.000000000000
         C            2.455123495769    -2.834230120772     0.285080440405    12.000000000000
         C           -1.226714286599     3.543468971567     0.285519713923    12.000000000000
         C            4.914517373191     1.427172780306     0.275640547784    12.000000000000
         C            3.693150269466     3.542795200362     0.275690347420    12.000000000000
         C           -2.456437522078    -1.418313373022     0.268786036832    12.000000000000
         C            1.226704919933    -3.543474334090     0.269446249953    12.000000000000
         C           -2.455125320518     2.834216570451     0.269063684140    12.000000000000
         C            4.914524458772    -1.427187002127     0.278613290518    12.000000000000
         C            1.221424691688     4.970133973077     0.278751724778    12.000000000000
         C            4.893008307311     2.825187907843     0.276857216142    12.000000000000
         C           -1.226696930499    -3.543471089260     0.269713454363    12.000000000000
         C           -3.681818898536     0.709324874549     0.269172545234    12.000000000000
         C            3.693147179140    -3.542801433574     0.278731181079    12.000000000000
         C           -1.221432174004     4.970128205680     0.278935220151    12.000000000000
         C            6.134771050916     0.680547854922     0.276410322333    12.000000000000
         C            3.656788958600     4.972953151384     0.276598985202    12.000000000000
         C           -2.455126829744    -2.834215185244     0.284836082607    12.000000000000
         C           -3.681819101071    -0.709325795652     0.285349970351    12.000000000000
         C            4.893012695903    -2.825200197815     0.277468368038    12.000000000000
         C           -0.000000995123     5.650447273849     0.277703911444    12.000000000000
         C            6.134775190322    -0.680554946258     0.277675642849    12.000000000000
         C            2.478131560845     5.653576659148     0.277887764852    12.000000000000
         C            1.221422482727    -4.970127147116     0.275952227755    12.000000000000
         C           -3.693162305975     3.542796862009     0.275855854879    12.000000000000
         C           -1.221428442955    -4.970118395779     0.275839465923    12.000000000000
         C           -4.914521729952     1.427175354812     0.275717492791    12.000000000000
         C            3.656787097669    -4.972955318422     0.278049485737    12.000000000000
         C           -2.478138452116     5.653574330345     0.278172289861    12.000000000000
         C           -3.693141660574    -3.542790311162     0.278615054923    12.000000000000
         C           -4.914512405063    -1.427181092211     0.278647987692    12.000000000000
         C           -0.000005930936    -5.650438379197     0.277308407322    12.000000000000
         C           -4.893020406111     2.825188506736     0.276847134282    12.000000000000
         C            2.478126071288    -5.653573636072     0.276958884944    12.000000000000
         C           -3.656798632268     4.972956089858     0.276775665577    12.000000000000
         C           -4.892999400866    -2.825191859243     0.277314332340    12.000000000000
         C           -2.478128420093    -5.653566262190     0.276683697297    12.000000000000
         C           -6.134770425341     0.680548674073     0.276384770631    12.000000000000
         C           -3.656788755199    -4.972944115154     0.277835197920    12.000000000000
         C           -6.134764964923    -0.680554007665     0.277655167054    12.000000000000
         H            5.835288573806     3.369275802771     0.281216541805     1.007825032230
         H            7.073859250737     1.228217156716     0.276871965727     1.007825032230
         H            4.600663342164     5.512380710270     0.277104185954     1.007825032230
         H            5.835283465295    -3.369306148912     0.273013900723     1.007825032230
         H           -0.000012073316     6.738530581953     0.273354666436     1.007825032230
         H            7.073861249820    -1.228227034927     0.277166904755     1.007825032230
         H            2.473313809789     6.740684199211     0.277421043922     1.007825032230
         H            4.600668569371    -5.512376221359     0.277639488568     1.007825032230
         H           -2.473318602548     6.740681627423     0.277722390547     1.007825032230
         H           -0.000010190238    -6.738528268635     0.281838092307     1.007825032230
         H           -5.835301836354     3.369270858113     0.281352563953     1.007825032230
         H            2.473308001821    -6.740685466612     0.277529215369     1.007825032230
         H           -4.600674763218     5.512377934420     0.277269514278     1.007825032230
         H           -5.835279428845    -3.369289055963     0.272734594842     1.007825032230
         H           -2.473300269450    -6.740679170323     0.277079898825     1.007825032230
         H           -7.073857688778     1.228220380657     0.276787974246     1.007825032230
         H           -4.600673708095    -5.512362761970     0.277467180545     1.007825032230
         H           -7.073856856419    -1.228220724160     0.277072048289     1.007825032230

  Running in c1 symmetry.

  Rotational constants: A =      0.00207  B =      0.00207  C =      0.00110 [cm^-1]
  Rotational constants: A =     62.04564  B =     62.03674  C =     33.02251 [MHz]
  Nuclear repulsion = 8162.981746454492168

  Charge       = -1
  Multiplicity = 1
  Electrons    = 384
  Nalpha       = 192
  Nbeta        = 192

  ==> Algorithm <==

  SCF Algorithm Type is DF.
  DIIS enabled.
  MOM disabled.
  Fractional occupation disabled.
  Guess Type is SAD.
  Energy threshold   = 1.00e-08
  Density threshold  = 1.00e-08
  Integral threshold = 1.00e-12

  ==> Primary Basis <==

  Basis Set: JUN-CC-PVDZ
    Blend: JUN-CC-PVDZ
    Number of shells: 526
    Number of basis functions: 1152
    Number of Cartesian functions: 1211
    Spherical Harmonics?: true
    Max angular momentum: 2

   => Loading Basis Set <=

    Name: (JUN-CC-PVDZ AUX)
    Role: JKFIT
    Keyword: DF_BASIS_SCF
    atoms 1     entry B          line    90 file /home/gridsan/tfroembgen/.conda/envs/psi4test/share/psi4/basis/jun-cc-pvdz-jkfit.gbs 
    atoms 2-5   entry F          line   314 file /home/gridsan/tfroembgen/.conda/envs/psi4test/share/psi4/basis/jun-cc-pvdz-jkfit.gbs 
    atoms 6-59  entry C          line   146 file /home/gridsan/tfroembgen/.conda/envs/psi4test/share/psi4/basis/jun-cc-pvdz-jkfit.gbs 
    atoms 60-77 entry H          line    70 file /home/gridsan/tfroembgen/.conda/envs/psi4test/share/psi4/basis/jun-cc-pvdz-jkfit.gbs 

  ==> Integral Setup <==

  ==> DiskDFJK: Density-Fitted J/K Matrices <==

    J tasked:                  Yes
    K tasked:                  Yes
    wK tasked:                  No
    OpenMP threads:             12
    Integrals threads:          12
    Memory [MiB]:            22888
    Algorithm:                Core
    Integral Cache:           SAVE
    Schwarz Cutoff:          1E-12
    Fitting Condition:       1E-10

   => Auxiliary Basis Set <=

  Basis Set: (JUN-CC-PVDZ AUX)
    Blend: JUN-CC-PVDZ-JKFIT
    Number of shells: 1755
    Number of basis functions: 5075
    Number of Cartesian functions: 5819
    Spherical Harmonics?: true
    Max angular momentum: 3

  Minimum eigenvalue in the overlap matrix is 5.9755601088E-10.
  Reciprocal condition number of the overlap matrix is 2.3963262328E-11.
    Using canonical orthogonalization.
  Overall, 14 of 1152 possible MOs eliminated.


  ==> Pre-Iterations <==

  SCF Guess: Superposition of Atomic Densities via on-the-fly atomic UHF (no occupation information).

   -------------------------
    Irrep   Nso     Nmo    
   -------------------------
     A       1152    1138 
   -------------------------
    Total    1152    1138
   -------------------------

  ==> Iterations <==

                           Total Energy        Delta E     RMS |[F,P]|

   @DF-RHF iter SAD: -2485.52155746563312   -2.48552e+03   0.00000e+00 
   @DF-RHF iter   1: -2477.04965852666965    8.47190e+00   1.11141e-03 ADIIS/DIIS
   @DF-RHF iter   2: -2477.96580648392819   -9.16148e-01   4.82966e-04 ADIIS/DIIS
   @DF-RHF iter   3: -2478.11084483886134   -1.45038e-01   1.58728e-04 ADIIS/DIIS
   @DF-RHF iter   4: -2478.12713924691843   -1.62944e-02   8.20944e-05 DIIS
   @DF-RHF iter   5: -2478.13223413887954   -5.09489e-03   2.54882e-05 DIIS
   @DF-RHF iter   6: -2478.13272646854875   -4.92330e-04   6.19485e-06 DIIS
   @DF-RHF iter   7: -2478.13280704675026   -8.05782e-05   3.39315e-06 DIIS
   @DF-RHF iter   8: -2478.13283639114297   -2.93444e-05   1.38289e-06 DIIS
   @DF-RHF iter   9: -2478.13284802553426   -1.16344e-05   4.91911e-07 DIIS
   @DF-RHF iter  10: -2478.13284899096379   -9.65430e-07   1.83467e-07 DIIS
   @DF-RHF iter  11: -2478.13284908140940   -9.04456e-08   7.31398e-08 DIIS
   @DF-RHF iter  12: -2478.13284909923959   -1.78302e-08   3.87146e-08 DIIS
   @DF-RHF iter  13: -2478.13284910343191   -4.19232e-09   1.84906e-08 DIIS
   @DF-RHF iter  14: -2478.13284910491757   -1.48566e-09   1.42781e-08 DIIS
   @DF-RHF iter  15: -2478.13284910616858   -1.25101e-09   1.02231e-08 DIIS
   @DF-RHF iter  16: -2478.13284910708080   -9.12223e-10   7.17582e-09 DIIS
  Energy and wave function converged.


  ==> Post-Iterations <==

    Orbital Energies [Eh]
    ---------------------

    Doubly Occupied:                                                      

       1A    -26.152329     2A    -26.130883     3A    -26.130812  
       4A    -26.130751     5A    -11.169415     6A    -11.169407  
       7A    -11.169404     8A    -11.169358     9A    -11.169353  
      10A    -11.169345    11A    -11.169237    12A    -11.169224  
      13A    -11.169223    14A    -11.169180    15A    -11.169175  
      16A    -11.169169    17A    -11.168201    18A    -11.168198  
      19A    -11.168195    20A    -11.168187    21A    -11.168184  
      22A    -11.168179    23A    -11.166892    24A    -11.166891  
      25A    -11.166888    26A    -11.166885    27A    -11.166884  
      28A    -11.166879    29A    -11.166426    30A    -11.166131  
      31A    -11.166033    32A    -11.164086    33A    -11.163912  
      34A    -11.163608    35A    -11.162262    36A    -11.162246  
      37A    -11.162243    38A    -11.162135    39A    -11.162128  
      40A    -11.162110    41A    -11.162048    42A    -11.162038  
      43A    -11.162032    44A    -11.161082    45A    -11.161065  
      46A    -11.161056    47A    -11.160943    48A    -11.160923  
      49A    -11.160921    50A    -11.160827    51A    -11.160827  
      52A    -11.160803    53A    -11.158082    54A    -11.158059  
      55A    -11.158051    56A    -11.157608    57A    -11.157548  
      58A    -11.157475    59A     -7.621529    60A     -1.628936  
      61A     -1.458512    62A     -1.415435    63A     -1.415302  
      64A     -1.143239    65A     -1.128149    66A     -1.128143  
      67A     -1.097814    68A     -1.097809    69A     -1.083279  
      70A     -1.067963    71A     -1.057897    72A     -1.055259  
      73A     -1.055193    74A     -1.024102    75A     -1.024095  
      76A     -0.992531    77A     -0.989986    78A     -0.989976  
      79A     -0.979673    80A     -0.979660    81A     -0.954523  
      82A     -0.954401    83A     -0.948564    84A     -0.929619  
      85A     -0.928872    86A     -0.926716    87A     -0.895264  
      88A     -0.895220    89A     -0.879289    90A     -0.879221  
      91A     -0.829931    92A     -0.805592    93A     -0.805561  
      94A     -0.803688    95A     -0.803610    96A     -0.795566  
      97A     -0.795503    98A     -0.772636    99A     -0.751150  
     100A     -0.748147   101A     -0.748084   102A     -0.728226  
     103A     -0.723828   104A     -0.713470   105A     -0.706822  
     106A     -0.706813   107A     -0.665892   108A     -0.665853  
     109A     -0.654411   110A     -0.646758   111A     -0.646731  
     112A     -0.646703   113A     -0.636341   114A     -0.636315  
     115A     -0.634757   116A     -0.609592   117A     -0.609578  
     118A     -0.596119   119A     -0.596103   120A     -0.584894  
     121A     -0.572831   122A     -0.570986   123A     -0.570949  
     124A     -0.567351   125A     -0.558874   126A     -0.556259  
     127A     -0.556249   128A     -0.550763   129A     -0.550761  
     130A     -0.526746   131A     -0.526739   132A     -0.526230  
     133A     -0.522188   134A     -0.514039   135A     -0.511839  
     136A     -0.510318   137A     -0.510292   138A     -0.501999  
     139A     -0.499320   140A     -0.498807   141A     -0.498779  
     142A     -0.487346   143A     -0.487326   144A     -0.481860  
     145A     -0.481856   146A     -0.479493   147A     -0.479449  
     148A     -0.474490   149A     -0.471115   150A     -0.469470  
     151A     -0.469463   152A     -0.465757   153A     -0.465721  
     154A     -0.458646   155A     -0.458597   156A     -0.447655  
     157A     -0.447643   158A     -0.446400   159A     -0.443844  
     160A     -0.443834   161A     -0.438901   162A     -0.434018  
     163A     -0.434006   164A     -0.412590   165A     -0.408255  
     166A     -0.404595   167A     -0.397630   168A     -0.393823  
     169A     -0.390071   170A     -0.390022   171A     -0.388721  
     172A     -0.362119   173A     -0.362006   174A     -0.355668  
     175A     -0.355565   176A     -0.351617   177A     -0.351613  
     178A     -0.313459   179A     -0.313425   180A     -0.287888  
     181A     -0.287884   182A     -0.281410   183A     -0.260504  
     184A     -0.241853   185A     -0.222860   186A     -0.208349  
     187A     -0.208234   188A     -0.207440   189A     -0.194491  
     190A     -0.194452   191A     -0.114387   192A     -0.114299  

    Virtual:                                                              

     193A      0.096141   194A      0.096209   195A      0.111564  
     196A      0.111572   197A      0.112387   198A      0.113902  
     199A      0.113906   200A      0.120697   201A      0.124707  
     202A      0.135700   203A      0.135702   204A      0.146524  
     205A      0.150478   206A      0.150482   207A      0.156802  
     208A      0.158710   209A      0.158714   210A      0.160756  
     211A      0.160763   212A      0.163367   213A      0.163373  
     214A      0.164421   215A      0.164713   216A      0.164730  
     217A      0.169420   218A      0.170317   219A      0.172236  
     220A      0.173948   221A      0.181369   222A      0.181375  
     223A      0.182916   224A      0.186347   225A      0.189289  
     226A      0.189296   227A      0.192768   228A      0.192780  
     229A      0.194909   230A      0.194915   231A      0.201235  
     232A      0.202550   233A      0.205764   234A      0.206299  
     235A      0.206306   236A      0.210865   237A      0.215122  
     238A      0.217821   239A      0.217825   240A      0.219693  
     241A      0.219707   242A      0.225680   243A      0.225686  
     244A      0.226941   245A      0.226946   246A      0.235239  
     247A      0.240194   248A      0.245453   249A      0.245495  
     250A      0.248399   251A      0.255200   252A      0.255206  
     253A      0.255533   254A      0.258390   255A      0.258416  
     256A      0.263118   257A      0.265215   258A      0.265270  
     259A      0.265293   260A      0.270956   261A      0.270966  
     262A      0.272248   263A      0.272257   264A      0.276166  
     265A      0.277482   266A      0.279188   267A      0.279198  
     268A      0.280200   269A      0.281682   270A      0.281768  
     271A      0.283600   272A      0.283614   273A      0.286570  
     274A      0.286589   275A      0.288130   276A      0.294762  
     277A      0.296433   278A      0.296453   279A      0.297915  
     280A      0.298076   281A      0.298090   282A      0.300938  
     283A      0.300952   284A      0.303871   285A      0.304250  
     286A      0.310055   287A      0.310066   288A      0.312463  
     289A      0.313637   290A      0.313640   291A      0.316965  
     292A      0.323785   293A      0.323809   294A      0.327805  
     295A      0.327826   296A      0.329809   297A      0.329815  
     298A      0.330792   299A      0.338021   300A      0.338052  
     301A      0.340897   302A      0.340949   303A      0.345883  
     304A      0.345893   305A      0.352259   306A      0.352266  
     307A      0.352359   308A      0.359926   309A      0.359941  
     310A      0.360780   311A      0.366462   312A      0.366491  
     313A      0.369113   314A      0.369127   315A      0.370595  
     316A      0.371513   317A      0.371546   318A      0.372163  
     319A      0.376984   320A      0.377001   321A      0.378803  
     322A      0.381908   323A      0.381949   324A      0.383774  
     325A      0.383798   326A      0.384713   327A      0.387004  
     328A      0.388587   329A      0.388589   330A      0.389877  
     331A      0.393918   332A      0.395370   333A      0.397665  
     334A      0.397695   335A      0.398608   336A      0.404596  
     337A      0.404643   338A      0.404740   339A      0.407450  
     340A      0.410127   341A      0.412667   342A      0.413627  
     343A      0.413685   344A      0.416543   345A      0.419462  
     346A      0.419471   347A      0.424989   348A      0.426000  
     349A      0.426041   350A      0.428921   351A      0.428922  
     352A      0.432864   353A      0.433876   354A      0.441974  
     355A      0.442009   356A      0.451249   357A      0.451294  
     358A      0.453706   359A      0.455034   360A      0.455193  
     361A      0.455217   362A      0.461532   363A      0.461613  
     364A      0.462813   365A      0.465312   366A      0.465329  
     367A      0.467926   368A      0.467962   369A      0.470412  
     370A      0.471071   371A      0.472598   372A      0.472693  
     373A      0.473287   374A      0.477814   375A      0.477838  
     376A      0.479736   377A      0.479755   378A      0.480206  
     379A      0.483465   380A      0.483501   381A      0.484232  
     382A      0.486440   383A      0.493259   384A      0.493262  
     385A      0.498165   386A      0.501429   387A      0.501517  
     388A      0.502090   389A      0.502245   390A      0.502257  
     391A      0.508150   392A      0.509080   393A      0.509102  
     394A      0.512327   395A      0.512406   396A      0.512822  
     397A      0.516182   398A      0.517480   399A      0.517748  
     400A      0.517871   401A      0.521220   402A      0.525447  
     403A      0.525492   404A      0.529374   405A      0.530284  
     406A      0.530313   407A      0.534453   408A      0.534464  
     409A      0.534738   410A      0.537825   411A      0.537990  
     412A      0.543511   413A      0.543585   414A      0.544787  
     415A      0.544803   416A      0.547322   417A      0.549349  
     418A      0.553434   419A      0.553472   420A      0.556497  
     421A      0.556557   422A      0.556708   423A      0.559348  
     424A      0.560462   425A      0.560666   426A      0.560690  
     427A      0.567284   428A      0.567360   429A      0.570200  
     430A      0.573510   431A      0.573528   432A      0.578729  
     433A      0.578810   434A      0.582069   435A      0.582355  
     436A      0.582447   437A      0.589886   438A      0.590298  
     439A      0.590338   440A      0.592916   441A      0.596103  
     442A      0.596131   443A      0.599744   444A      0.599775  
     445A      0.608419   446A      0.613414   447A      0.613447  
     448A      0.616970   449A      0.619140   450A      0.619389  
     451A      0.624570   452A      0.625053   453A      0.627605  
     454A      0.627682   455A      0.628631   456A      0.631012  
     457A      0.631079   458A      0.631345   459A      0.631408  
     460A      0.633549   461A      0.635673   462A      0.635688  
     463A      0.637381   464A      0.640759   465A      0.646896  
     466A      0.652070   467A      0.652079   468A      0.654245  
     469A      0.655784   470A      0.656846   471A      0.659359  
     472A      0.659512   473A      0.675066   474A      0.678305  
     475A      0.678425   476A      0.681250   477A      0.684477  
     478A      0.690796   479A      0.691047   480A      0.696770  
     481A      0.696872   482A      0.704690   483A      0.704760  
     484A      0.705479   485A      0.713175   486A      0.713216  
     487A      0.726714   488A      0.726835   489A      0.736279  
     490A      0.739996   491A      0.740012   492A      0.747426  
     493A      0.750698   494A      0.750757   495A      0.757930  
     496A      0.765464   497A      0.765497   498A      0.766883  
     499A      0.781018   500A      0.803179   501A      0.803195  
     502A      0.817971   503A      0.818105   504A      0.820298  
     505A      0.824817   506A      0.829990   507A      0.830058  
     508A      0.830251   509A      0.837883   510A      0.837994  
     511A      0.848753   512A      0.848786   513A      0.865550  
     514A      0.879982   515A      0.884963   516A      0.885259  
     517A      0.885280   518A      0.889038   519A      0.894149  
     520A      0.894263   521A      0.901257   522A      0.905298  
     523A      0.906332   524A      0.906506   525A      0.908547  
     526A      0.910832   527A      0.910869   528A      0.912042  
     529A      0.914075   530A      0.914136   531A      0.919843  
     532A      0.928172   533A      0.942950   534A      0.942954  
     535A      0.951217   536A      0.952520   537A      0.952572  
     538A      0.954889   539A      0.958431   540A      0.958529  
     541A      0.963836   542A      0.963907   543A      0.972674  
     544A      0.972756   545A      0.980690   546A      0.980721  
     547A      0.983223   548A      0.983287   549A      0.986737  
     550A      0.994813   551A      0.995955   552A      0.997191  
     553A      0.997231   554A      1.000351   555A      1.000391  
     556A      1.000617   557A      1.003233   558A      1.003482  
     559A      1.003511   560A      1.009253   561A      1.016751  
     562A      1.017466   563A      1.017586   564A      1.020108  
     565A      1.024968   566A      1.025056   567A      1.029884  
     568A      1.029992   569A      1.033853   570A      1.034053  
     571A      1.038739   572A      1.040046   573A      1.040077  
     574A      1.045608   575A      1.051841   576A      1.056054  
     577A      1.056061   578A      1.056197   579A      1.059206  
     580A      1.059484   581A      1.067079   582A      1.067413  
     583A      1.079651   584A      1.079685   585A      1.084906  
     586A      1.085024   587A      1.085780   588A      1.086689  
     589A      1.097428   590A      1.097457   591A      1.098244  
     592A      1.103758   593A      1.103793   594A      1.105145  
     595A      1.116737   596A      1.116788   597A      1.123685  
     598A      1.124777   599A      1.126945   600A      1.126997  
     601A      1.129014   602A      1.129063   603A      1.132216  
     604A      1.133065   605A      1.133094   606A      1.139325  
     607A      1.139361   608A      1.139548   609A      1.142219  
     610A      1.142269   611A      1.143664   612A      1.144534  
     613A      1.149445   614A      1.149709   615A      1.158015  
     616A      1.158162   617A      1.158986   618A      1.166920  
     619A      1.166977   620A      1.170467   621A      1.171329  
     622A      1.171603   623A      1.175366   624A      1.175559  
     625A      1.185587   626A      1.185625   627A      1.189266  
     628A      1.189269   629A      1.190994   630A      1.191021  
     631A      1.198561   632A      1.203812   633A      1.203923  
     634A      1.204593   635A      1.204631   636A      1.210267  
     637A      1.210304   638A      1.212692   639A      1.216924  
     640A      1.225048   641A      1.225148   642A      1.226971  
     643A      1.233137   644A      1.235499   645A      1.241380  
     646A      1.241554   647A      1.242546   648A      1.248042  
     649A      1.248199   650A      1.250690   651A      1.250748  
     652A      1.251128   653A      1.252700   654A      1.267511  
     655A      1.269557   656A      1.270410   657A      1.270550  
     658A      1.274207   659A      1.274325   660A      1.288260  
     661A      1.290908   662A      1.291064   663A      1.291431  
     664A      1.291440   665A      1.308355   666A      1.308394  
     667A      1.308832   668A      1.310452   669A      1.313353  
     670A      1.313376   671A      1.323961   672A      1.323978  
     673A      1.326723   674A      1.336382   675A      1.336479  
     676A      1.344374   677A      1.344546   678A      1.348309  
     679A      1.348355   680A      1.354577   681A      1.354649  
     682A      1.360131   683A      1.360223   684A      1.361280  
     685A      1.362712   686A      1.362762   687A      1.383142  
     688A      1.386065   689A      1.387246   690A      1.394667  
     691A      1.396123   692A      1.398880   693A      1.398903  
     694A      1.402762   695A      1.402835   696A      1.411455  
     697A      1.411475   698A      1.412029   699A      1.414108  
     700A      1.414128   701A      1.422047   702A      1.422130  
     703A      1.425709   704A      1.428420   705A      1.432601  
     706A      1.432687   707A      1.435609   708A      1.444285  
     709A      1.444301   710A      1.447221   711A      1.448506  
     712A      1.448533   713A      1.460250   714A      1.460300  
     715A      1.464716   716A      1.469742   717A      1.469842  
     718A      1.474254   719A      1.481335   720A      1.481361  
     721A      1.492704   722A      1.492712   723A      1.493785  
     724A      1.502037   725A      1.504607   726A      1.504689  
     727A      1.507982   728A      1.508086   729A      1.508403  
     730A      1.520784   731A      1.520899   732A      1.523932  
     733A      1.525184   734A      1.525255   735A      1.530868  
     736A      1.530922   737A      1.532159   738A      1.538582  
     739A      1.538637   740A      1.539582   741A      1.554236  
     742A      1.554324   743A      1.560486   744A      1.560571  
     745A      1.580641   746A      1.580737   747A      1.591945  
     748A      1.604708   749A      1.607734   750A      1.607897  
     751A      1.623122   752A      1.643431   753A      1.643571  
     754A      1.643621   755A      1.675974   756A      1.678075  
     757A      1.680961   758A      1.681228   759A      1.691469  
     760A      1.692094   761A      1.705942   762A      1.713174  
     763A      1.713651   764A      1.720212   765A      1.720340  
     766A      1.725266   767A      1.730039   768A      1.730188  
     769A      1.736353   770A      1.736534   771A      1.742997  
     772A      1.743347   773A      1.748208   774A      1.748280  
     775A      1.749866   776A      1.754444   777A      1.757156  
     778A      1.757635   779A      1.757713   780A      1.765721  
     781A      1.765862   782A      1.766951   783A      1.773469  
     784A      1.774332   785A      1.774432   786A      1.774903  
     787A      1.774961   788A      1.785881   789A      1.788952  
     790A      1.795289   791A      1.795316   792A      1.799837  
     793A      1.799944   794A      1.809074   795A      1.809337  
     796A      1.824758   797A      1.829229   798A      1.838217  
     799A      1.838355   800A      1.840813   801A      1.844883  
     802A      1.846723   803A      1.850011   804A      1.850119  
     805A      1.866816   806A      1.866906   807A      1.874545  
     808A      1.885998   809A      1.886076   810A      1.900159  
     811A      1.900177   812A      1.909408   813A      1.914970  
     814A      1.915237   815A      1.923968   816A      1.923985  
     817A      1.932876   818A      1.935946   819A      1.938829  
     820A      1.941944   821A      1.946440   822A      1.946464  
     823A      1.950597   824A      1.956571   825A      1.956603  
     826A      1.959385   827A      1.968657   828A      1.968733  
     829A      1.983521   830A      1.983703   831A      1.991690  
     832A      1.991974   833A      1.993037   834A      1.998989  
     835A      1.999190   836A      2.005770   837A      2.006001  
     838A      2.008679   839A      2.008831   840A      2.010028  
     841A      2.011159   842A      2.015261   843A      2.015451  
     844A      2.024124   845A      2.026319   846A      2.027704  
     847A      2.027844   848A      2.028192   849A      2.028248  
     850A      2.037113   851A      2.041186   852A      2.041295  
     853A      2.048544   854A      2.057064   855A      2.057080  
     856A      2.064258   857A      2.077000   858A      2.077173  
     859A      2.084489   860A      2.086605   861A      2.086778  
     862A      2.087379   863A      2.098494   864A      2.098512  
     865A      2.107058   866A      2.109462   867A      2.110579  
     868A      2.111007   869A      2.120982   870A      2.122772  
     871A      2.122903   872A      2.123494   873A      2.134473  
     874A      2.134615   875A      2.136957   876A      2.138766  
     877A      2.139121   878A      2.140182   879A      2.146368  
     880A      2.146487   881A      2.157207   882A      2.157386  
     883A      2.163633   884A      2.169293   885A      2.169629  
     886A      2.173847   887A      2.173882   888A      2.174499  
     889A      2.179267   890A      2.182076   891A      2.184898  
     892A      2.185117   893A      2.186995   894A      2.190000  
     895A      2.191260   896A      2.191733   897A      2.191826  
     898A      2.193449   899A      2.201024   900A      2.201077  
     901A      2.207495   902A      2.207530   903A      2.216382  
     904A      2.216564   905A      2.217012   906A      2.217315  
     907A      2.218952   908A      2.224223   909A      2.224302  
     910A      2.224398   911A      2.225083   912A      2.230332  
     913A      2.230412   914A      2.243445   915A      2.243558  
     916A      2.246327   917A      2.246432   918A      2.252962  
     919A      2.265447   920A      2.265705   921A      2.265872  
     922A      2.270631   923A      2.270749   924A      2.273945  
     925A      2.275179   926A      2.275427   927A      2.278764  
     928A      2.285312   929A      2.294811   930A      2.295116  
     931A      2.308566   932A      2.308670   933A      2.311015  
     934A      2.311159   935A      2.319486   936A      2.321694  
     937A      2.325929   938A      2.326250   939A      2.328120  
     940A      2.328565   941A      2.333726   942A      2.333864  
     943A      2.333923   944A      2.339804   945A      2.339896  
     946A      2.350817   947A      2.350850   948A      2.358228  
     949A      2.358308   950A      2.363066   951A      2.363176  
     952A      2.365563   953A      2.367737   954A      2.379185  
     955A      2.379635   956A      2.388905   957A      2.395567  
     958A      2.399473   959A      2.405474   960A      2.406073  
     961A      2.420060   962A      2.421369   963A      2.431956  
     964A      2.432431   965A      2.440707   966A      2.445269  
     967A      2.445512   968A      2.457210   969A      2.457564  
     970A      2.464123   971A      2.464516   972A      2.470954  
     973A      2.475070   974A      2.502206   975A      2.502239  
     976A      2.502734   977A      2.515451   978A      2.521408  
     979A      2.523842   980A      2.547930   981A      2.548132  
     982A      2.560233   983A      2.574532   984A      2.574617  
     985A      2.578381   986A      2.578491   987A      2.595328  
     988A      2.611718   989A      2.615067   990A      2.628222  
     991A      2.637794   992A      2.637823   993A      2.639340  
     994A      2.639391   995A      2.645116   996A      2.645885  
     997A      2.645994   998A      2.652558   999A      2.660407  
    1000A      2.660755  1001A      2.662947  1002A      2.664056  
    1003A      2.664066  1004A      2.676331  1005A      2.676427  
    1006A      2.678366  1007A      2.678873  1008A      2.697031  
    1009A      2.712899  1010A      2.713241  1011A      2.719148  
    1012A      2.723255  1013A      2.723758  1014A      2.729656  
    1015A      2.729822  1016A      2.735052  1017A      2.735405  
    1018A      2.746858  1019A      2.767232  1020A      2.768020  
    1021A      2.772354  1022A      2.783509  1023A      2.784328  
    1024A      2.787054  1025A      2.793988  1026A      2.794087  
    1027A      2.803253  1028A      2.803296  1029A      2.816897  
    1030A      2.817161  1031A      2.821390  1032A      2.824045  
    1033A      2.824339  1034A      2.857432  1035A      2.858006  
    1036A      2.869730  1037A      2.878350  1038A      2.878425  
    1039A      2.917507  1040A      2.919792  1041A      2.921264  
    1042A      2.941803  1043A      2.951732  1044A      2.953321  
    1045A      2.962554  1046A      2.962731  1047A      2.973360  
    1048A      2.973555  1049A      3.005475  1050A      3.005487  
    1051A      3.018158  1052A      3.033355  1053A      3.033398  
    1054A      3.051243  1055A      3.054929  1056A      3.055091  
    1057A      3.091694  1058A      3.091748  1059A      3.098584  
    1060A      3.138917  1061A      3.154183  1062A      3.154207  
    1063A      3.163256  1064A      3.163415  1065A      3.178578  
    1066A      3.197085  1067A      3.197317  1068A      3.218860  
    1069A      3.218922  1070A      3.227655  1071A      3.234797  
    1072A      3.234813  1073A      3.237503  1074A      3.237556  
    1075A      3.240772  1076A      3.248168  1077A      3.248642  
    1078A      3.253983  1079A      3.257580  1080A      3.257922  
    1081A      3.264208  1082A      3.264550  1083A      3.278312  
    1084A      3.297123  1085A      3.305784  1086A      3.320837  
    1087A      3.360360  1088A      3.371167  1089A      3.371818  
    1090A      3.395549  1091A      3.396296  1092A      3.400677  
    1093A      3.506313  1094A      3.506529  1095A      3.579442  
    1096A      3.581313  1097A      3.660632  1098A      3.685795  
    1099A      3.686670  1100A      3.704105  1101A      3.719492  
    1102A      3.721031  1103A      3.743054  1104A      3.749703  
    1105A      3.849442  1106A      3.870255  1107A      3.888049  
    1108A      3.888544  1109A      3.932470  1110A      3.961453  
    1111A      3.961506  1112A      4.005847  1113A      4.005860  
    1114A      4.071334  1115A      4.099617  1116A      4.118778  
    1117A      4.137750  1118A      4.144550  1119A      4.148517  
    1120A      4.183075  1121A      4.183177  1122A      4.201317  
    1123A      4.201524  1124A      4.273648  1125A      4.310963  
    1126A      4.311596  1127A      4.331179  1128A      4.461857  
    1129A      4.565822  1130A      4.583097  1131A      4.585804  
    1132A      4.616575  1133A      4.616777  1134A      4.650680  
    1135A      4.651279  1136A      4.720984  1137A      4.750972  
    1138A      4.752005  

    Final Occupation by Irrep:
              A 
    DOCC [   192 ]
    NA   [   192 ]
    NB   [   192 ]

  @DF-RHF Final Energy: -2478.13284910708080

   => Energetics <=

    Nuclear Repulsion Energy =           8162.9817464544921677
    One-Electron Energy =              -19683.6878009396314155
    Two-Electron Energy =                9042.5732053780593560
    Total Energy =                      -2478.1328491070798918

Computation Completed


Properties will be evaluated at   0.000000,   0.000000,   0.000000 [a0]

Properties computed using the SCF density matrix


 Multipole Moments:

 ------------------------------------------------------------------------------------
     Multipole            Electronic (a.u.)      Nuclear  (a.u.)        Total (a.u.)
 ------------------------------------------------------------------------------------

 L = 1.  Multiply by 2.5417464519 to convert [e a0] to [Debye]
 Dipole X            :         -0.0000302            0.0000481            0.0000179
 Dipole Y            :          0.0002636           -0.0001453            0.0001183
 Dipole Z            :        -12.6622020           14.7129560            2.0507540
 Magnitude           :                                                    2.0507540

 ------------------------------------------------------------------------------------

*** tstop() called on d-6-1-4 at Sat Jan 20 22:16:26 2024
Module time:
	user time   =    3676.27 seconds =      61.27 minutes
	system time =      63.63 seconds =       1.06 minutes
	total time  =        376 seconds =       6.27 minutes
Total time:
	user time   =    3676.27 seconds =      61.27 minutes
	system time =      63.63 seconds =       1.06 minutes
	total time  =        376 seconds =       6.27 minutes

  //>>>>>>>>>>>>>>>>>>>>>>>>>>>>>>>>>>>//
  //            Monomer A HF           //
  //<<<<<<<<<<<<<<<<<<<<<<<<<<<<<<<<<<<//

   => Libint2 <=

    Primary   basis highest AM E, G, H:  7, 7, 4
    Auxiliary basis highest AM E, G, H:  7, 7, 5
    Onebody   basis highest AM E, G, H:  7, 7, 5
    Solid Harmonics ordering:            gaussian

*** tstart() called on d-6-1-4
*** at Sat Jan 20 22:16:26 2024

   => Loading Basis Set <=

    Name: JUN-CC-PVDZ
    Role: ORBITAL
    Keyword: BASIS
    atoms 1     entry B          line   130 file /home/gridsan/tfroembgen/.conda/envs/psi4test/share/psi4/basis/jun-cc-pvdz.gbs 
    atoms 2-5   entry F          line   266 file /home/gridsan/tfroembgen/.conda/envs/psi4test/share/psi4/basis/jun-cc-pvdz.gbs 
    atoms 6-59  entry C          line   164 file /home/gridsan/tfroembgen/.conda/envs/psi4test/share/psi4/basis/jun-cc-pvdz.gbs 
    atoms 60-77 entry H          line    36 file /home/gridsan/tfroembgen/.conda/envs/psi4test/share/psi4/basis/jun-cc-pvdz.gbs 


         ---------------------------------------------------------
                                   SCF
               by Justin Turney, Rob Parrish, Andy Simmonett
                          and Daniel G. A. Smith
                              RHF Reference
                       12 Threads,  30517 MiB Core
         ---------------------------------------------------------

  ==> Geometry <==

    Molecular point group: c1
    Full point group: C1

    Geometry (in Angstrom), charge = -1, multiplicity = 1:

       Center              X                  Y                   Z               Mass       
    ------------   -----------------  -----------------  -----------------  -----------------
         B           -0.000198161052     0.000273808717    -2.122716585900    11.009305360000
         F           -0.000000401852    -0.000000464183    -0.709931585900    18.998403162730
         F            1.147859598148     0.675780735817    -2.593857585900    18.998403162730
         F            0.011917658148    -1.332011464183    -2.593655585900    18.998403162730
         F           -1.159666401852     0.656073035817    -2.593576585900    18.998403162730
      Gh(C)           1.225311973413     0.707538196736     0.283387041383    12.000000000000
      Gh(C)           1.225323934041    -0.707538986754     0.271056231813    12.000000000000
      Gh(C)          -0.000006075942     1.414965821907     0.270522608292    12.000000000000
      Gh(C)           2.456448831939     1.418327794995     0.286273898783    12.000000000000
      Gh(C)           0.000010905269    -1.414976590818     0.280722165617    12.000000000000
      Gh(C)          -1.225300870919     0.707545281801     0.285638561706    12.000000000000
      Gh(C)           2.456437833310    -1.418323396064     0.268811074956    12.000000000000
      Gh(C)          -0.000001254988     2.836800939098     0.268119058158    12.000000000000
      Gh(C)           3.681826775460     0.709317863818     0.269159864754    12.000000000000
      Gh(C)           2.455120126855     2.834223569306     0.269057307793    12.000000000000
      Gh(C)           3.681821183209    -0.709333931612     0.285232348772    12.000000000000
      Gh(C)          -1.225313520698    -0.707527607727     0.272128993240    12.000000000000
      Gh(C)           1.226699659192     3.543469391811     0.285416380703    12.000000000000
      Gh(C)           0.000004862847    -2.836782231419     0.285570333238    12.000000000000
      Gh(C)          -2.456435954859     1.418316826102     0.285673957552    12.000000000000
      Gh(C)           2.455123495769    -2.834230120772     0.285080440405    12.000000000000
      Gh(C)          -1.226714286599     3.543468971567     0.285519713923    12.000000000000
      Gh(C)           4.914517373191     1.427172780306     0.275640547784    12.000000000000
      Gh(C)           3.693150269466     3.542795200362     0.275690347420    12.000000000000
      Gh(C)          -2.456437522078    -1.418313373022     0.268786036832    12.000000000000
      Gh(C)           1.226704919933    -3.543474334090     0.269446249953    12.000000000000
      Gh(C)          -2.455125320518     2.834216570451     0.269063684140    12.000000000000
      Gh(C)           4.914524458772    -1.427187002127     0.278613290518    12.000000000000
      Gh(C)           1.221424691688     4.970133973077     0.278751724778    12.000000000000
      Gh(C)           4.893008307311     2.825187907843     0.276857216142    12.000000000000
      Gh(C)          -1.226696930499    -3.543471089260     0.269713454363    12.000000000000
      Gh(C)          -3.681818898536     0.709324874549     0.269172545234    12.000000000000
      Gh(C)           3.693147179140    -3.542801433574     0.278731181079    12.000000000000
      Gh(C)          -1.221432174004     4.970128205680     0.278935220151    12.000000000000
      Gh(C)           6.134771050916     0.680547854922     0.276410322333    12.000000000000
      Gh(C)           3.656788958600     4.972953151384     0.276598985202    12.000000000000
      Gh(C)          -2.455126829744    -2.834215185244     0.284836082607    12.000000000000
      Gh(C)          -3.681819101071    -0.709325795652     0.285349970351    12.000000000000
      Gh(C)           4.893012695903    -2.825200197815     0.277468368038    12.000000000000
      Gh(C)          -0.000000995123     5.650447273849     0.277703911444    12.000000000000
      Gh(C)           6.134775190322    -0.680554946258     0.277675642849    12.000000000000
      Gh(C)           2.478131560845     5.653576659148     0.277887764852    12.000000000000
      Gh(C)           1.221422482727    -4.970127147116     0.275952227755    12.000000000000
      Gh(C)          -3.693162305975     3.542796862009     0.275855854879    12.000000000000
      Gh(C)          -1.221428442955    -4.970118395779     0.275839465923    12.000000000000
      Gh(C)          -4.914521729952     1.427175354812     0.275717492791    12.000000000000
      Gh(C)           3.656787097669    -4.972955318422     0.278049485737    12.000000000000
      Gh(C)          -2.478138452116     5.653574330345     0.278172289861    12.000000000000
      Gh(C)          -3.693141660574    -3.542790311162     0.278615054923    12.000000000000
      Gh(C)          -4.914512405063    -1.427181092211     0.278647987692    12.000000000000
      Gh(C)          -0.000005930936    -5.650438379197     0.277308407322    12.000000000000
      Gh(C)          -4.893020406111     2.825188506736     0.276847134282    12.000000000000
      Gh(C)           2.478126071288    -5.653573636072     0.276958884944    12.000000000000
      Gh(C)          -3.656798632268     4.972956089858     0.276775665577    12.000000000000
      Gh(C)          -4.892999400866    -2.825191859243     0.277314332340    12.000000000000
      Gh(C)          -2.478128420093    -5.653566262190     0.276683697297    12.000000000000
      Gh(C)          -6.134770425341     0.680548674073     0.276384770631    12.000000000000
      Gh(C)          -3.656788755199    -4.972944115154     0.277835197920    12.000000000000
      Gh(C)          -6.134764964923    -0.680554007665     0.277655167054    12.000000000000
      Gh(H)           5.835288573806     3.369275802771     0.281216541805     1.007825032230
      Gh(H)           7.073859250737     1.228217156716     0.276871965727     1.007825032230
      Gh(H)           4.600663342164     5.512380710270     0.277104185954     1.007825032230
      Gh(H)           5.835283465295    -3.369306148912     0.273013900723     1.007825032230
      Gh(H)          -0.000012073316     6.738530581953     0.273354666436     1.007825032230
      Gh(H)           7.073861249820    -1.228227034927     0.277166904755     1.007825032230
      Gh(H)           2.473313809789     6.740684199211     0.277421043922     1.007825032230
      Gh(H)           4.600668569371    -5.512376221359     0.277639488568     1.007825032230
      Gh(H)          -2.473318602548     6.740681627423     0.277722390547     1.007825032230
      Gh(H)          -0.000010190238    -6.738528268635     0.281838092307     1.007825032230
      Gh(H)          -5.835301836354     3.369270858113     0.281352563953     1.007825032230
      Gh(H)           2.473308001821    -6.740685466612     0.277529215369     1.007825032230
      Gh(H)          -4.600674763218     5.512377934420     0.277269514278     1.007825032230
      Gh(H)          -5.835279428845    -3.369289055963     0.272734594842     1.007825032230
      Gh(H)          -2.473300269450    -6.740679170323     0.277079898825     1.007825032230
      Gh(H)          -7.073857688778     1.228220380657     0.276787974246     1.007825032230
      Gh(H)          -4.600673708095    -5.512362761970     0.277467180545     1.007825032230
      Gh(H)          -7.073856856419    -1.228220724160     0.277072048289     1.007825032230

  Running in c1 symmetry.

  Rotational constants: A =      0.00207  B =      0.00207  C =      0.00110 [cm^-1]
  Rotational constants: A =     62.04564  B =     62.03674  C =     33.02251 [MHz]
  Nuclear repulsion =  178.879455044809106

  Charge       = -1
  Multiplicity = 1
  Electrons    = 42
  Nalpha       = 21
  Nbeta        = 21

  ==> Algorithm <==

  SCF Algorithm Type is DF.
  DIIS enabled.
  MOM disabled.
  Fractional occupation disabled.
  Guess Type is SAD.
  Energy threshold   = 1.00e-08
  Density threshold  = 1.00e-08
  Integral threshold = 1.00e-12

  ==> Primary Basis <==

  Basis Set: JUN-CC-PVDZ
    Blend: JUN-CC-PVDZ
    Number of shells: 526
    Number of basis functions: 1152
    Number of Cartesian functions: 1211
    Spherical Harmonics?: true
    Max angular momentum: 2

   => Loading Basis Set <=

    Name: (JUN-CC-PVDZ AUX)
    Role: JKFIT
    Keyword: DF_BASIS_SCF
    atoms 1     entry B          line    90 file /home/gridsan/tfroembgen/.conda/envs/psi4test/share/psi4/basis/jun-cc-pvdz-jkfit.gbs 
    atoms 2-5   entry F          line   314 file /home/gridsan/tfroembgen/.conda/envs/psi4test/share/psi4/basis/jun-cc-pvdz-jkfit.gbs 
    atoms 6-59  entry C          line   146 file /home/gridsan/tfroembgen/.conda/envs/psi4test/share/psi4/basis/jun-cc-pvdz-jkfit.gbs 
    atoms 60-77 entry H          line    70 file /home/gridsan/tfroembgen/.conda/envs/psi4test/share/psi4/basis/jun-cc-pvdz-jkfit.gbs 

  ==> Integral Setup <==

  ==> DiskDFJK: Density-Fitted J/K Matrices <==

    J tasked:                  Yes
    K tasked:                  Yes
    wK tasked:                  No
    OpenMP threads:             12
    Integrals threads:          12
    Memory [MiB]:            22888
    Algorithm:                Core
    Integral Cache:           LOAD
    Schwarz Cutoff:          1E-12
    Fitting Condition:       1E-10

   => Auxiliary Basis Set <=

  Basis Set: (JUN-CC-PVDZ AUX)
    Blend: JUN-CC-PVDZ-JKFIT
    Number of shells: 1755
    Number of basis functions: 5075
    Number of Cartesian functions: 5819
    Spherical Harmonics?: true
    Max angular momentum: 3

  Minimum eigenvalue in the overlap matrix is 5.9755601088E-10.
  Reciprocal condition number of the overlap matrix is 2.3963262328E-11.
    Using canonical orthogonalization.
  Overall, 14 of 1152 possible MOs eliminated.


  ==> Pre-Iterations <==

  SCF Guess: Superposition of Atomic Densities via on-the-fly atomic UHF (no occupation information).

   -------------------------
    Irrep   Nso     Nmo    
   -------------------------
     A       1152    1138 
   -------------------------
    Total    1152    1138
   -------------------------

  ==> Iterations <==

                           Total Energy        Delta E     RMS |[F,P]|

   @DF-RHF iter SAD:  -421.23047634454809   -4.21230e+02   0.00000e+00 
   @DF-RHF iter   1:  -422.65682652278576   -1.42635e+00   5.31012e-04 ADIIS/DIIS
   @DF-RHF iter   2:  -422.73963918622445   -8.28127e-02   3.24137e-04 ADIIS/DIIS
   @DF-RHF iter   3:  -422.77777085898651   -3.81317e-02   1.76112e-05 DIIS
   @DF-RHF iter   4:  -422.77813372248784   -3.62864e-04   2.91113e-06 DIIS
   @DF-RHF iter   5:  -422.77814274537423   -9.02289e-06   8.17907e-07 DIIS
   @DF-RHF iter   6:  -422.77814345893040   -7.13556e-07   2.26975e-07 DIIS
   @DF-RHF iter   7:  -422.77814349408970   -3.51593e-08   8.36668e-08 DIIS
   @DF-RHF iter   8:  -422.77814349756267   -3.47296e-09   7.75510e-09 DIIS
  Energy and wave function converged.


  ==> Post-Iterations <==

    Orbital Energies [Eh]
    ---------------------

    Doubly Occupied:                                                      

       1A    -26.069933     2A    -26.066504     3A    -26.066412  
       4A    -26.066328     5A     -7.536216     6A     -1.409378  
       7A     -1.350149     8A     -1.349989     9A     -1.349637  
      10A     -0.600717    11A     -0.527098    12A     -0.527034  
      13A     -0.526950    14A     -0.445910    15A     -0.445869  
      16A     -0.407713    17A     -0.407422    18A     -0.407338  
      19A     -0.383940    20A     -0.383909    21A     -0.383851  

    Virtual:                                                              

      22A      0.094778    23A      0.095771    24A      0.095776  
      25A      0.101711    26A      0.101714    27A      0.112733  
      28A      0.113303    29A      0.128515    30A      0.128516  
      31A      0.133364    32A      0.141441    33A      0.141447  
      34A      0.146371    35A      0.146380    36A      0.148010  
      37A      0.152290    38A      0.152297    39A      0.155376  
      40A      0.155387    41A      0.164288    42A      0.164675  
      43A      0.164677    44A      0.167490    45A      0.169130  
      46A      0.174572    47A      0.175749    48A      0.181039  
      49A      0.182880    50A      0.184381    51A      0.186783  
      52A      0.186792    53A      0.192629    54A      0.192634  
      55A      0.193451    56A      0.193474    57A      0.199631  
      58A      0.199667    59A      0.203592    60A      0.205548  
      61A      0.205555    62A      0.207932    63A      0.207942  
      64A      0.211689    65A      0.211694    66A      0.216775  
      67A      0.216777    68A      0.218006    69A      0.221507  
      70A      0.221517    71A      0.223026    72A      0.226158  
      73A      0.226164    74A      0.228066    75A      0.233403  
      76A      0.237328    77A      0.237818    78A      0.237830  
      79A      0.242897    80A      0.242912    81A      0.244650  
      82A      0.244658    83A      0.245597    84A      0.248746  
      85A      0.248753    86A      0.249003    87A      0.255244  
      88A      0.258929    89A      0.261039    90A      0.263653  
      91A      0.264356    92A      0.264369    93A      0.267937  
      94A      0.272625    95A      0.272628    96A      0.275565  
      97A      0.279179    98A      0.284109    99A      0.284120  
     100A      0.285925   101A      0.285933   102A      0.287035  
     103A      0.287038   104A      0.287715   105A      0.287725  
     106A      0.291688   107A      0.291692   108A      0.294652  
     109A      0.297317   110A      0.304191   111A      0.304203  
     112A      0.305203   113A      0.309174   114A      0.309186  
     115A      0.314785   116A      0.317500   117A      0.317855  
     118A      0.317891   119A      0.320295   120A      0.322624  
     121A      0.322635   122A      0.325319   123A      0.329948  
     124A      0.329957   125A      0.332983   126A      0.332990  
     127A      0.334154   128A      0.334162   129A      0.337646  
     130A      0.344647   131A      0.344668   132A      0.347766  
     133A      0.347779   134A      0.350711   135A      0.352404  
     136A      0.352710   137A      0.352746   138A      0.356793  
     139A      0.358508   140A      0.358527   141A      0.360808  
     142A      0.361811   143A      0.361817   144A      0.365246  
     145A      0.365254   146A      0.370851   147A      0.378445  
     148A      0.382690   149A      0.384937   150A      0.391386  
     151A      0.391405   152A      0.395210   153A      0.395253  
     154A      0.396046   155A      0.398220   156A      0.398272  
     157A      0.400362   158A      0.407321   159A      0.407323  
     160A      0.407656   161A      0.414843   162A      0.414851  
     163A      0.417357   164A      0.417845   165A      0.417884  
     166A      0.418180   167A      0.421582   168A      0.427175  
     169A      0.436381   170A      0.436396   171A      0.437827  
     172A      0.438103   173A      0.442375   174A      0.446334  
     175A      0.447584   176A      0.449184   177A      0.449223  
     178A      0.451290   179A      0.451365   180A      0.451770  
     181A      0.451947   182A      0.451960   183A      0.454371  
     184A      0.454507   185A      0.457119   186A      0.468219  
     187A      0.468243   188A      0.468409   189A      0.471202  
     190A      0.471248   191A      0.473504   192A      0.473635  
     193A      0.474360   194A      0.479020   195A      0.479053  
     196A      0.486385   197A      0.486432   198A      0.494235  
     199A      0.494290   200A      0.495631   201A      0.497261  
     202A      0.497300   203A      0.506142   204A      0.508638  
     205A      0.513491   206A      0.513563   207A      0.513959  
     208A      0.517061   209A      0.517119   210A      0.518710  
     211A      0.522863   212A      0.522931   213A      0.524660  
     214A      0.524918   215A      0.524938   216A      0.524951  
     217A      0.530543   218A      0.530596   219A      0.531725  
     220A      0.531755   221A      0.533954   222A      0.535834  
     223A      0.538280   224A      0.538377   225A      0.539374  
     226A      0.548905   227A      0.551607   228A      0.551745  
     229A      0.556389   230A      0.558044   231A      0.558171  
     232A      0.564172   233A      0.564280   234A      0.569479  
     235A      0.569492   236A      0.570620   237A      0.571024  
     238A      0.571100   239A      0.571123   240A      0.574459  
     241A      0.574647   242A      0.574708   243A      0.583239  
     244A      0.586630   245A      0.586680   246A      0.593573  
     247A      0.593637   248A      0.594305   249A      0.604012  
     250A      0.604051   251A      0.606596   252A      0.609347  
     253A      0.609393   254A      0.609719   255A      0.611751  
     256A      0.611769   257A      0.613203   258A      0.616065  
     259A      0.617401   260A      0.617518   261A      0.618000  
     262A      0.626760   263A      0.632142   264A      0.632187  
     265A      0.638168   266A      0.638946   267A      0.643663  
     268A      0.643697   269A      0.645194   270A      0.652406  
     271A      0.652441   272A      0.652776   273A      0.652800  
     274A      0.655167   275A      0.655206   276A      0.657640  
     277A      0.660785   278A      0.662917   279A      0.668052  
     280A      0.668093   281A      0.669421   282A      0.682719  
     283A      0.682742   284A      0.685882   285A      0.685915  
     286A      0.690963   287A      0.691008   288A      0.691051  
     289A      0.697313   290A      0.698393   291A      0.698435  
     292A      0.701412   293A      0.701415   294A      0.703069  
     295A      0.703085   296A      0.708705   297A      0.710006  
     298A      0.717330   299A      0.726991   300A      0.727058  
     301A      0.729622   302A      0.729776   303A      0.732318  
     304A      0.732336   305A      0.737054   306A      0.738056  
     307A      0.738076   308A      0.738156   309A      0.749222  
     310A      0.752605   311A      0.752653   312A      0.754307  
     313A      0.757282   314A      0.760725   315A      0.760754  
     316A      0.762382   317A      0.764799   318A      0.764858  
     319A      0.770302   320A      0.770338   321A      0.772211  
     322A      0.781884   323A      0.781924   324A      0.783563  
     325A      0.788710   326A      0.793500   327A      0.793559  
     328A      0.794181   329A      0.799050   330A      0.799066  
     331A      0.805582   332A      0.805603   333A      0.815481  
     334A      0.815554   335A      0.821630   336A      0.821678  
     337A      0.822083   338A      0.825057   339A      0.825182  
     340A      0.831935   341A      0.835678   342A      0.835968  
     343A      0.843870   344A      0.847132   345A      0.848385  
     346A      0.848415   347A      0.855011   348A      0.858331  
     349A      0.858436   350A      0.866859   351A      0.866972  
     352A      0.870540   353A      0.876772   354A      0.876901  
     355A      0.882612   356A      0.882653   357A      0.885632  
     358A      0.886825   359A      0.886868   360A      0.887725  
     361A      0.888035   362A      0.894260   363A      0.896160  
     364A      0.896306   365A      0.896970   366A      0.902164  
     367A      0.903272   368A      0.903339   369A      0.910927  
     370A      0.915878   371A      0.915923   372A      0.922068  
     373A      0.922123   374A      0.934524   375A      0.934702  
     376A      0.948567   377A      0.955815   378A      0.955872  
     379A      0.965485   380A      0.967883   381A      0.971205  
     382A      0.971281   383A      0.977230   384A      0.981172  
     385A      0.981202   386A      0.993601   387A      0.993631  
     388A      0.994761   389A      1.000563   390A      1.000641  
     391A      1.011560   392A      1.012924   393A      1.013011  
     394A      1.029521   395A      1.029631   396A      1.030034  
     397A      1.050681   398A      1.050704   399A      1.062315  
     400A      1.063938   401A      1.063957   402A      1.068088  
     403A      1.068111   404A      1.068120   405A      1.071464  
     406A      1.075354   407A      1.077475   408A      1.077477  
     409A      1.114162   410A      1.115329   411A      1.148534  
     412A      1.148599   413A      1.150581   414A      1.150588  
     415A      1.158018   416A      1.163189   417A      1.163385  
     418A      1.163434   419A      1.177248   420A      1.177261  
     421A      1.179217   422A      1.179248   423A      1.189303  
     424A      1.192819   425A      1.192856   426A      1.201337  
     427A      1.228290   428A      1.252948   429A      1.261970  
     430A      1.262000   431A      1.265942   432A      1.266030  
     433A      1.271382   434A      1.271397   435A      1.299707  
     436A      1.299734   437A      1.324759   438A      1.324941  
     439A      1.324979   440A      1.334351   441A      1.343417  
     442A      1.344208   443A      1.403362   444A      1.406853  
     445A      1.406907   446A      1.409705   447A      1.409740  
     448A      1.416783   449A      1.427592   450A      1.427680  
     451A      1.436852   452A      1.446007   453A      1.456711  
     454A      1.473606   455A      1.473668   456A      1.492599  
     457A      1.492699   458A      1.538688   459A      1.566374  
     460A      1.566534   461A      1.571560   462A      1.571603  
     463A      1.589112   464A      1.589230   465A      1.594078  
     466A      1.600195   467A      1.600622   468A      1.655839  
     469A      1.663379   470A      1.664926   471A      1.665116  
     472A      1.668032   473A      1.685167   474A      1.685640  
     475A      1.705727   476A      1.706625   477A      1.718282  
     478A      1.735330   479A      1.754067   480A      1.754650  
     481A      1.761902   482A      1.768761   483A      1.774707  
     484A      1.774888   485A      1.786022   486A      1.796687  
     487A      1.797616   488A      1.817125   489A      1.821265  
     490A      1.821833   491A      1.842466   492A      1.843009  
     493A      1.843570   494A      1.847161   495A      1.849479  
     496A      1.852374   497A      1.853811   498A      1.854363  
     499A      1.869238   500A      1.877301   501A      1.877354  
     502A      1.879057   503A      1.889352   504A      1.889471  
     505A      1.898349   506A      1.899436   507A      1.900693  
     508A      1.919734   509A      1.920788   510A      1.926155  
     511A      1.928410   512A      1.928849   513A      1.930685  
     514A      1.930893   515A      1.931296   516A      1.939849  
     517A      1.940336   518A      1.940825   519A      1.940969  
     520A      1.948215   521A      1.948292   522A      1.960210  
     523A      1.961196   524A      1.972997   525A      1.976653  
     526A      1.983320   527A      1.987423   528A      1.987953  
     529A      1.988730   530A      1.988947   531A      1.995975  
     532A      2.003251   533A      2.003489   534A      2.012433  
     535A      2.012659   536A      2.015359   537A      2.019997  
     538A      2.021191   539A      2.026880   540A      2.027177  
     541A      2.028196   542A      2.034554   543A      2.034909  
     544A      2.041518   545A      2.043355   546A      2.052055  
     547A      2.052120   548A      2.060495   549A      2.060638  
     550A      2.067740   551A      2.073763   552A      2.075085  
     553A      2.075638   554A      2.075990   555A      2.076217  
     556A      2.084907   557A      2.087183   558A      2.087206  
     559A      2.094765   560A      2.095048   561A      2.097112  
     562A      2.097374   563A      2.097476   564A      2.102772  
     565A      2.106089   566A      2.123061   567A      2.123305  
     568A      2.128910   569A      2.128954   570A      2.139590  
     571A      2.151528   572A      2.157217   573A      2.157271  
     574A      2.170129   575A      2.170281   576A      2.176033  
     577A      2.177977   578A      2.181777   579A      2.181852  
     580A      2.186381   581A      2.188972   582A      2.197418  
     583A      2.197661   584A      2.205395   585A      2.205483  
     586A      2.206514   587A      2.210879   588A      2.225375  
     589A      2.228520   590A      2.228543   591A      2.232112  
     592A      2.232148   593A      2.236908   594A      2.237463  
     595A      2.239490   596A      2.239507   597A      2.242098  
     598A      2.242143   599A      2.245722   600A      2.245743  
     601A      2.245906   602A      2.248119   603A      2.251162  
     604A      2.252861   605A      2.253015   606A      2.254793  
     607A      2.254800   608A      2.255388   609A      2.256364  
     610A      2.260123   611A      2.260176   612A      2.263925  
     613A      2.270158   614A      2.270204   615A      2.271361  
     616A      2.271419   617A      2.275467   618A      2.281603  
     619A      2.282973   620A      2.283078   621A      2.288547  
     622A      2.288580   623A      2.290125   624A      2.290284  
     625A      2.294077   626A      2.296675   627A      2.296865  
     628A      2.303086   629A      2.309074   630A      2.312723  
     631A      2.312809   632A      2.329342   633A      2.338810  
     634A      2.341245   635A      2.341300   636A      2.347215  
     637A      2.347300   638A      2.356068   639A      2.356159  
     640A      2.357632   641A      2.360285   642A      2.360680  
     643A      2.369466   644A      2.369493   645A      2.375411  
     646A      2.378281   647A      2.379212   648A      2.379307  
     649A      2.381421   650A      2.388175   651A      2.388204  
     652A      2.388263   653A      2.392843   654A      2.393107  
     655A      2.396628   656A      2.396663   657A      2.399548  
     658A      2.406064   659A      2.406079   660A      2.409808  
     661A      2.409875   662A      2.414973   663A      2.433950  
     664A      2.436084   665A      2.436170   666A      2.438671  
     667A      2.457690   668A      2.459490   669A      2.460981  
     670A      2.461061   671A      2.470123   672A      2.470281  
     673A      2.470896   674A      2.471083   675A      2.472803  
     676A      2.472983   677A      2.473179   678A      2.480342  
     679A      2.480381   680A      2.480840   681A      2.481456  
     682A      2.481470   683A      2.486023   684A      2.489172  
     685A      2.499554   686A      2.499674   687A      2.509389  
     688A      2.512764   689A      2.512865   690A      2.516107  
     691A      2.525314   692A      2.530885   693A      2.530959  
     694A      2.544305   695A      2.544420   696A      2.557599  
     697A      2.557665   698A      2.562065   699A      2.562183  
     700A      2.571375   701A      2.571462   702A      2.572435  
     703A      2.576011   704A      2.576134   705A      2.580706  
     706A      2.581530   707A      2.581567   708A      2.581851  
     709A      2.595024   710A      2.596671   711A      2.603231  
     712A      2.603273   713A      2.612323   714A      2.612851  
     715A      2.612916   716A      2.621115   717A      2.621404  
     718A      2.624144   719A      2.627818   720A      2.641241  
     721A      2.648005   722A      2.648142   723A      2.649647  
     724A      2.658025   725A      2.658118   726A      2.664331  
     727A      2.669082   728A      2.670921   729A      2.670936  
     730A      2.676986   731A      2.677071   732A      2.678378  
     733A      2.679809   734A      2.696054   735A      2.696159  
     736A      2.708696   737A      2.708765   738A      2.714819  
     739A      2.720010   740A      2.720048   741A      2.727802  
     742A      2.727829   743A      2.730549   744A      2.734398  
     745A      2.734455   746A      2.735506   747A      2.751228  
     748A      2.752172   749A      2.752420   750A      2.756457  
     751A      2.756824   752A      2.762339   753A      2.776807  
     754A      2.776848   755A      2.784988   756A      2.785055  
     757A      2.791030   758A      2.791543   759A      2.801537  
     760A      2.802298   761A      2.802776   762A      2.806450  
     763A      2.806829   764A      2.806923   765A      2.821864  
     766A      2.821878   767A      2.829256   768A      2.831680  
     769A      2.831815   770A      2.834476   771A      2.838677  
     772A      2.850079   773A      2.850375   774A      2.854773  
     775A      2.856218   776A      2.862652   777A      2.862713  
[...]
     733A      1.514445   734A      1.514538   735A      1.516513  
     736A      1.516684   737A      1.533961   738A      1.552541  
     739A      1.558330   740A      1.558602   741A      1.586017  
     742A      1.586084   743A      1.598379   744A      1.600323  
     745A      1.600489   746A      1.612920   747A      1.617018  
     748A      1.617142   749A      1.627173   750A      1.627316  
     751A      1.634869   752A      1.635042   753A      1.643778  
     754A      1.644369   755A      1.645966   756A      1.646092  
     757A      1.646459   758A      1.661533   759A      1.661591  
     760A      1.663659   761A      1.667582   762A      1.667733  
     763A      1.667765   764A      1.671582   765A      1.671668  
     766A      1.677789   767A      1.683356   768A      1.683441  
     769A      1.683678   770A      1.695866   771A      1.695914  
     772A      1.697247   773A      1.698085   774A      1.707884  
     775A      1.708084   776A      1.709418   777A      1.709483  
     778A      1.722346   779A      1.722526   780A      1.731949  
     781A      1.739359   782A      1.742459   783A      1.749925  
     784A      1.750284   785A      1.751854   786A      1.760223  
     787A      1.761244   788A      1.767149   789A      1.767206  
     790A      1.780568   791A      1.780598   792A      1.801847  
     793A      1.802056   794A      1.815671   795A      1.817493  
     796A      1.817603   797A      1.819809   798A      1.834293  
     799A      1.839249   800A      1.839425   801A      1.842935  
     802A      1.843671   803A      1.843734   804A      1.847094  
     805A      1.856877   806A      1.858188   807A      1.862169  
     808A      1.862244   809A      1.865695   810A      1.870666  
     811A      1.870708   812A      1.876586   813A      1.876613  
     814A      1.878485   815A      1.885354   816A      1.885417  
     817A      1.895806   818A      1.896037   819A      1.896594  
     820A      1.904729   821A      1.904909   822A      1.913991  
     823A      1.914247   824A      1.915126   825A      1.919047  
     826A      1.919178   827A      1.921387   828A      1.922491  
     829A      1.922590   830A      1.934370   831A      1.936931  
     832A      1.937110   833A      1.941541   834A      1.943814  
     835A      1.946281   836A      1.946306   837A      1.949071  
     838A      1.949152   839A      1.958286   840A      1.969801  
     841A      1.969902   842A      1.991624   843A      1.995980  
     844A      1.996152   845A      1.997402   846A      1.999379  
     847A      1.999449   848A      2.001364   849A      2.001680  
     850A      2.009835   851A      2.018160   852A      2.018370  
     853A      2.020116   854A      2.021456   855A      2.021687  
     856A      2.030113   857A      2.031708   858A      2.041034  
     859A      2.047445   860A      2.047679   861A      2.048300  
     862A      2.053262   863A      2.053440   864A      2.067003  
     865A      2.067157   866A      2.069032   867A      2.070612  
     868A      2.075801   869A      2.075948   870A      2.083772  
     871A      2.083908   872A      2.090188   873A      2.092694  
     874A      2.092979   875A      2.095138   876A      2.097693  
     877A      2.100145   878A      2.100343   879A      2.101329  
     880A      2.101583   881A      2.107437   882A      2.107605  
     883A      2.113303   884A      2.113359   885A      2.114337  
     886A      2.120194   887A      2.120260   888A      2.123652  
     889A      2.123898   890A      2.125195   891A      2.126182  
     892A      2.126255   893A      2.134812   894A      2.138330  
     895A      2.138407   896A      2.139757   897A      2.144092  
     898A      2.144234   899A      2.146671   900A      2.146827  
     901A      2.157717   902A      2.167308   903A      2.167319  
     904A      2.173090   905A      2.173204   906A      2.175654  
     907A      2.181222   908A      2.181412   909A      2.193334  
     910A      2.193477   911A      2.199786   912A      2.199813  
     913A      2.203020   914A      2.217089   915A      2.219951  
     916A      2.223051   917A      2.223118   918A      2.224484  
     919A      2.224630   920A      2.233290   921A      2.240846  
     922A      2.241401   923A      2.244171   924A      2.245409  
     925A      2.245615   926A      2.247490   927A      2.247514  
     928A      2.248680   929A      2.261323   930A      2.261509  
     931A      2.269075   932A      2.269092   933A      2.273136  
     934A      2.273175   935A      2.281307   936A      2.296978  
     937A      2.301535   938A      2.307243   939A      2.318707  
     940A      2.319177   941A      2.332366   942A      2.333463  
     943A      2.344077   944A      2.344453   945A      2.348106  
     946A      2.349103   947A      2.352854   948A      2.353425  
     949A      2.354579   950A      2.366863   951A      2.372314  
     952A      2.372518   953A      2.376384   954A      2.416581  
     955A      2.423296   956A      2.423381   957A      2.424524  
     958A      2.433422   959A      2.433528   960A      2.436667  
     961A      2.446368   962A      2.470542   963A      2.470605  
     964A      2.471345   965A      2.476893   966A      2.489579  
     967A      2.489625   968A      2.504490   969A      2.523964  
     970A      2.524560   971A      2.524909   972A      2.532094  
     973A      2.543327   974A      2.551436   975A      2.551541  
     976A      2.555167   977A      2.556303   978A      2.556319  
     979A      2.573440   980A      2.573453   981A      2.577143  
     982A      2.577561   983A      2.582844   984A      2.586411  
     985A      2.586589   986A      2.592946   987A      2.593952  
     988A      2.610124   989A      2.610876   990A      2.611317  
     991A      2.622658   992A      2.634274   993A      2.634780  
     994A      2.643328   995A      2.643513   996A      2.647858  
     997A      2.648279   998A      2.659169   999A      2.665333  
    1000A      2.665952  1001A      2.675889  1002A      2.684529  
    1003A      2.690367  1004A      2.691243  1005A      2.701441  
    1006A      2.711963  1007A      2.712051  1008A      2.714978  
    1009A      2.715085  1010A      2.725430  1011A      2.725789  
    1012A      2.738672  1013A      2.738956  1014A      2.769051  
    1015A      2.769619  1016A      2.777617  1017A      2.794716  
    1018A      2.794790  1019A      2.827821  1020A      2.829135  
    1021A      2.830384  1022A      2.841600  1023A      2.856711  
    1024A      2.858732  1025A      2.870207  1026A      2.870352  
    1027A      2.890705  1028A      2.890973  1029A      2.916724  
    1030A      2.916817  1031A      2.925096  1032A      2.935305  
    1033A      2.935569  1034A      2.947346  1035A      2.947364  
    1036A      2.963835  1037A      2.989076  1038A      2.989519  
    1039A      3.014015  1040A      3.023957  1041A      3.024022  
    1042A      3.034049  1043A      3.064938  1044A      3.064961  
    1045A      3.077114  1046A      3.082951  1047A      3.083179  
    1048A      3.121973  1049A      3.122231  1050A      3.136761  
    1051A      3.139335  1052A      3.149475  1053A      3.149494  
    1054A      3.152155  1055A      3.152199  1056A      3.159036  
    1057A      3.159878  1058A      3.160064  1059A      3.166380  
    1060A      3.166963  1061A      3.179645  1062A      3.179920  
    1063A      3.191949  1064A      3.211394  1065A      3.222874  
    1066A      3.245902  1067A      3.280812  1068A      3.282696  
    1069A      3.283034  1070A      3.290654  1071A      3.297413  
    1072A      3.297932  1073A      3.422963  1074A      3.423148  
    1075A      3.491360  1076A      3.493028  1077A      3.495019  
    1078A      3.574347  1079A      3.603355  1080A      3.604286  
    1081A      3.609788  1082A      3.634642  1083A      3.635956  
    1084A      3.677267  1085A      3.705049  1086A      3.777579  
    1087A      3.802881  1088A      3.803391  1089A      3.872970  
    1090A      3.873030  1091A      3.916363  1092A      3.916383  
    1093A      3.978452  1094A      4.012522  1095A      4.130611  
    1096A      4.140168  1097A      4.263840  1098A      4.471919  
    1099A      4.472363  1100A      4.653536  1101A      4.900995  
    1102A      5.763881  1103A      5.772353  1104A      5.792395  
    1105A      5.792454  1106A      5.811718  1107A      5.811779  
    1108A      5.887455  1109A      5.889417  1110A      5.889535  
    1111A      6.049192  1112A      6.136614  1113A      6.136916  
    1114A      6.198153  1115A      6.199690  1116A      6.211352  
    1117A      6.366518  1118A      6.366790  1119A      6.376179  
    1120A      6.413664  1121A      6.413904  1122A      7.376083  
    1123A      7.420734  1124A      7.421009  1125A      7.506638  
    1126A      7.507024  1127A      7.576522  1128A      7.728055  
    1129A      7.728328  1130A      7.818942  1131A      8.081274  
    1132A      8.083434  1133A      8.547924  1134A     12.975636  
    1135A     42.967707  1136A     42.967725  1137A     42.984156  
    1138A     42.996449  

    Final Occupation by Irrep:
              A 
    DOCC [   171 ]
    NA   [   171 ]
    NB   [   171 ]

  @DF-RHF Final Energy: -2055.89541418944827

   => Energetics <=

    Nuclear Repulsion Energy =           6452.5568002797772351
    One-Electron Energy =              -15636.5169982957377215
    Two-Electron Energy =                7128.0647838265122118
    Total Energy =                      -2055.8954141894482746

Computation Completed


Properties will be evaluated at   0.000000,   0.000000,   0.000000 [a0]

Properties computed using the SCF density matrix


 Multipole Moments:

 ------------------------------------------------------------------------------------
     Multipole            Electronic (a.u.)      Nuclear  (a.u.)        Total (a.u.)
 ------------------------------------------------------------------------------------

 L = 1.  Multiply by 2.5417464519 to convert [e a0] to [Debye]
 Dipole X            :         -0.0000010            0.0000419            0.0000409
 Dipole Y            :          0.0000720           -0.0000426            0.0000295
 Dipole Z            :       -179.1851013          179.1810647           -0.0040366
 Magnitude           :                                                    0.0040369

 ------------------------------------------------------------------------------------

*** tstop() called on d-6-1-4 at Sat Jan 20 22:22:43 2024
Module time:
	user time   =    2485.43 seconds =      41.42 minutes
	system time =      46.51 seconds =       0.78 minutes
	total time  =        254 seconds =       4.23 minutes
Total time:
	user time   =    7294.24 seconds =     121.57 minutes
	system time =     126.99 seconds =       2.12 minutes
	total time  =        753 seconds =      12.55 minutes
  Constructing Basis Sets for SAPT...

   => Loading Basis Set <=

    Name: (JUN-CC-PVDZ AUX)
    Role: RIFIT
    Keyword: DF_BASIS_SAPT
    atoms 1     entry B          line    56 file /home/gridsan/tfroembgen/.conda/envs/psi4test/share/psi4/basis/jun-cc-pvdz-ri.gbs 
    atoms 2-5   entry F          line   232 file /home/gridsan/tfroembgen/.conda/envs/psi4test/share/psi4/basis/jun-cc-pvdz-ri.gbs 
    atoms 6-59  entry C          line   100 file /home/gridsan/tfroembgen/.conda/envs/psi4test/share/psi4/basis/jun-cc-pvdz-ri.gbs 
    atoms 60-77 entry H          line    30 file /home/gridsan/tfroembgen/.conda/envs/psi4test/share/psi4/basis/jun-cc-pvdz-ri.gbs 

   => Loading Basis Set <=

    Name: (JUN-CC-PVDZ AUX)
    Role: JKFIT
    Keyword: DF_BASIS_ELST
    atoms 1     entry B          line    90 file /home/gridsan/tfroembgen/.conda/envs/psi4test/share/psi4/basis/jun-cc-pvdz-jkfit.gbs 
    atoms 2-5   entry F          line   314 file /home/gridsan/tfroembgen/.conda/envs/psi4test/share/psi4/basis/jun-cc-pvdz-jkfit.gbs 
    atoms 6-59  entry C          line   146 file /home/gridsan/tfroembgen/.conda/envs/psi4test/share/psi4/basis/jun-cc-pvdz-jkfit.gbs 
    atoms 60-77 entry H          line    70 file /home/gridsan/tfroembgen/.conda/envs/psi4test/share/psi4/basis/jun-cc-pvdz-jkfit.gbs 


  //>>>>>>>>>>>>>>>>>>>>>>>>>>>>>>>>>>>//
  //               SSAPT0              //
  //<<<<<<<<<<<<<<<<<<<<<<<<<<<<<<<<<<<//


*** tstart() called on d-6-1-4
*** at Sat Jan 20 22:22:44 2024

        SAPT0  
    Ed Hohenstein
     6 June 2009

      Orbital Information
  --------------------------
    NSO        =      1152
    NMO        =      1138
    NRI        =      4087
    NRI (Elst) =      5075
    NOCC A     =        21
    NOCC B     =       171
    FOCC A     =         5
    FOCC B     =        54
    NVIR A     =      1117
    NVIR B     =       967

    Elst10,r            =    -0.412577987317 [Eh]
    Exch10              =     0.971820564320 [Eh]
    Exch10 (S^2)        =     0.892695195736 [Eh]

    Iter     Energy [mEh]          dE [mEh]         Residual      Time [s]
       1    -205.95340786     205.953407857     136.550988653           340
       2    -225.93420079      19.980792931      49.317979466           457
       3    -247.97835769      22.044156904       9.286643001           539
       4    -247.97556408      -0.002793607       2.605063402           556
       5    -247.56396970      -0.411594387       0.686631309           576
       6    -247.55055933      -0.013410364       0.209031804           595
       7    -247.57648561       0.025926273       0.036592349           612
       8    -247.57506532      -0.001420290       0.007852059           629
       9    -247.57474973      -0.000315587       0.001121206           644
      10    -247.57483114       0.000081407       0.000193921           663
      11    -247.57482349      -0.000007648       0.000038280           684
      12    -247.57482322      -0.000000264       0.000010961           702
      13    -247.57482344       0.000000211       0.000003205           721
      14    -247.57482354       0.000000099       0.000000683           741

    CHF Iterations converged


    Iter     Energy [mEh]          dE [mEh]         Residual      Time [s]
       1    -284.12801829     284.128018285     136.751191211           207
       2    -288.17402331       4.046005027      47.717002426           373
       3    -316.74325602      28.569232704      10.781273876           392
       4    -317.76448137       1.021225358       3.852359730           411
       5    -316.97511511      -0.789366266       1.409550686           429
       6    -316.87127284      -0.103842273       0.547654341           446
       7    -316.96791004       0.096637203       0.205772703           463
       8    -316.98176547       0.013855431       0.093606751           478
       9    -316.97037272      -0.011392753       0.043117035           497
      10    -316.96743878      -0.002933940       0.023130864           515
      11    -316.96954407       0.002105290       0.018096184           534
      12    -316.97045758       0.000913511       0.010645317           553
      13    -316.96963451      -0.000823069       0.003661205           572
      14    -316.96944303      -0.000191479       0.001281013           589
      15    -316.96948620       0.000043171       0.000468621           608
      16    -316.96952208       0.000035882       0.000144139           625
      17    -316.96951804      -0.000004045       0.000060862           642
      18    -316.96951448      -0.000003555       0.000028997           660
      19    -316.96951445      -0.000000030       0.000013653           678
      20    -316.96951521       0.000000759       0.000006996           695
      21    -316.96951522       0.000000015       0.000003456           713
      22    -316.96951504      -0.000000181       0.000001809           732
      23    -316.96951503      -0.000000018       0.000000995           749

    CHF Iterations converged

    Ind20,r (A<-B)      =    -0.247574823535 [Eh]
    Ind20,r (B<-A)      =    -0.316969515026 [Eh]
    Ind20,r             =    -0.564544338562 [Eh]
    Exch-Ind20,r (A<-B) =     0.166337778776 [Eh]
    Exch-Ind20,r (B<-A) =     0.219405201618 [Eh]
    Exch-Ind20,r        =     0.385742980394 [Eh]
    Disp20              =    -0.135422941106 [Eh]
    Disp20 (SS)         =    -0.067711470553 [Eh]
    Disp20 (OS)         =    -0.067711470553 [Eh]
    Exch-Disp20         =     0.053456815319 [Eh]
    Exch-Disp20 (SS)    =     0.024951343073 [Eh]
    Exch-Disp20 (OS)    =     0.028505472246 [Eh]

    SAPT Results 
  --------------------------------------------------------------------------------------------------------
    Electrostatics               -412.57798732 [mEh]    -258.89659571 [kcal/mol]   -1083.22335647 [kJ/mol]
      Elst10,r                   -412.57798732 [mEh]    -258.89659571 [kcal/mol]   -1083.22335647 [kJ/mol]

    Exchange                      971.82056432 [mEh]     609.82661092 [kcal/mol]    2551.51454010 [kJ/mol]
      Exch10                      971.82056432 [mEh]     609.82661092 [kcal/mol]    2551.51454010 [kJ/mol]
      Exch10(S^2)                 892.69519574 [mEh]     560.17469252 [kcal/mol]    2343.77091350 [kJ/mol]

    Induction                     -18.53399707 [mEh]     -11.63025875 [kcal/mol]     -48.66100261 [kJ/mol]
      Ind20,r                    -564.54433856 [mEh]    -354.25692081 [kcal/mol]   -1482.21095669 [kJ/mol]
      Exch-Ind20,r                385.74298039 [mEh]     242.05737464 [kcal/mol]    1012.76805550 [kJ/mol]
      delta HF,r (2)              160.26736110 [mEh]     100.56928742 [kcal/mol]     420.78189858 [kJ/mol]

    Dispersion                    -81.96612579 [mEh]     -51.43452046 [kcal/mol]    -215.20203360 [kJ/mol]
      Disp20                     -135.42294111 [mEh]     -84.97917851 [kcal/mol]    -355.55288289 [kJ/mol]
      Exch-Disp20                  53.45681532 [mEh]      33.54465805 [kcal/mol]     140.35084929 [kJ/mol]
      Disp20 (SS)                 -67.71147055 [mEh]     -42.48958926 [kcal/mol]    -177.77644144 [kJ/mol]
      Disp20 (OS)                 -67.71147055 [mEh]     -42.48958926 [kcal/mol]    -177.77644144 [kJ/mol]
      Exch-Disp20 (SS)             24.95134307 [mEh]      15.65720416 [kcal/mol]      65.50974221 [kJ/mol]
      Exch-Disp20 (OS)             28.50547225 [mEh]      17.88745389 [kcal/mol]      74.84110707 [kJ/mol]

  Total HF                        540.70857993 [mEh]     339.29975646 [kcal/mol]    1419.63018102 [kJ/mol]
  Total SAPT0                     458.74245414 [mEh]     287.86523600 [kcal/mol]    1204.42814742 [kJ/mol]

  Special recipe for scaled SAPT0 (see Manual):
    Electrostatics sSAPT0        -412.57798732 [mEh]    -258.89659571 [kcal/mol]   -1083.22335647 [kJ/mol]
    Exchange sSAPT0               971.82056432 [mEh]     609.82661092 [kcal/mol]    2551.51454010 [kJ/mol]
    Induction sSAPT0               93.39901755 [mEh]      58.60876835 [kcal/mol]     245.21908680 [kJ/mol]
    Dispersion sSAPT0             -66.45428812 [mEh]     -41.70069537 [kcal/mol]    -174.47570943 [kJ/mol]
  Total sSAPT0                    586.18730643 [mEh]     367.83808819 [kcal/mol]    1539.03456100 [kJ/mol]
  --------------------------------------------------------------------------------------------------------

*** tstop() called on d-6-1-4 at Sat Jan 20 23:31:28 2024
Module time:
	user time   =    7570.67 seconds =     126.18 minutes
	system time =     771.07 seconds =      12.85 minutes
	total time  =       4124 seconds =      68.73 minutes
Total time:
	user time   =   14866.45 seconds =     247.77 minutes
	system time =     898.09 seconds =      14.97 minutes
	total time  =       4878 seconds =      81.30 minutes

    Psi4 stopped on: Saturday, 20 January 2024 11:31PM
    Psi4 wall time for execution: 1:21:18.86

*** Psi4 exiting successfully. Buy a developer a beer!
