
    -----------------------------------------------------------------------
          Psi4: An Open-Source Ab Initio Electronic Structure Package
                               Psi4 1.9 release

                         Git: Rev {} zzzzzzz 


    D. G. A. Smith, L. A. Burns, A. C. Simmonett, R. M. Parrish,
    M. C. Schieber, R. Galvelis, P. Kraus, H. Kruse, R. Di Remigio,
    A. Alenaizan, A. M. James, S. Lehtola, J. P. Misiewicz, M. Scheurer,
    R. A. Shaw, J. B. Schriber, Y. Xie, Z. L. Glick, D. A. Sirianni,
    J. S. O'Brien, J. M. Waldrop, A. Kumar, E. G. Hohenstein,
    B. P. Pritchard, B. R. Brooks, H. F. Schaefer III, A. Yu. Sokolov,
    K. Patkowski, A. E. DePrince III, U. Bozkaya, R. A. King,
    F. A. Evangelista, J. M. Turney, T. D. Crawford, C. D. Sherrill,
    J. Chem. Phys. 152(18) 184108 (2020). https://doi.org/10.1063/5.0006002

                            Additional Code Authors
    E. T. Seidl, C. L. Janssen, E. F. Valeev, M. L. Leininger,
    J. F. Gonthier, R. M. Richard, H. R. McAlexander, M. Saitow, X. Wang,
    P. Verma, M. H. Lechner, A. Jiang, S. Behnle, A. G. Heide,
    M. F. Herbst, and D. L. Poole

             Previous Authors, Complete List of Code Contributors,
                       and Citations for Specific Modules
    https://github.com/psi4/psi4/blob/master/codemeta.json
    https://github.com/psi4/psi4/graphs/contributors
    http://psicode.org/psi4manual/master/introduction.html#citing-psifour

    -----------------------------------------------------------------------


    Psi4 started on: Saturday, 27 January 2024 11:25AM

    Process ID: 2069616
    Host:       n2cn0993
    PSIDATADIR: /opt/software/pc2/EB-SW/software/PSI4/1.9-foss-2022a/share/psi4
    Memory:     500.0 MiB
    Threads:    16
    
  ==> Input File <==

--------------------------------------------------------------------------
memory 64 GB # how much memory is available ! Depends on the nodes/cores !

molecule dimer {
# monomer A
-1 1    # Charge and multiplicity
B -0.000046  0.000337 2.999994
F -1.153597  0.000048 3.815641
F  1.153661 -0.000581 3.815641
F -0.000019 -1.153637 2.184360
F -0.000019  1.153978 2.184360
--
# monomer B
0 1     # Charge and multiplicity
C   -3.66844126402057      7.80375217008252      0.00190004133558
C   -4.84759871934653      7.13124183134024     -0.00046653359696
C   -4.89495929917518      5.69633040353158     -0.00103944469517
C   -3.65374067877320      4.98073034095895      0.00662099703436
C   -2.40942512149445      7.11398103667468      0.00209438359570
C   -2.42547734410473      5.68112195090346     -0.00491050527438
C   -1.19474401643570      7.78614419430947      0.00356656413763
C   0.03795902893699      7.09942164575698      0.00139585983271
C   0.03033258741920      5.66948955970466     -0.00408752508301
C   -1.20098450790502      4.96927034791531      0.00488220885047
C   1.27795782581485      7.77285944319479      0.00277170839332
C   2.48535808472416      7.08769688523756      0.00049722048857
C   2.48612868491717      5.65477081024076     -0.00644052849921
C   1.25408291964399      4.95607811366431      0.00518741308898
C   3.75171459140595      7.76391215098033      0.00062407186893
C   4.92356605618520      7.07878077698995     -0.00143240883900
C   4.95560727132542      5.64344746336949     -0.00159282164606
C   3.70680153420475      4.94121020833308      0.00349873852374
H   -3.65852113775815      8.89082741913536      0.00358502958574
H   -1.18921332975660      8.87412108735996      0.00753844057883
H   1.28429423888630      8.86083343548850      0.00693053253426
H   3.75354208679975      8.85103527897216      0.00214659618464
H   5.86995870320703      7.61379483465560     -0.00235777588134
H   -5.78823170750226      7.67630221293400     -0.00202638095293
C   -6.09197395869619      4.99326001364347     -0.00291168518608
C   -6.12866148031747      3.58258016879823     -0.00171050815740
C   -3.66457974004527      3.56418217974434     -0.00463560277484
C   -4.89429820469869      2.86108077590057      0.00453338221034
C   -2.43733499489796      2.84761165708481      0.00719617576166
C   -1.20922785759670      3.54788693497833     -0.00648285103018
C   1.24714157216223      3.53468075142962     -0.00729145743546
C   0.01517603956900      2.83311183930540      0.00439272578912
C   2.46764517244071      2.82128997725533      0.00449278391269
C   3.70254947457969      3.52466015442405     -0.00899517692985
C   6.14498038638375      4.92757236613191     -0.00282626685777
C   6.16658835886151      3.51658447594213     -0.00065971342101
C   4.92460995845939      2.80840792535402      0.00587903281610
H   7.08990550964105      5.46688776622306     -0.00658814770723
H   -7.03104175110130      5.54268795285765     -0.00714490013730
C   -7.33969804112295      2.85841153457957     -0.00333767559888
C   -7.36488195805880      1.47032337158330     -0.00157213747140
C   -4.90350460894690      1.44442681216000     -0.00628840166334
C   -6.13225715261081      0.73993935705394      0.00600164231964
C   -3.67687480051673      0.72669714267312      0.00433931473643
C   -2.44565658606518      1.42964113326212     -0.00597039546461
C   -1.22360068130162      0.71532450163492      0.00545886906656
C   0.00763786931376      1.41738314923765      0.00392452278437
C   1.23121980774686      0.70211669058719     -0.01490206287210
C   2.46082110053113      1.40329203612573      0.00460244601878
C   3.68443025419614      0.68719842821222      0.00377365974158
C   4.91870890153864      1.39173456118907     -0.00862816189375
C   7.36980207796101      2.77948220318441     -0.00242013321349
C   7.38016266612146      1.39121750785509     -0.00087345036788
C   6.13979953912259      0.67411862320065      0.00545489144369
H   -8.27919079934664      3.40711804112415     -0.00763522772059
H   8.31511347147953      3.31811809662368     -0.00663070901292
C   -8.59175593758115      0.72483255304480     -0.00123170985383
C   -8.59902460370342     -0.63263980622873      0.00089141472904
C   -6.13981313911873     -0.67413663715361     -0.00609792660607
C   -7.38018411213749     -1.39126618958160      0.00131813493501
C   -4.91868448025621     -1.39175501803000      0.00624257154343
C   -3.68443829568458     -0.68723731573599     -0.00478966852105
C   -2.46081704024768     -1.40334517882457      0.00575341766833
C   -1.23116201232071     -0.70217386488055     -0.00636696112346
C   -0.00756962538737     -1.41741884941102      0.00108956317991
C   1.22364771588843     -0.71527537726392      0.01109518512883
C   2.44567064933149     -1.42964328900682     -0.00065482763106
C   3.67686670284649     -0.72670743155550     -0.00479541202602
C   6.13224884641929     -0.73997883984993     -0.00632338623858
C   4.90351914550401     -1.44445752054090      0.00751768830159
C   8.59901484869081      0.63260386666793     -0.00101133422380
C   8.59174548810050     -0.72485086719319      0.00072504603735
C   7.36486276438985     -1.47033266560598      0.00049486934466
H   -9.52830597181814      1.27684744919284     -0.00270163681798
H   9.54141097460619      1.17457248844457     -0.00206336648518
C   -7.36983790976868     -2.77954514593389      0.00312634335708
C   -4.92459910905015     -2.80843725734101     -0.00460528907921
C   -6.16662249566744     -3.51665219282533      0.00169655107992
C   -3.70251035970491     -3.52468154912026      0.00571878010666
C   -2.46764698511392     -2.82132596280400     -0.00632585824990
C   -0.01513347410770     -2.83314164539971     -0.00604426974092
C   -1.24712184122656     -3.53473217556300      0.00551968366725
C   1.20924506964357     -3.54791467864352      0.00805871345849
C   2.43733602215464     -2.84764173817541     -0.00608104485234
C   4.89430234377080     -2.86112296828604     -0.00526030478103
C   3.66461525504104     -3.56421984553201      0.00761911515957
C   6.12863901474565     -3.58258405771778      0.00096495711699
C   7.33967266469532     -2.85841330737039      0.00248018319869
H   -9.54144911125902     -1.17456346666430      0.00226083090216
H   9.52826186807155     -1.27691907390448      0.00197485379837
H   -8.31516504384864     -3.31814985321231      0.00729857188773
H   8.27915514249207     -3.40714078989363      0.00681973918158
C   -6.14499418870218     -4.92764727278338      0.00302254913999
C   -3.70678334799751     -4.94126171411716     -0.00679841894792
C   -4.95559005800169     -5.64349397349412      0.00116871569699
C   -2.48612132622665     -5.65478557440947      0.00614125209662
C   -1.25405833548005     -4.95612205000132     -0.00503435388927
C   1.20101257386816     -4.96928038819302     -0.00385322963129
C   -0.03033667441341     -5.66952030313900      0.00398997003238
C   3.65375010132847     -4.98074377541453     -0.00309522988330
C   2.42549269587528     -5.68117463552727      0.00628170066869
C   6.09196561781097     -4.99325796338655      0.00325918379042
C   4.89497644461045     -5.69634842095790      0.00202298796027
H   -7.08989238804069     -5.46699984223871      0.00742531082125
H   7.03105520920009     -5.54265853633254      0.00683896355417
C   -4.92354532219813     -7.07882109967734      0.00061394679214
C   -2.48534208823777     -7.08772807792913     -0.00189594564379
C   -3.75168589177895     -7.76394715763627     -0.00170126671874
C   -0.03794895698805     -7.09946487446944     -0.00168022049625
C   -1.27795610040136     -7.77290438466689     -0.00366491325785
C   2.40944432072629     -7.11402201200282     -0.00081701968533
C   1.19474993715296     -7.78618536556242     -0.00296931056689
C   4.84762105249800     -7.13126211057943      0.00168979497423
C   3.66847160587561     -7.80378799294376     -0.00065863938960
H   -5.86994035041618     -7.61383059804164      0.00215798365757
H   5.78824962538815     -7.67633218931421      0.00281691445618
H   -3.75352693944918     -8.85107156923607     -0.00353718114765
H   -1.28430440589466     -8.86087539249706     -0.00809229711623
H   1.18922157469537     -8.87416062058945     -0.00706194725726
H   3.65854661482387     -8.89086063405326     -0.00231318081200

    units angstrom      # Angstroms are the default
    no_reorient         # Geometry fixed, default
    symmetry c1         # C1 symmetry, default
}

set {
    scf_type DF         # Density fitting, faster than exact integrals
    freeze_core True    # Freeze core electrons
    basis jun-cc-pVDZ   # Jun-cc-pVDZ basis set, recommended for sSAPT0 in https://doi.org/10.1063/1.4867135
}

energy('ssapt0')        # Compute sSAPT0 energy, includes also SAPT0
--------------------------------------------------------------------------

  Memory set to  59.605 GiB by Python driver.

Scratch directory: /tmp/
   => Loading Basis Set <=

    Name: JUN-CC-PVDZ
    Role: ORBITAL
    Keyword: BASIS
    atoms 1                                                   entry B          line   130 file /opt/software/pc2/EB-SW/software/PSI4/1.9-foss-2022a/share/psi4/basis/jun-cc-pvdz.gbs 
    atoms 2-5                                                 entry F          line   266 file /opt/software/pc2/EB-SW/software/PSI4/1.9-foss-2022a/share/psi4/basis/jun-cc-pvdz.gbs 
    atoms 6-23, 30-42, 45-59, 62-78, 81-93, 98-108, 111-119   entry C          line   164 file /opt/software/pc2/EB-SW/software/PSI4/1.9-foss-2022a/share/psi4/basis/jun-cc-pvdz.gbs 
    atoms 24-29, 43-44, 60-61, 79-80, 94-97, 109-110, 120-125 entry H          line    36 file /opt/software/pc2/EB-SW/software/PSI4/1.9-foss-2022a/share/psi4/basis/jun-cc-pvdz.gbs 

   => Loading Basis Set <=

    Name: JUN-CC-PVDZ
    Role: ORBITAL
    Keyword: BASIS
    atoms 1                                                   entry B          line   130 file /opt/software/pc2/EB-SW/software/PSI4/1.9-foss-2022a/share/psi4/basis/jun-cc-pvdz.gbs 
    atoms 2-5                                                 entry F          line   266 file /opt/software/pc2/EB-SW/software/PSI4/1.9-foss-2022a/share/psi4/basis/jun-cc-pvdz.gbs 
    atoms 6-23, 30-42, 45-59, 62-78, 81-93, 98-108, 111-119   entry C          line   164 file /opt/software/pc2/EB-SW/software/PSI4/1.9-foss-2022a/share/psi4/basis/jun-cc-pvdz.gbs 
    atoms 24-29, 43-44, 60-61, 79-80, 94-97, 109-110, 120-125 entry H          line    36 file /opt/software/pc2/EB-SW/software/PSI4/1.9-foss-2022a/share/psi4/basis/jun-cc-pvdz.gbs 


  //>>>>>>>>>>>>>>>>>>>>>>>>>>>>>>>>>>>//
  //              Dimer HF             //
  //<<<<<<<<<<<<<<<<<<<<<<<<<<<<<<<<<<<//

   => Libint2 <=

    Primary   basis highest AM E, G, H:  5, 4, 3
    Auxiliary basis highest AM E, G, H:  6, 5, 4
    Onebody   basis highest AM E, G, H:  6, 5, 4
    Solid Harmonics ordering:            gaussian

*** tstart() called on n2cn0993
*** at Sat Jan 27 11:25:34 2024

   => Loading Basis Set <=

    Name: JUN-CC-PVDZ
    Role: ORBITAL
    Keyword: BASIS
    atoms 1                                                   entry B          line   130 file /opt/software/pc2/EB-SW/software/PSI4/1.9-foss-2022a/share/psi4/basis/jun-cc-pvdz.gbs 
    atoms 2-5                                                 entry F          line   266 file /opt/software/pc2/EB-SW/software/PSI4/1.9-foss-2022a/share/psi4/basis/jun-cc-pvdz.gbs 
    atoms 6-23, 30-42, 45-59, 62-78, 81-93, 98-108, 111-119   entry C          line   164 file /opt/software/pc2/EB-SW/software/PSI4/1.9-foss-2022a/share/psi4/basis/jun-cc-pvdz.gbs 
    atoms 24-29, 43-44, 60-61, 79-80, 94-97, 109-110, 120-125 entry H          line    36 file /opt/software/pc2/EB-SW/software/PSI4/1.9-foss-2022a/share/psi4/basis/jun-cc-pvdz.gbs 


         ---------------------------------------------------------
                                   SCF
               by Justin Turney, Rob Parrish, Andy Simmonett
                          and Daniel G. A. Smith
                              RHF Reference
                       16 Threads,  61035 MiB Core
         ---------------------------------------------------------

  ==> Geometry <==

    Molecular point group: c1
    Full point group: C1

    Geometry (in Angstrom), charge = -1, multiplicity = 1:

       Center              X                  Y                   Z               Mass       
    ------------   -----------------  -----------------  -----------------  -----------------
         B           -0.000050191042     0.000351518223     2.793364337427    11.009305360000
         F           -1.153601191042     0.000062518223     3.609011337427    18.998403162730
         F            1.153656808958    -0.000566481777     3.609011337427    18.998403162730
         F           -0.000023191042    -1.153622481777     1.977730337427    18.998403162730
         F           -0.000023191042     1.153992518223     1.977730337427    18.998403162730
         C           -3.668445455062     7.803766688305    -0.204729621237    12.000000000000
         C           -4.847602910388     7.131256349563    -0.207096196170    12.000000000000
         C           -4.894963490217     5.696344921754    -0.207669107268    12.000000000000
         C           -3.653744869815     4.980744859182    -0.200008665539    12.000000000000
         C           -2.409429312536     7.113995554897    -0.204535278977    12.000000000000
         C           -2.425481535146     5.681136469126    -0.211540167847    12.000000000000
         C           -1.194748207477     7.786158712532    -0.203063098435    12.000000000000
         C            0.037954837895     7.099436163980    -0.205233802740    12.000000000000
         C            0.030328396378     5.669504077927    -0.210717187656    12.000000000000
         C           -1.200988698947     4.969284866138    -0.201747453722    12.000000000000
         C            1.277953634773     7.772873961417    -0.203857954180    12.000000000000
         C            2.485353893683     7.087711403460    -0.206132442084    12.000000000000
         C            2.486124493876     5.654785328463    -0.213070191072    12.000000000000
         C            1.254078728602     4.956092631887    -0.201442249484    12.000000000000
         C            3.751710400364     7.763926669203    -0.206005590704    12.000000000000
         C            4.923561865144     7.078795295213    -0.208062071412    12.000000000000
         C            4.955603080284     5.643461981592    -0.208222484219    12.000000000000
         C            3.706797343163     4.941224726556    -0.203130924049    12.000000000000
         H           -3.658525328800     8.890841937358    -0.203044632987     1.007825032230
         H           -1.189217520798     8.874135605583    -0.199091221994     1.007825032230
         H            1.284290047845     8.860847953711    -0.199699130039     1.007825032230
         H            3.753537895758     8.851049797195    -0.204483066388     1.007825032230
         H            5.869954512165     7.613809352878    -0.208987438454     1.007825032230
         H           -5.788235898544     7.676316731157    -0.208656043526     1.007825032230
         C           -6.091978149738     4.993274531866    -0.209541347759    12.000000000000
         C           -6.128665671359     3.582594687021    -0.208340170730    12.000000000000
         C           -3.664583931087     3.564196697967    -0.211265265348    12.000000000000
         C           -4.894302395740     2.861095294123    -0.202096280363    12.000000000000
         C           -2.437339185940     2.847626175307    -0.199433486811    12.000000000000
         C           -1.209232048638     3.547901453201    -0.213112513603    12.000000000000
         C            1.247137381121     3.534695269652    -0.213921120008    12.000000000000
         C            0.015171848527     2.833126357528    -0.202236936784    12.000000000000
         C            2.467640981399     2.821304495478    -0.202136878660    12.000000000000
         C            3.702545283538     3.524674672647    -0.215624839503    12.000000000000
         C            6.144976195342     4.927586884354    -0.209455929431    12.000000000000
         C            6.166584167820     3.516598994165    -0.207289375994    12.000000000000
         C            4.924605767418     2.808422443577    -0.200750629757    12.000000000000
         H            7.089901318599     5.466902284446    -0.213217810280     1.007825032230
         H           -7.031045942143     5.542702471080    -0.213774562710     1.007825032230
         C           -7.339702232165     2.858426052802    -0.209967338172    12.000000000000
         C           -7.364886149100     1.470337889806    -0.208201800044    12.000000000000
         C           -4.903508799989     1.444441330383    -0.212918064236    12.000000000000
         C           -6.132261343652     0.739953875277    -0.200628020253    12.000000000000
         C           -3.676878991558     0.726711660896    -0.202290347836    12.000000000000
         C           -2.445660777107     1.429655651485    -0.212600058038    12.000000000000
         C           -1.223604872343     0.715339019858    -0.201170793506    12.000000000000
         C            0.007633678272     1.417397667460    -0.202705139789    12.000000000000
         C            1.231215616705     0.702131208810    -0.221531725445    12.000000000000
         C            2.460816909489     1.403306554348    -0.202027216554    12.000000000000
         C            3.684426063155     0.687212946435    -0.202856002831    12.000000000000
         C            4.918704710497     1.391749079412    -0.215257824467    12.000000000000
         C            7.369797886919     2.779496721407    -0.209049795786    12.000000000000
         C            7.380158475080     1.391232026078    -0.207503112941    12.000000000000
         C            6.139795348081     0.674133141423    -0.201174771129    12.000000000000
         H           -8.279194990388     3.407132559347    -0.214264890293     1.007825032230
         H            8.315109280438     3.318132614846    -0.213260371586     1.007825032230
         C           -8.591760128623     0.724847071267    -0.207861372427    12.000000000000
         C           -8.599028794745    -0.632625288006    -0.205738247844    12.000000000000
         C           -6.139817330160    -0.674122118931    -0.212727589179    12.000000000000
         C           -7.380188303179    -1.391251671359    -0.205311527638    12.000000000000
         C           -4.918688671298    -1.391740499807    -0.200387091029    12.000000000000
         C           -3.684442486726    -0.687222797513    -0.211419331094    12.000000000000
         C           -2.460821231289    -1.403330660602    -0.200876244905    12.000000000000
         C           -1.231166203362    -0.702159346658    -0.212996623696    12.000000000000
         C           -0.007573816429    -1.417404331188    -0.205540099393    12.000000000000
         C            1.223643524847    -0.715260859041    -0.195534477444    12.000000000000
         C            2.445666458290    -1.429628770784    -0.207284490204    12.000000000000
         C            3.676862511805    -0.726692913333    -0.211425074599    12.000000000000
         C            6.132244655378    -0.739964321627    -0.212953048811    12.000000000000
         C            4.903514954462    -1.444443002318    -0.199111974271    12.000000000000
         C            8.599010657649     0.632618384891    -0.207640996797    12.000000000000
         C            8.591741297059    -0.724836348971    -0.205904616536    12.000000000000
         C            7.364858573348    -1.470318147383    -0.206134793228    12.000000000000
         H           -9.528310162860     1.276861967415    -0.209331299391     1.007825032230
         H            9.541406783565     1.174587006667    -0.208693029058     1.007825032230
         C           -7.369842100810    -2.779530627711    -0.203503319216    12.000000000000
         C           -4.924603300092    -2.808422739118    -0.211234951652    12.000000000000
         C           -6.166626686709    -3.516637674603    -0.204933111493    12.000000000000
         C           -3.702514550747    -3.524667030898    -0.200910882466    12.000000000000
         C           -2.467651176156    -2.821311444581    -0.212955520823    12.000000000000
         C           -0.015137665149    -2.833127127177    -0.212673932314    12.000000000000
         C           -1.247126032268    -3.534717657340    -0.201109978906    12.000000000000
         C            1.209240878602    -3.547900160421    -0.198570949114    12.000000000000
         C            2.437331831113    -2.847627219953    -0.212710707425    12.000000000000
         C            4.894298152729    -2.861108450063    -0.211889967354    12.000000000000
         C            3.664611063999    -3.564205327309    -0.199010547413    12.000000000000
         C            6.128634823704    -3.582569539495    -0.205664705456    12.000000000000
         C            7.339668473654    -2.858398789148    -0.204149479374    12.000000000000
         H           -9.541453302301    -1.174548948442    -0.204368831671     1.007825032230
         H            9.528257677030    -1.276904555682    -0.204654808775     1.007825032230
         H           -8.315169234890    -3.318135334990    -0.199331090685     1.007825032230
         H            8.279150951450    -3.407126271671    -0.199809923391     1.007825032230
         C           -6.144998379744    -4.927632754561    -0.203607113433    12.000000000000
         C           -3.706787539039    -4.941247195895    -0.213428081521    12.000000000000
         C           -4.955594249043    -5.643479455272    -0.205460946876    12.000000000000
         C           -2.486125517268    -5.654771056187    -0.200488410476    12.000000000000
         C           -1.254062526522    -4.956107531779    -0.211664016462    12.000000000000
         C            1.201008382827    -4.969265869970    -0.210482892204    12.000000000000
         C           -0.030340865455    -5.669505784916    -0.202639692541    12.000000000000
         C            3.653745910287    -4.980729257192    -0.209724892456    12.000000000000
         C            2.425488504834    -5.681160117305    -0.200347961904    12.000000000000
         C            6.091961426769    -4.993243445164    -0.203370478782    12.000000000000
         C            4.894972253569    -5.696333902735    -0.204606674613    12.000000000000
         H           -7.089896579082    -5.466985324016    -0.199204351752     1.007825032230
         H            7.031051018158    -5.542644018110    -0.199790699019     1.007825032230
         C           -4.923549513240    -7.078806581455    -0.206015715781    12.000000000000
         C           -2.485346279279    -7.087713559707    -0.208525608217    12.000000000000
         C           -3.751690082821    -7.763932639414    -0.208330929292    12.000000000000
         C           -0.037953148030    -7.099450356247    -0.208309883069    12.000000000000
         C           -1.277960291443    -7.772889866444    -0.210294575831    12.000000000000
         C            2.409440129685    -7.114007493780    -0.207446682258    12.000000000000
         C            1.194745746111    -7.786170847340    -0.209598973140    12.000000000000
         C            4.847616861456    -7.131247592357    -0.204939867599    12.000000000000
         C            3.668467414834    -7.803773474721    -0.207288301962    12.000000000000
         H           -5.869944541458    -7.613816079819    -0.204471678915     1.007825032230
         H            5.788245434347    -7.676317671092    -0.203812748117     1.007825032230
         H           -3.753531130491    -8.851057051013    -0.210166843721     1.007825032230
         H           -1.284308596936    -8.860860874274    -0.214721959689     1.007825032230
         H            1.189217383654    -8.874146102367    -0.213691609830     1.007825032230
         H            3.658542423782    -8.890846115831    -0.208942843385     1.007825032230

  Running in c1 symmetry.

  Rotational constants: A =      0.00068  B =      0.00068  C =      0.00035 [cm^-1]
  Rotational constants: A =     20.43878  B =     20.43521  C =     10.55117 [MHz]
  Nuclear repulsion = 17857.716450115065527

  Charge       = -1
  Multiplicity = 1
  Electrons    = 642
  Nalpha       = 321
  Nbeta        = 321

  ==> Algorithm <==

  SCF Algorithm Type is DF.
  DIIS enabled.
  MOM disabled.
  Fractional occupation disabled.
  Guess Type is SAD.
  Energy threshold   = 1.00e-08
  Density threshold  = 1.00e-08
  Integral threshold = 1.00e-12

  ==> Primary Basis <==

  Basis Set: JUN-CC-PVDZ
    Blend: JUN-CC-PVDZ
    Number of shells: 880
    Number of basis functions: 1938
    Number of Cartesian functions: 2039
    Spherical Harmonics?: true
    Max angular momentum: 2

   => Loading Basis Set <=

    Name: (JUN-CC-PVDZ AUX)
    Role: JKFIT
    Keyword: DF_BASIS_SCF
    atoms 1                                                   entry B          line    90 file /opt/software/pc2/EB-SW/software/PSI4/1.9-foss-2022a/share/psi4/basis/jun-cc-pvdz-jkfit.gbs 
    atoms 2-5                                                 entry F          line   314 file /opt/software/pc2/EB-SW/software/PSI4/1.9-foss-2022a/share/psi4/basis/jun-cc-pvdz-jkfit.gbs 
    atoms 6-23, 30-42, 45-59, 62-78, 81-93, 98-108, 111-119   entry C          line   146 file /opt/software/pc2/EB-SW/software/PSI4/1.9-foss-2022a/share/psi4/basis/jun-cc-pvdz-jkfit.gbs 
    atoms 24-29, 43-44, 60-61, 79-80, 94-97, 109-110, 120-125 entry H          line    70 file /opt/software/pc2/EB-SW/software/PSI4/1.9-foss-2022a/share/psi4/basis/jun-cc-pvdz-jkfit.gbs 

  ==> Integral Setup <==

  ==> DiskDFJK: Density-Fitted J/K Matrices <==

    J tasked:                  Yes
    K tasked:                  Yes
    wK tasked:                  No
    OpenMP threads:             16
    Integrals threads:          16
    Memory [MiB]:            45776
    Algorithm:                Disk
    Integral Cache:           SAVE
    Schwarz Cutoff:          1E-12
    Fitting Condition:       1E-10

   => Auxiliary Basis Set <=

  Basis Set: (JUN-CC-PVDZ AUX)
    Blend: JUN-CC-PVDZ-JKFIT
    Number of shells: 2943
    Number of basis functions: 8531
    Number of Cartesian functions: 9791
    Spherical Harmonics?: true
    Max angular momentum: 3

  Minimum eigenvalue in the overlap matrix is 6.0420696136E-11.
  Reciprocal condition number of the overlap matrix is 2.4615307596E-12.
    Using canonical orthogonalization.
  Overall, 40 of 1938 possible MOs eliminated.


  ==> Pre-Iterations <==

  SCF Guess: Superposition of Atomic Densities via on-the-fly atomic UHF (no occupation information).

   -------------------------
    Irrep   Nso     Nmo    
   -------------------------
     A       1938    1898 
   -------------------------
    Total    1938    1898
   -------------------------

  ==> Iterations <==

                           Total Energy        Delta E     RMS |[F,P]|

   @DF-RHF iter SAD: -4085.58390942618416   -4.08558e+03   0.00000e+00 
   @DF-RHF iter   1: -4071.44910250102657    1.41348e+01   7.91530e-04 ADIIS/DIIS
   @DF-RHF iter   2: -4072.85835852078708   -1.40926e+00   3.13615e-04 ADIIS/DIIS
   @DF-RHF iter   3: -4073.03178345565038   -1.73425e-01   1.15557e-04 ADIIS/DIIS
   @DF-RHF iter   4: -4073.05824731830944   -2.64639e-02   5.16826e-05 DIIS
   @DF-RHF iter   5: -4073.06454965450303   -6.30234e-03   1.48561e-05 DIIS
   @DF-RHF iter   6: -4073.06524048535493   -6.90831e-04   5.11941e-06 DIIS
   @DF-RHF iter   7: -4073.06544585799202   -2.05373e-04   2.76948e-06 DIIS
   @DF-RHF iter   8: -4073.06552200648684   -7.61485e-05   1.30283e-06 DIIS
   @DF-RHF iter   9: -4073.06554645231154   -2.44458e-05   4.95339e-07 DIIS
   @DF-RHF iter  10: -4073.06554821680311   -1.76449e-06   1.95801e-07 DIIS
   @DF-RHF iter  11: -4073.06554849834811   -2.81545e-07   7.55956e-08 DIIS
   @DF-RHF iter  12: -4073.06554855159493   -5.32468e-08   4.39908e-08 DIIS
   @DF-RHF iter  13: -4073.06554856934190   -1.77470e-08   1.90843e-08 DIIS
   @DF-RHF iter  14: -4073.06554857297124   -3.62934e-09   1.09950e-08 DIIS
   @DF-RHF iter  15: -4073.06554857466290   -1.69166e-09   6.45741e-09 DIIS
  Energy and wave function converged.


  ==> Post-Iterations <==

    Orbital Energies [Eh]
    ---------------------

    Doubly Occupied:                                                      

       1A    -26.121321     2A    -26.121040     3A    -26.102564  
       4A    -26.102514     5A    -11.194464     6A    -11.194456  
       7A    -11.194446     8A    -11.194434     9A    -11.194253  
      10A    -11.194249    11A    -11.194247    12A    -11.194240  
      13A    -11.194203    14A    -11.194196    15A    -11.194190  
      16A    -11.194186    17A    -11.193267    18A    -11.193263  
      19A    -11.193254    20A    -11.193248    21A    -11.193115  
      22A    -11.193098    23A    -11.191681    24A    -11.191670  
      25A    -11.191524    26A    -11.191523    27A    -11.191518  
      28A    -11.191516    29A    -11.190234    30A    -11.190224  
      31A    -11.190065    32A    -11.190064    33A    -11.190062  
      34A    -11.190056    35A    -11.189732    36A    -11.189712  
      37A    -11.189536    38A    -11.189518    39A    -11.189421  
      40A    -11.189387    41A    -11.189365    42A    -11.189312  
      43A    -11.189215    44A    -11.189165    45A    -11.189105  
      46A    -11.189072    47A    -11.188701    48A    -11.188675  
      49A    -11.188577    50A    -11.188560    51A    -11.188161  
      52A    -11.188126    53A    -11.187949    54A    -11.187928  
      55A    -11.187619    56A    -11.187591    57A    -11.187540  
      58A    -11.187507    59A    -11.187395    60A    -11.187377  
      61A    -11.187256    62A    -11.187243    63A    -11.187219  
      64A    -11.187203    65A    -11.186460    66A    -11.186440  
      67A    -11.186353    68A    -11.186331    69A    -11.186064  
      70A    -11.186052    71A    -11.186010    72A    -11.185975  
      73A    -11.185245    74A    -11.185226    75A    -11.185222  
      76A    -11.185191    77A    -11.184574    78A    -11.184560  
      79A    -11.183523    80A    -11.183506    81A    -11.183344  
      82A    -11.183333    83A    -11.183266    84A    -11.183233  
      85A    -11.181750    86A    -11.181728    87A    -11.181716  
      88A    -11.181706    89A    -11.179885    90A    -11.179855  
      91A    -11.179701    92A    -11.179682    93A    -11.178993  
      94A    -11.178763    95A    -11.175317    96A    -11.175248  
      97A    -11.174130    98A    -11.173975    99A    -11.172985  
     100A    -11.172894   101A     -7.584996   102A     -1.464743  
     103A     -1.416614   104A     -1.398762   105A     -1.386491  
     106A     -1.175403   107A     -1.165088   108A     -1.164653  
     109A     -1.148816   110A     -1.148606   111A     -1.137854  
     112A     -1.131196   113A     -1.124748   114A     -1.112800  
     115A     -1.112117   116A     -1.104407   117A     -1.104278  
     118A     -1.081654   119A     -1.081388   120A     -1.077452  
     121A     -1.075744   122A     -1.075740   123A     -1.056677  
     124A     -1.043943   125A     -1.043285   126A     -1.041178  
     127A     -1.038111   128A     -1.037866   129A     -1.016927  
     130A     -1.016667   131A     -1.008134   132A     -1.008092  
     133A     -0.994861   134A     -0.994727   135A     -0.990694  
     136A     -0.976212   137A     -0.976146   138A     -0.969847  
     139A     -0.969798   140A     -0.969289   141A     -0.951853  
     142A     -0.944804   143A     -0.944761   144A     -0.937296  
     145A     -0.935030   146A     -0.931986   147A     -0.927678  
     148A     -0.927570   149A     -0.922906   150A     -0.898773  
     151A     -0.898685   152A     -0.885905   153A     -0.885811  
     154A     -0.838003   155A     -0.837952   156A     -0.831345  
     157A     -0.831298   158A     -0.828343   159A     -0.817359  
     160A     -0.817272   161A     -0.816971   162A     -0.815890  
     163A     -0.815853   164A     -0.803249   165A     -0.802946  
     166A     -0.782808   167A     -0.775246   168A     -0.774988  
     169A     -0.771405   170A     -0.770941   171A     -0.764268  
     172A     -0.764087   173A     -0.760064   174A     -0.760005  
     175A     -0.717017   176A     -0.716981   177A     -0.710904  
     178A     -0.710892   179A     -0.709639   180A     -0.709334  
     181A     -0.708877   182A     -0.696758   183A     -0.687167  
     184A     -0.677490   185A     -0.665630   186A     -0.657731  
     187A     -0.656648   188A     -0.656601   189A     -0.654073  
     190A     -0.654020   191A     -0.653706   192A     -0.644208  
     193A     -0.641490   194A     -0.640893   195A     -0.629871  
     196A     -0.629856   197A     -0.617157   198A     -0.617020  
     199A     -0.612757   200A     -0.612384   201A     -0.612310  
     202A     -0.608223   203A     -0.594552   204A     -0.584347  
     205A     -0.581303   206A     -0.581091   207A     -0.580964  
     208A     -0.577308   209A     -0.577089   210A     -0.576995  
     211A     -0.574867   212A     -0.570731   213A     -0.570370  
     214A     -0.568471   215A     -0.568420   216A     -0.564540  
     217A     -0.564235   218A     -0.558499   219A     -0.546688  
     220A     -0.546520   221A     -0.544017   222A     -0.539896  
     223A     -0.539876   224A     -0.527723   225A     -0.527187  
     226A     -0.526957   227A     -0.526759   228A     -0.526400  
     229A     -0.526319   230A     -0.525304   231A     -0.525082  
     232A     -0.523901   233A     -0.519742   234A     -0.519538  
     235A     -0.518169   236A     -0.517507   237A     -0.512710  
     238A     -0.511184   239A     -0.511070   240A     -0.505077  
     241A     -0.504454   242A     -0.504183   243A     -0.498582  
     244A     -0.497806   245A     -0.497699   246A     -0.494537  
     247A     -0.493986   248A     -0.493378   249A     -0.490924  
     250A     -0.486790   251A     -0.486488   252A     -0.482775  
     253A     -0.481519   254A     -0.481479   255A     -0.477861  
     256A     -0.474127   257A     -0.467356   258A     -0.464324  
     259A     -0.464234   260A     -0.463751   261A     -0.460195  
     262A     -0.458591   263A     -0.456675   264A     -0.454080  
     265A     -0.452434   266A     -0.449266   267A     -0.446881  
     268A     -0.446667   269A     -0.445683   270A     -0.445046  
     271A     -0.441086   272A     -0.440949   273A     -0.437769  
     274A     -0.431843   275A     -0.427570   276A     -0.424904  
     277A     -0.424792   278A     -0.423838   279A     -0.419472  
     280A     -0.418444   281A     -0.412770   282A     -0.409297  
     283A     -0.409009   284A     -0.404077   285A     -0.396529  
     286A     -0.396507   287A     -0.394979   288A     -0.394737  
     289A     -0.387445   290A     -0.370691   291A     -0.370456  
     292A     -0.367761   293A     -0.367551   294A     -0.363873  
     295A     -0.363763   296A     -0.356786   297A     -0.335978  
     298A     -0.335427   299A     -0.318161   300A     -0.317280  
     301A     -0.312776   302A     -0.312669   303A     -0.302780  
     304A     -0.283714   305A     -0.283091   306A     -0.279649  
     307A     -0.265448   308A     -0.265359   309A     -0.260450  
     310A     -0.254903   311A     -0.245206   312A     -0.234065  
     313A     -0.229949   314A     -0.227502   315A     -0.226430  
     316A     -0.216050   317A     -0.190848   318A     -0.179040  
     319A     -0.172593   320A     -0.133731   321A     -0.133251  

    Virtual:                                                              

     322A      0.058743   323A      0.059567   324A      0.095389  
     325A      0.095482   326A      0.096011   327A      0.097858  
     328A      0.098091   329A      0.103129   330A      0.104303  
     331A      0.105614   332A      0.108063   333A      0.109064  
     334A      0.111123   335A      0.111157   336A      0.122463  
     337A      0.122483   338A      0.131413   339A      0.132521  
     340A      0.136710   341A      0.138321   342A      0.138520  
     343A      0.139547   344A      0.140509   345A      0.142207  
     346A      0.142304   347A      0.142628   348A      0.142790  
     349A      0.144075   350A      0.144359   351A      0.144488  
     352A      0.149906   353A      0.150135   354A      0.150344  
     355A      0.150533   356A      0.150606   357A      0.151833  
     358A      0.156990   359A      0.160199   360A      0.162886  
     361A      0.163277   362A      0.163541   363A      0.164447  
     364A      0.165279   365A      0.165942   366A      0.170507  
     367A      0.172091   368A      0.172686   369A      0.172739  
     370A      0.175106   371A      0.176497   372A      0.176567  
     373A      0.176935   374A      0.177256   375A      0.177468  
     376A      0.178568   377A      0.179473   378A      0.180653  
     379A      0.180700   380A      0.188923   381A      0.188971  
     382A      0.190802   383A      0.196433   384A      0.197332  
     385A      0.197420   386A      0.199229   387A      0.199250  
     388A      0.204352   389A      0.204746   390A      0.205883  
     391A      0.205949   392A      0.206288   393A      0.214549  
     394A      0.215651   395A      0.215713   396A      0.216012  
     397A      0.216868   398A      0.218875   399A      0.220685  
     400A      0.222238   401A      0.222790   402A      0.224125  
     403A      0.224284   404A      0.224383   405A      0.224896  
     406A      0.226844   407A      0.227082   408A      0.228669  
     409A      0.228957   410A      0.229489   411A      0.230884  
     412A      0.233918   413A      0.235356   414A      0.240459  
     415A      0.240592   416A      0.241929   417A      0.243262  
     418A      0.243855   419A      0.243961   420A      0.244460  
     421A      0.244731   422A      0.251009   423A      0.252523  
     424A      0.253012   425A      0.253401   426A      0.254142  
     427A      0.257789   428A      0.258473   429A      0.258884  
     430A      0.261465   431A      0.261627   432A      0.262281  
     433A      0.263195   434A      0.263858   435A      0.264463  
     436A      0.270194   437A      0.270347   438A      0.272785  
     439A      0.273045   440A      0.273212   441A      0.273964  
     442A      0.274130   443A      0.274303   444A      0.274561  
     445A      0.275217   446A      0.276203   447A      0.276498  
     448A      0.276749   449A      0.277326   450A      0.278767  
     451A      0.279086   452A      0.280330   453A      0.280575  
     454A      0.285102   455A      0.285734   456A      0.291008  
     457A      0.291524   458A      0.292336   459A      0.292681  
     460A      0.293015   461A      0.293049   462A      0.294053  
     463A      0.294402   464A      0.295441   465A      0.296594  
     466A      0.296921   467A      0.299496   468A      0.300538  
     469A      0.303644   470A      0.304985   471A      0.306302  
     472A      0.308528   473A      0.309641   474A      0.310794  
     475A      0.313746   476A      0.315635   477A      0.316556  
     478A      0.316669   479A      0.319787   480A      0.320065  
     481A      0.321312   482A      0.321535   483A      0.322496  
     484A      0.322758   485A      0.324430   486A      0.326001  
     487A      0.328287   488A      0.328393   489A      0.329066  
     490A      0.330965   491A      0.331124   492A      0.333664  
     493A      0.339252   494A      0.339322   495A      0.339687  
     496A      0.341927   497A      0.342391   498A      0.343279  
     499A      0.343312   500A      0.343801   501A      0.344521  
     502A      0.345300   503A      0.345737   504A      0.347279  
     505A      0.348160   506A      0.350396   507A      0.350891  
     508A      0.352019   509A      0.353676   510A      0.355287  
     511A      0.359264   512A      0.360039   513A      0.360774  
     514A      0.360994   515A      0.363403   516A      0.366341  
     517A      0.366837   518A      0.367046   519A      0.367609  
     520A      0.368878   521A      0.369094   522A      0.370062  
     523A      0.370703   524A      0.371669   525A      0.373066  
     526A      0.373683   527A      0.374262   528A      0.375537  
     529A      0.375618   530A      0.375702   531A      0.378551  
     532A      0.379262   533A      0.379457   534A      0.380883  
     535A      0.382256   536A      0.383103   537A      0.385586  
     538A      0.386844   539A      0.387278   540A      0.388988  
     541A      0.389834   542A      0.390063   543A      0.390828  
     544A      0.391691   545A      0.392697   546A      0.393802  
     547A      0.395064   548A      0.396649   549A      0.397004  
     550A      0.397319   551A      0.397795   552A      0.399018  
     553A      0.399910   554A      0.402009   555A      0.403366  
     556A      0.403390   557A      0.404490   558A      0.407491  
     559A      0.408025   560A      0.408609   561A      0.409098  
     562A      0.409404   563A      0.416219   564A      0.416593  
     565A      0.417203   566A      0.418340   567A      0.420560  
     568A      0.423325   569A      0.424265   570A      0.424768  
     571A      0.426146   572A      0.426769   573A      0.427242  
     574A      0.430094   575A      0.432004   576A      0.432400  
     577A      0.434855   578A      0.436147   579A      0.438407  
     580A      0.438678   581A      0.439008   582A      0.439703  
     583A      0.440386   584A      0.441083   585A      0.444639  
     586A      0.445474   587A      0.445937   588A      0.447263  
     589A      0.447875   590A      0.450154   591A      0.451025  
     592A      0.455218   593A      0.456662   594A      0.457548  
     595A      0.458211   596A      0.458706   597A      0.458825  
     598A      0.459257   599A      0.459882   600A      0.460637  
     601A      0.461088   602A      0.461763   603A      0.463348  
     604A      0.463890   605A      0.465235   606A      0.465415  
     607A      0.466199   608A      0.466944   609A      0.467219  
     610A      0.467450   611A      0.471567   612A      0.471989  
     613A      0.472145   614A      0.473117   615A      0.473261  
     616A      0.473532   617A      0.474806   618A      0.475235  
     619A      0.475804   620A      0.476431   621A      0.477281  
     622A      0.477616   623A      0.477932   624A      0.478004  
     625A      0.478057   626A      0.478540   627A      0.482909  
     628A      0.482975   629A      0.483555   630A      0.485540  
     631A      0.486280   632A      0.486687   633A      0.486887  
     634A      0.489027   635A      0.490673   636A      0.490706  
     637A      0.492348   638A      0.493364   639A      0.494875  
     640A      0.498750   641A      0.498800   642A      0.499640  
     643A      0.500864   644A      0.501641   645A      0.502101  
     646A      0.502699   647A      0.503119   648A      0.503947  
     649A      0.504761   650A      0.505715   651A      0.505824  
     652A      0.506125   653A      0.506216   654A      0.506765  
     655A      0.507394   656A      0.510598   657A      0.512019  
     658A      0.514245   659A      0.516988   660A      0.517519  
     661A      0.517861   662A      0.518907   663A      0.519790  
     664A      0.520059   665A      0.520337   666A      0.521074  
     667A      0.522510   668A      0.522745   669A      0.523200  
     670A      0.524093   671A      0.526033   672A      0.526307  
     673A      0.527707   674A      0.529194   675A      0.529929  
     676A      0.531562   677A      0.532375   678A      0.535676  
     679A      0.537315   680A      0.537862   681A      0.539386  
     682A      0.540139   683A      0.540779   684A      0.541447  
     685A      0.543691   686A      0.544269   687A      0.544704  
     688A      0.545634   689A      0.546545   690A      0.546949  
     691A      0.548495   692A      0.549661   693A      0.550444  
     694A      0.550789   695A      0.551525   696A      0.552628  
     697A      0.552979   698A      0.553234   699A      0.555887  
     700A      0.557610   701A      0.558076   702A      0.558382  
     703A      0.558968   704A      0.562127   705A      0.563027  
     706A      0.563879   707A      0.564288   708A      0.565481  
     709A      0.566812   710A      0.567383   711A      0.568236  
     712A      0.568327   713A      0.569281   714A      0.570047  
     715A      0.572883   716A      0.573435   717A      0.575307  
     718A      0.575978   719A      0.578240   720A      0.579474  
     721A      0.580770   722A      0.582963   723A      0.584616  
     724A      0.584906   725A      0.585015   726A      0.586344  
     727A      0.587007   728A      0.587683   729A      0.591046  
     730A      0.591838   731A      0.593172   732A      0.593792  
     733A      0.595427   734A      0.597314   735A      0.600910  
     736A      0.601889   737A      0.602855   738A      0.603625  
     739A      0.609048   740A      0.609646   741A      0.610507  
     742A      0.613579   743A      0.615323   744A      0.616394  
     745A      0.619415   746A      0.622097   747A      0.623418  
     748A      0.625440   749A      0.627853   750A      0.628283  
     751A      0.629179   752A      0.629601   753A      0.631270  
     754A      0.631675   755A      0.632908   756A      0.637195  
     757A      0.638478   758A      0.640239   759A      0.640316  
     760A      0.641254   761A      0.642293   762A      0.642629  
     763A      0.645631   764A      0.647689   765A      0.649084  
     766A      0.649989   767A      0.651608   768A      0.652885  
     769A      0.653318   770A      0.654514   771A      0.655609  
     772A      0.658610   773A      0.663500   774A      0.666254  
     775A      0.668993   776A      0.669671   777A      0.671576  
     778A      0.672802   779A      0.673708   780A      0.673952  
     781A      0.675529   782A      0.677729   783A      0.677928  
     784A      0.681044   785A      0.684028   786A      0.686111  
     787A      0.686176   788A      0.686413   789A      0.687874  
     790A      0.688701   791A      0.692268   792A      0.699478  
     793A      0.702457   794A      0.703564   795A      0.706115  
     796A      0.708612   797A      0.710420   798A      0.714465  
     799A      0.715484   800A      0.716049   801A      0.718660  
     802A      0.722693   803A      0.724456   804A      0.726410  
     805A      0.728215   806A      0.728617   807A      0.730930  
     808A      0.733944   809A      0.734578   810A      0.736476  
     811A      0.737223   812A      0.744397   813A      0.744835  
     814A      0.748077   815A      0.749391   816A      0.752773  
     817A      0.755449   818A      0.757575   819A      0.759271  
     820A      0.759596   821A      0.759952   822A      0.762460  
     823A      0.764179   824A      0.765693   825A      0.767372  
     826A      0.768616   827A      0.769165   828A      0.771581  
     829A      0.776390   830A      0.779353   831A      0.782752  
     832A      0.787365   833A      0.798206   834A      0.799504  
     835A      0.802436   836A      0.804004   837A      0.807506  
     838A      0.809468   839A      0.811739   840A      0.814591  
     841A      0.814922   842A      0.817740   843A      0.820327  
     844A      0.823711   845A      0.825021   846A      0.826982  
     847A      0.829149   848A      0.845551   849A      0.846480  
     850A      0.848983   851A      0.852897   852A      0.856817  
     853A      0.858096   854A      0.859511   855A      0.865805  
     856A      0.866695   857A      0.868268   858A      0.868730  
     859A      0.869972   860A      0.871139   861A      0.872510  
     862A      0.873204   863A      0.878091   864A      0.881684  
     865A      0.882459   866A      0.883207   867A      0.883602  
     868A      0.884237   869A      0.885738   870A      0.889691  
     871A      0.894334   872A      0.895614   873A      0.896495  
     874A      0.900866   875A      0.902942   876A      0.904243  
     877A      0.904707   878A      0.907814   879A      0.911754  
     880A      0.912594   881A      0.913905   882A      0.914982  
     883A      0.919170   884A      0.919734   885A      0.922551  
     886A      0.923867   887A      0.926505   888A      0.928816  
     889A      0.931134   890A      0.931466   891A      0.932729  
     892A      0.933653   893A      0.933804   894A      0.935141  
     895A      0.937276   896A      0.938948   897A      0.941377  
     898A      0.942115   899A      0.944530   900A      0.946088  
     901A      0.947229   902A      0.948171   903A      0.948297  
     904A      0.950452   905A      0.953683   906A      0.954950  
     907A      0.955713   908A      0.956729   909A      0.963250  
     910A      0.963883   911A      0.964540   912A      0.965647  
     913A      0.966170   914A      0.967984   915A      0.972724  
     916A      0.973868   917A      0.975676   918A      0.979596  
     919A      0.980704   920A      0.981480   921A      0.983415  
     922A      0.984238   923A      0.985381   924A      0.986778  
     925A      0.987902   926A      0.990133   927A      0.991145  
     928A      0.991933   929A      0.997145   930A      0.997218  
     931A      0.999228   932A      1.001052   933A      1.002104  
     934A      1.002552   935A      1.005078   936A      1.006186  
     937A      1.007942   938A      1.009213   939A      1.011094  
     940A      1.011485   941A      1.013357   942A      1.014273  
     943A      1.018121   944A      1.019451   945A      1.020002  
     946A      1.020225   947A      1.021276   948A      1.022236  
     949A      1.023094   950A      1.024077   951A      1.024767  
     952A      1.027177   953A      1.028805   954A      1.029317  
     955A      1.031278   956A      1.033086   957A      1.034334  
     958A      1.042267   959A      1.043494   960A      1.048399  
     961A      1.051096   962A      1.052795   963A      1.056779  
     964A      1.058605   965A      1.060167   966A      1.062558  
     967A      1.065481   968A      1.068826   969A      1.069194  
     970A      1.070813   971A      1.072458   972A      1.073230  
     973A      1.074034   974A      1.074444   975A      1.075699  
     976A      1.077584   977A      1.080629   978A      1.082569  
     979A      1.083680   980A      1.085730   981A      1.089112  
     982A      1.089815   983A      1.091643   984A      1.093797  
     985A      1.094346   986A      1.095899   987A      1.096497  
     988A      1.099943   989A      1.104457   990A      1.106673  
     991A      1.112084   992A      1.114930   993A      1.115120  
     994A      1.116273   995A      1.116879   996A      1.117439  
     997A      1.117780   998A      1.118554   999A      1.119976  
    1000A      1.121230  1001A      1.122133  1002A      1.123193  
    1003A      1.126163  1004A      1.127500  1005A      1.129682  
    1006A      1.130782  1007A      1.131750  1008A      1.132184  
    1009A      1.133400  1010A      1.134182  1011A      1.135863  
    1012A      1.136848  1013A      1.139698  1014A      1.139926  
    1015A      1.140135  1016A      1.141325  1017A      1.141640  
    1018A      1.142366  1019A      1.142681  1020A      1.143852  
    1021A      1.145890  1022A      1.146356  1023A      1.148300  
    1024A      1.148520  1025A      1.149457  1026A      1.150634  
    1027A      1.150788  1028A      1.151831  1029A      1.152720  
    1030A      1.152810  1031A      1.153225  1032A      1.153839  
    1033A      1.154205  1034A      1.154844  1035A      1.155822  
    1036A      1.157524  1037A      1.159252  1038A      1.160499  
    1039A      1.161185  1040A      1.163466  1041A      1.164870  
    1042A      1.167737  1043A      1.169299  1044A      1.170882  
    1045A      1.172311  1046A      1.174160  1047A      1.175225  
    1048A      1.175784  1049A      1.176484  1050A      1.177175  
    1051A      1.180932  1052A      1.182568  1053A      1.184135  
    1054A      1.186200  1055A      1.186864  1056A      1.187852  
    1057A      1.189060  1058A      1.190270  1059A      1.192219  
    1060A      1.195279  1061A      1.196392  1062A      1.196771  
    1063A      1.198040  1064A      1.203032  1065A      1.203586  
    1066A      1.205729  1067A      1.207643  1068A      1.209271  
    1069A      1.210000  1070A      1.212848  1071A      1.214070  
    1072A      1.216609  1073A      1.217858  1074A      1.220897  
    1075A      1.222336  1076A      1.222731  1077A      1.224696  
    1078A      1.226363  1079A      1.226813  1080A      1.227936  
    1081A      1.231084  1082A      1.231920  1083A      1.233688  
    1084A      1.236793  1085A      1.239455  1086A      1.240676  
    1087A      1.241981  1088A      1.243233  1089A      1.245186  
    1090A      1.245871  1091A      1.246622  1092A      1.253006  
    1093A      1.253771  1094A      1.254268  1095A      1.257776  
    1096A      1.259535  1097A      1.261042  1098A      1.261477  
    1099A      1.262338  1100A      1.264241  1101A      1.269620  
    1102A      1.271857  1103A      1.275711  1104A      1.276401  
    1105A      1.277073  1106A      1.278665  1107A      1.279962  
    1108A      1.280739  1109A      1.281578  1110A      1.283054  
    1111A      1.283782  1112A      1.286840  1113A      1.288166  
    1114A      1.289167  1115A      1.290046  1116A      1.292557  
    1117A      1.296706  1118A      1.298580  1119A      1.301956  
    1120A      1.304368  1121A      1.305268  1122A      1.316351  
    1123A      1.319487  1124A      1.321707  1125A      1.322332  
    1126A      1.324312  1127A      1.325354  1128A      1.325908  
    1129A      1.328130  1130A      1.332870  1131A      1.332934  
    1132A      1.335778  1133A      1.336735  1134A      1.337446  
    1135A      1.338978  1136A      1.340722  1137A      1.348872  
    1138A      1.349673  1139A      1.355141  1140A      1.358134  
    1141A      1.360080  1142A      1.361246  1143A      1.362032  
    1144A      1.363240  1145A      1.365551  1146A      1.368295  
    1147A      1.372276  1148A      1.373243  1149A      1.373573  
    1150A      1.374864  1151A      1.379454  1152A      1.381429  
    1153A      1.381679  1154A      1.383517  1155A      1.384287  
    1156A      1.386700  1157A      1.387103  1158A      1.387586  
    1159A      1.390647  1160A      1.391989  1161A      1.392756  
    1162A      1.394429  1163A      1.397517  1164A      1.397605  
    1165A      1.400090  1166A      1.401956  1167A      1.402744  
    1168A      1.404543  1169A      1.406908  1170A      1.409860  
    1171A      1.411433  1172A      1.411514  1173A      1.412796  
    1174A      1.426624  1175A      1.426663  1176A      1.427870  
    1177A      1.429993  1178A      1.431035  1179A      1.431636  
    1180A      1.431953  1181A      1.432595  1182A      1.435371  
    1183A      1.442425  1184A      1.443971  1185A      1.444141  
    1186A      1.445461  1187A      1.448368  1188A      1.454382  
    1189A      1.455344  1190A      1.456029  1191A      1.457174  
    1192A      1.459865  1193A      1.460367  1194A      1.461718  
    1195A      1.466445  1196A      1.473233  1197A      1.475134  
    1198A      1.475282  1199A      1.476443  1200A      1.478350  
    1201A      1.478738  1202A      1.479630  1203A      1.480664  
    1204A      1.481292  1205A      1.487206  1206A      1.489093  
    1207A      1.491171  1208A      1.491627  1209A      1.492736  
    1210A      1.498328  1211A      1.500866  1212A      1.501749  
    1213A      1.502898  1214A      1.503891  1215A      1.504397  
    1216A      1.507559  1217A      1.511111  1218A      1.512604  
    1219A      1.513167  1220A      1.514195  1221A      1.514602  
    1222A      1.518492  1223A      1.522477  1224A      1.523399  
    1225A      1.524150  1226A      1.528297  1227A      1.529390  
    1228A      1.531458  1229A      1.536967  1230A      1.538077  
    1231A      1.539491  1232A      1.542335  1233A      1.546083  
    1234A      1.547990  1235A      1.551988  1236A      1.553436  
    1237A      1.554224  1238A      1.555614  1239A      1.558973  
    1240A      1.564401  1241A      1.565672  1242A      1.569711  
    1243A      1.569862  1244A      1.573373  1245A      1.576739  
    1246A      1.584522  1247A      1.586757  1248A      1.588966  
    1249A      1.590995  1250A      1.607568  1251A      1.608227  
    1252A      1.611063  1253A      1.621297  1254A      1.621709  
    1255A      1.625090  1256A      1.652047  1257A      1.655131  
    1258A      1.659050  1259A      1.665358  1260A      1.674144  
    1261A      1.677304  1262A      1.678570  1263A      1.679900  
    1264A      1.680559  1265A      1.681610  1266A      1.684181  
    1267A      1.685222  1268A      1.688016  1269A      1.688383  
    1270A      1.688809  1271A      1.689265  1272A      1.690400  
    1273A      1.691609  1274A      1.693281  1275A      1.694000  
    1276A      1.695192  1277A      1.698344  1278A      1.698679  
    1279A      1.700621  1280A      1.702654  1281A      1.703557  
    1282A      1.704855  1283A      1.705522  1284A      1.707434  
    1285A      1.709025  1286A      1.710403  1287A      1.712184  
    1288A      1.712715  1289A      1.713706  1290A      1.715270  
    1291A      1.719005  1292A      1.719308  1293A      1.720153  
    1294A      1.722055  1295A      1.723262  1296A      1.724516  
    1297A      1.726590  1298A      1.727531  1299A      1.729569  
    1300A      1.730022  1301A      1.732001  1302A      1.733654  
    1303A      1.735948  1304A      1.740523  1305A      1.740990  
    1306A      1.741893  1307A      1.742555  1308A      1.744551  
    1309A      1.747421  1310A      1.749250  1311A      1.751333  
    1312A      1.752564  1313A      1.754878  1314A      1.758024  
    1315A      1.761564  1316A      1.762794  1317A      1.763887  
    1318A      1.764995  1319A      1.770710  1320A      1.771877  
    1321A      1.772258  1322A      1.773474  1323A      1.782500  
    1324A      1.783448  1325A      1.785023  1326A      1.785068  
    1327A      1.786098  1328A      1.787875  1329A      1.794021  
    1330A      1.794854  1331A      1.795477  1332A      1.797949  
    1333A      1.798588  1334A      1.798915  1335A      1.801416  
    1336A      1.808388  1337A      1.815019  1338A      1.820559  
    1339A      1.820972  1340A      1.822573  1341A      1.823770  
    1342A      1.835992  1343A      1.837363  1344A      1.843589  
    1345A      1.849061  1346A      1.849866  1347A      1.851124  
    1348A      1.854067  1349A      1.861447  1350A      1.878237  
    1351A      1.879195  1352A      1.887368  1353A      1.892775  
    1354A      1.895031  1355A      1.896408  1356A      1.896994  
    1357A      1.899439  1358A      1.901084  1359A      1.901509  
    1360A      1.902494  1361A      1.903960  1362A      1.904203  
    1363A      1.913651  1364A      1.916613  1365A      1.917704  
    1366A      1.920894  1367A      1.921426  1368A      1.922963  
    1369A      1.923142  1370A      1.930898  1371A      1.932693  
    1372A      1.934874  1373A      1.935573  1374A      1.935941  
    1375A      1.937540  1376A      1.939901  1377A      1.941135  
    1378A      1.942715  1379A      1.943220  1380A      1.943691  
    1381A      1.944389  1382A      1.948617  1383A      1.950220  
    1384A      1.952488  1385A      1.954703  1386A      1.955762  
    1387A      1.958484  1388A      1.960597  1389A      1.961522  
    1390A      1.963242  1391A      1.964119  1392A      1.971382  
    1393A      1.973054  1394A      1.974054  1395A      1.976052  
    1396A      1.976367  1397A      1.978275  1398A      1.985959  
    1399A      1.989637  1400A      1.991466  1401A      1.993832  
    1402A      1.995908  1403A      1.997593  1404A      2.000656  
    1405A      2.000997  1406A      2.001515  1407A      2.003277  
    1408A      2.004132  1409A      2.008995  1410A      2.011310  
    1411A      2.013062  1412A      2.013894  1413A      2.014726  
    1414A      2.014894  1415A      2.016841  1416A      2.018657  
    1417A      2.020774  1418A      2.024050  1419A      2.027219  
    1420A      2.027945  1421A      2.029769  1422A      2.032953  
    1423A      2.033415  1424A      2.036334  1425A      2.037990  
    1426A      2.040170  1427A      2.040636  1428A      2.042138  
    1429A      2.044817  1430A      2.046821  1431A      2.049329  
    1432A      2.054332  1433A      2.055129  1434A      2.058836  
    1435A      2.060061  1436A      2.060390  1437A      2.062205  
    1438A      2.064739  1439A      2.068181  1440A      2.070533  
    1441A      2.071599  1442A      2.073401  1443A      2.075935  
    1444A      2.078483  1445A      2.083896  1446A      2.085302  
    1447A      2.087211  1448A      2.088927  1449A      2.091256  
    1450A      2.092015  1451A      2.093034  1452A      2.093412  
    1453A      2.094263  1454A      2.094871  1455A      2.096275  
    1456A      2.100328  1457A      2.102162  1458A      2.102603  
    1459A      2.104280  1460A      2.106236  1461A      2.107313  
    1462A      2.107358  1463A      2.108359  1464A      2.109269  
    1465A      2.114966  1466A      2.121275  1467A      2.121651  
    1468A      2.123635  1469A      2.127680  1470A      2.129911  
    1471A      2.130720  1472A      2.131907  1473A      2.136577  
    1474A      2.137473  1475A      2.138729  1476A      2.140459  
    1477A      2.141306  1478A      2.145047  1479A      2.146089  
    1480A      2.148678  1481A      2.150189  1482A      2.151951  
    1483A      2.152755  1484A      2.154338  1485A      2.155367  
    1486A      2.155836  1487A      2.156539  1488A      2.156726  
    1489A      2.158019  1490A      2.158547  1491A      2.159705  
    1492A      2.159743  1493A      2.160416  1494A      2.161591  
    1495A      2.162704  1496A      2.164249  1497A      2.168500  
    1498A      2.170116  1499A      2.171295  1500A      2.171826  
    1501A      2.173441  1502A      2.176404  1503A      2.179334  
    1504A      2.182246  1505A      2.182677  1506A      2.184945  
    1507A      2.185552  1508A      2.186670  1509A      2.187531  
    1510A      2.187812  1511A      2.188104  1512A      2.190244  
    1513A      2.191243  1514A      2.194195  1515A      2.195582  
    1516A      2.195940  1517A      2.197692  1518A      2.199470  
    1519A      2.200952  1520A      2.201977  1521A      2.202903  
    1522A      2.205187  1523A      2.208841  1524A      2.210506  
    1525A      2.211019  1526A      2.213265  1527A      2.213616  
    1528A      2.216553  1529A      2.217212  1530A      2.218187  
    1531A      2.222136  1532A      2.223826  1533A      2.228365  
    1534A      2.229003  1535A      2.229770  1536A      2.231495  
    1537A      2.232415  1538A      2.233567  1539A      2.235749  
    1540A      2.237075  1541A      2.238911  1542A      2.239576  
    1543A      2.242453  1544A      2.246127  1545A      2.249775  
    1546A      2.251448  1547A      2.252692  1548A      2.253849  
    1549A      2.254800  1550A      2.260434  1551A      2.264006  
    1552A      2.265707  1553A      2.268033  1554A      2.268571  
    1555A      2.270504  1556A      2.271341  1557A      2.271758  
    1558A      2.272557  1559A      2.273216  1560A      2.274789  
    1561A      2.278589  1562A      2.279965  1563A      2.281423  
    1564A      2.283137  1565A      2.287985  1566A      2.290417  
    1567A      2.291299  1568A      2.292856  1569A      2.293864  
    1570A      2.295824  1571A      2.296772  1572A      2.298323  
    1573A      2.298958  1574A      2.300972  1575A      2.301650  
    1576A      2.303878  1577A      2.304636  1578A      2.305819  
    1579A      2.310766  1580A      2.312711  1581A      2.315300  
    1582A      2.315530  1583A      2.317917  1584A      2.322996  
    1585A      2.325551  1586A      2.328721  1587A      2.335434  
    1588A      2.337846  1589A      2.338429  1590A      2.339874  
    1591A      2.343059  1592A      2.345265  1593A      2.351977  
    1594A      2.352853  1595A      2.353806  1596A      2.355967  
    1597A      2.361989  1598A      2.363741  1599A      2.365165  
    1600A      2.368665  1601A      2.371276  1602A      2.373250  
    1603A      2.377588  1604A      2.379505  1605A      2.393960  
    1606A      2.395456  1607A      2.398222  1608A      2.399292  
    1609A      2.400003  1610A      2.401440  1611A      2.404447  
    1612A      2.407142  1613A      2.407706  1614A      2.409564  
    1615A      2.409972  1616A      2.411644  1617A      2.413216  
    1618A      2.415387  1619A      2.415768  1620A      2.416109  
    1621A      2.417166  1622A      2.420550  1623A      2.427808  
    1624A      2.428762  1625A      2.439737  1626A      2.443494  
    1627A      2.452275  1628A      2.455102  1629A      2.458810  
    1630A      2.464512  1631A      2.467014  1632A      2.469967  
    1633A      2.480886  1634A      2.484080  1635A      2.487955  
    1636A      2.489077  1637A      2.496744  1638A      2.499537  
    1639A      2.500065  1640A      2.510227  1641A      2.514331  
    1642A      2.521796  1643A      2.526593  1644A      2.531203  
    1645A      2.534203  1646A      2.536566  1647A      2.537310  
    1648A      2.539050  1649A      2.541334  1650A      2.542471  
    1651A      2.558778  1652A      2.559957  1653A      2.563193  
    1654A      2.569855  1655A      2.574781  1656A      2.577355  
    1657A      2.579048  1658A      2.588521  1659A      2.600286  
    1660A      2.604818  1661A      2.610827  1662A      2.612313  
    1663A      2.613405  1664A      2.613737  1665A      2.615568  
    1666A      2.617104  1667A      2.620742  1668A      2.626067  
    1669A      2.631993  1670A      2.633285  1671A      2.634931  
    1672A      2.638314  1673A      2.639553  1674A      2.641368  
    1675A      2.649084  1676A      2.649936  1677A      2.650816  
    1678A      2.653006  1679A      2.654888  1680A      2.655071  
    1681A      2.657091  1682A      2.658813  1683A      2.662761  
    1684A      2.671705  1685A      2.674628  1686A      2.679623  
    1687A      2.683012  1688A      2.683580  1689A      2.685002  
    1690A      2.686890  1691A      2.689610  1692A      2.703252  
    1693A      2.704767  1694A      2.712053  1695A      2.717149  
    1696A      2.717199  1697A      2.719135  1698A      2.720099  
    1699A      2.720264  1700A      2.723239  1701A      2.724424  
    1702A      2.726194  1703A      2.729343  1704A      2.737319  
    1705A      2.738795  1706A      2.741871  1707A      2.742339  
    1708A      2.743453  1709A      2.746782  1710A      2.749016  
    1711A      2.751502  1712A      2.758622  1713A      2.761788  
    1714A      2.762461  1715A      2.762868  1716A      2.763282  
    1717A      2.765156  1718A      2.767042  1719A      2.768365  
    1720A      2.777006  1721A      2.790672  1722A      2.791843  
    1723A      2.797894  1724A      2.798731  1725A      2.799060  
    1726A      2.802220  1727A      2.806236  1728A      2.825828  
    1729A      2.841731  1730A      2.848218  1731A      2.853250  
    1732A      2.856478  1733A      2.858924  1734A      2.866404  
    1735A      2.873733  1736A      2.874380  1737A      2.875450  
    1738A      2.876102  1739A      2.883539  1740A      2.887964  
    1741A      2.889872  1742A      2.891216  1743A      2.892786  
    1744A      2.894990  1745A      2.899843  1746A      2.905715  
    1747A      2.913544  1748A      2.914581  1749A      2.916304  
    1750A      2.917645  1751A      2.921013  1752A      2.933741  
    1753A      2.938661  1754A      2.939578  1755A      2.941576  
    1756A      2.943808  1757A      2.946920  1758A      2.971165  
    1759A      2.974397  1760A      2.975183  1761A      2.984913  
    1762A      2.985326  1763A      2.993772  1764A      2.995505  
    1765A      2.999963  1766A      3.004286  1767A      3.011147  
    1768A      3.031135  1769A      3.033913  1770A      3.034108  
    1771A      3.044674  1772A      3.060999  1773A      3.067677  
    1774A      3.093065  1775A      3.100331  1776A      3.104768  
    1777A      3.108193  1778A      3.111744  1779A      3.120463  
    1780A      3.122819  1781A      3.129125  1782A      3.130407  
    1783A      3.132405  1784A      3.133139  1785A      3.144925  
    1786A      3.177504  1787A      3.178466  1788A      3.181924  
    1789A      3.193320  1790A      3.199323  1791A      3.199570  
    1792A      3.209359  1793A      3.210170  1794A      3.211016  
    1795A      3.212017  1796A      3.219933  1797A      3.220662  
    1798A      3.221378  1799A      3.221902  1800A      3.224600  
    1801A      3.228533  1802A      3.239712  1803A      3.243892  
    1804A      3.246561  1805A      3.249788  1806A      3.260548  
    1807A      3.261805  1808A      3.287204  1809A      3.328245  
    1810A      3.330237  1811A      3.331096  1812A      3.332345  
    1813A      3.334002  1814A      3.335332  1815A      3.341288  
    1816A      3.344304  1817A      3.345362  1818A      3.345906  
    1819A      3.361659  1820A      3.370641  1821A      3.376449  
    1822A      3.383686  1823A      3.392323  1824A      3.410629  
    1825A      3.436875  1826A      3.437471  1827A      3.472359  
    1828A      3.492470  1829A      3.499595  1830A      3.526580  
    1831A      3.533113  1832A      3.537293  1833A      3.540993  
    1834A      3.546900  1835A      3.547371  1836A      3.555508  
    1837A      3.556557  1838A      3.560972  1839A      3.567126  
    1840A      3.587128  1841A      3.598179  1842A      3.603782  
    1843A      3.629465  1844A      3.649061  1845A      3.655465  
    1846A      3.660454  1847A      3.661480  1848A      3.701693  
    1849A      3.720254  1850A      3.740523  1851A      3.746645  
    1852A      3.763375  1853A      3.787419  1854A      3.827662  
    1855A      3.831015  1856A      3.835566  1857A      3.847781  
    1858A      3.848582  1859A      3.866414  1860A      3.916011  
    1861A      3.921321  1862A      3.944696  1863A      3.950683  
    1864A      3.991083  1865A      3.994818  1866A      4.014137  
    1867A      4.020343  1868A      4.020924  1869A      4.036917  
    1870A      4.041216  1871A      4.049037  1872A      4.077135  
    1873A      4.100749  1874A      4.104296  1875A      4.142271  
    1876A      4.161090  1877A      4.165788  1878A      4.180458  
    1879A      4.181428  1880A      4.184552  1881A      4.226995  
    1882A      4.241358  1883A      4.250495  1884A      4.262081  
    1885A      4.287968  1886A      4.321739  1887A      4.395581  
    1888A      4.423893  1889A      4.455786  1890A      4.488666  
    1891A      4.570047  1892A      4.630183  1893A      4.650685  
    1894A      4.659572  1895A      4.666938  1896A      4.720666  
    1897A      4.754301  1898A      4.768792  

    Final Occupation by Irrep:
              A 
    DOCC [   321 ]
    NA   [   321 ]
    NB   [   321 ]

  @DF-RHF Final Energy: -4073.06554857466290

   => Energetics <=

    Nuclear Repulsion Energy =          17857.7164501150655269
    One-Electron Energy =              -41205.7735804790063412
    Two-Electron Energy =               19274.9915817892760970
    Total Energy =                      -4073.0655485746647173

Computation Completed


Properties will be evaluated at   0.000000,   0.000000,   0.000000 [a0]

Properties computed using the SCF density matrix


 Multipole Moments:

 ------------------------------------------------------------------------------------
     Multipole            Electronic (a.u.)      Nuclear  (a.u.)        Total (a.u.)
 ------------------------------------------------------------------------------------

 L = 1.  Multiply by 2.5417464519 to convert [e a0] to [Debye]
 Dipole X            :          0.0017040           -0.0001188            0.0015852
 Dipole Y            :          0.0012851           -0.0002727            0.0010124
 Dipole Z            :         14.3935601          -17.8538127           -3.4602525
 Magnitude           :                                                    3.4602530

 ------------------------------------------------------------------------------------

*** tstop() called on n2cn0993 at Sat Jan 27 14:40:58 2024
Module time:
	user time   =   24587.46 seconds =     409.79 minutes
	system time =    1328.69 seconds =      22.14 minutes
	total time  =      11724 seconds =     195.40 minutes
Total time:
	user time   =   24587.46 seconds =     409.79 minutes
	system time =    1328.69 seconds =      22.14 minutes
	total time  =      11724 seconds =     195.40 minutes

  //>>>>>>>>>>>>>>>>>>>>>>>>>>>>>>>>>>>//
  //            Monomer A HF           //
  //<<<<<<<<<<<<<<<<<<<<<<<<<<<<<<<<<<<//

   => Libint2 <=

    Primary   basis highest AM E, G, H:  5, 4, 3
    Auxiliary basis highest AM E, G, H:  6, 5, 4
    Onebody   basis highest AM E, G, H:  6, 5, 4
    Solid Harmonics ordering:            gaussian

*** tstart() called on n2cn0993
*** at Sat Jan 27 14:40:58 2024

   => Loading Basis Set <=

    Name: JUN-CC-PVDZ
    Role: ORBITAL
    Keyword: BASIS
    atoms 1                                                   entry B          line   130 file /opt/software/pc2/EB-SW/software/PSI4/1.9-foss-2022a/share/psi4/basis/jun-cc-pvdz.gbs 
    atoms 2-5                                                 entry F          line   266 file /opt/software/pc2/EB-SW/software/PSI4/1.9-foss-2022a/share/psi4/basis/jun-cc-pvdz.gbs 
    atoms 6-23, 30-42, 45-59, 62-78, 81-93, 98-108, 111-119   entry C          line   164 file /opt/software/pc2/EB-SW/software/PSI4/1.9-foss-2022a/share/psi4/basis/jun-cc-pvdz.gbs 
    atoms 24-29, 43-44, 60-61, 79-80, 94-97, 109-110, 120-125 entry H          line    36 file /opt/software/pc2/EB-SW/software/PSI4/1.9-foss-2022a/share/psi4/basis/jun-cc-pvdz.gbs 


         ---------------------------------------------------------
                                   SCF
               by Justin Turney, Rob Parrish, Andy Simmonett
                          and Daniel G. A. Smith
                              RHF Reference
                       16 Threads,  61035 MiB Core
         ---------------------------------------------------------

  ==> Geometry <==

    Molecular point group: c1
    Full point group: C1

    Geometry (in Angstrom), charge = -1, multiplicity = 1:

       Center              X                  Y                   Z               Mass       
    ------------   -----------------  -----------------  -----------------  -----------------
         B           -0.000050191042     0.000351518223     2.793364337427    11.009305360000
         F           -1.153601191042     0.000062518223     3.609011337427    18.998403162730
         F            1.153656808958    -0.000566481777     3.609011337427    18.998403162730
         F           -0.000023191042    -1.153622481777     1.977730337427    18.998403162730
         F           -0.000023191042     1.153992518223     1.977730337427    18.998403162730
      Gh(C)          -3.668445455062     7.803766688305    -0.204729621237    12.000000000000
      Gh(C)          -4.847602910388     7.131256349563    -0.207096196170    12.000000000000
      Gh(C)          -4.894963490217     5.696344921754    -0.207669107268    12.000000000000
      Gh(C)          -3.653744869815     4.980744859182    -0.200008665539    12.000000000000
      Gh(C)          -2.409429312536     7.113995554897    -0.204535278977    12.000000000000
      Gh(C)          -2.425481535146     5.681136469126    -0.211540167847    12.000000000000
      Gh(C)          -1.194748207477     7.786158712532    -0.203063098435    12.000000000000
      Gh(C)           0.037954837895     7.099436163980    -0.205233802740    12.000000000000
      Gh(C)           0.030328396378     5.669504077927    -0.210717187656    12.000000000000
      Gh(C)          -1.200988698947     4.969284866138    -0.201747453722    12.000000000000
      Gh(C)           1.277953634773     7.772873961417    -0.203857954180    12.000000000000
      Gh(C)           2.485353893683     7.087711403460    -0.206132442084    12.000000000000
      Gh(C)           2.486124493876     5.654785328463    -0.213070191072    12.000000000000
      Gh(C)           1.254078728602     4.956092631887    -0.201442249484    12.000000000000
      Gh(C)           3.751710400364     7.763926669203    -0.206005590704    12.000000000000
      Gh(C)           4.923561865144     7.078795295213    -0.208062071412    12.000000000000
      Gh(C)           4.955603080284     5.643461981592    -0.208222484219    12.000000000000
      Gh(C)           3.706797343163     4.941224726556    -0.203130924049    12.000000000000
      Gh(H)          -3.658525328800     8.890841937358    -0.203044632987     1.007825032230
      Gh(H)          -1.189217520798     8.874135605583    -0.199091221994     1.007825032230
      Gh(H)           1.284290047845     8.860847953711    -0.199699130039     1.007825032230
      Gh(H)           3.753537895758     8.851049797195    -0.204483066388     1.007825032230
      Gh(H)           5.869954512165     7.613809352878    -0.208987438454     1.007825032230
      Gh(H)          -5.788235898544     7.676316731157    -0.208656043526     1.007825032230
[...]
    1513A      2.143577  1514A      2.144572  1515A      2.145155  
    1516A      2.146590  1517A      2.151387  1518A      2.157707  
    1519A      2.158919  1520A      2.160911  1521A      2.161528  
    1522A      2.162449  1523A      2.163276  1524A      2.163567  
    1525A      2.165157  1526A      2.169634  1527A      2.170608  
    1528A      2.171367  1529A      2.172944  1530A      2.177562  
    1531A      2.179719  1532A      2.181605  1533A      2.183138  
    1534A      2.183789  1535A      2.190380  1536A      2.193251  
    1537A      2.194453  1538A      2.195778  1539A      2.196811  
    1540A      2.198631  1541A      2.202167  1542A      2.202910  
    1543A      2.203923  1544A      2.204927  1545A      2.206767  
    1546A      2.207649  1547A      2.208580  1548A      2.211547  
    1549A      2.215963  1550A      2.216046  1551A      2.220419  
    1552A      2.220951  1553A      2.222953  1554A      2.226735  
    1555A      2.228065  1556A      2.228467  1557A      2.229769  
    1558A      2.231574  1559A      2.232124  1560A      2.232594  
    1561A      2.233459  1562A      2.235681  1563A      2.239470  
    1564A      2.242701  1565A      2.246979  1566A      2.247920  
    1567A      2.249436  1568A      2.253674  1569A      2.260872  
    1570A      2.261126  1571A      2.265668  1572A      2.269784  
    1573A      2.271507  1574A      2.272673  1575A      2.275857  
    1576A      2.277373  1577A      2.280650  1578A      2.284167  
    1579A      2.290622  1580A      2.293899  1581A      2.294857  
    1582A      2.297294  1583A      2.297943  1584A      2.304063  
    1585A      2.305068  1586A      2.309643  1587A      2.316657  
    1588A      2.323814  1589A      2.325653  1590A      2.328126  
    1591A      2.329505  1592A      2.330565  1593A      2.330837  
    1594A      2.333046  1595A      2.335669  1596A      2.336116  
    1597A      2.337636  1598A      2.339957  1599A      2.341575  
    1600A      2.342516  1601A      2.343700  1602A      2.344837  
    1603A      2.346570  1604A      2.346910  1605A      2.349000  
    1606A      2.351631  1607A      2.353286  1608A      2.375510  
    1609A      2.376201  1610A      2.384521  1611A      2.385844  
    1612A      2.389838  1613A      2.393198  1614A      2.403762  
    1615A      2.409627  1616A      2.418155  1617A      2.420880  
    1618A      2.423534  1619A      2.426736  1620A      2.428032  
    1621A      2.440723  1622A      2.444132  1623A      2.446454  
    1624A      2.453320  1625A      2.457946  1626A      2.465427  
    1627A      2.466708  1628A      2.468453  1629A      2.468836  
    1630A      2.472063  1631A      2.472439  1632A      2.491890  
    1633A      2.492394  1634A      2.497840  1635A      2.503151  
    1636A      2.506518  1637A      2.509907  1638A      2.512794  
    1639A      2.517400  1640A      2.523735  1641A      2.540391  
    1642A      2.541405  1643A      2.541951  1644A      2.543494  
    1645A      2.547663  1646A      2.548449  1647A      2.549851  
    1648A      2.552883  1649A      2.554483  1650A      2.556867  
    1651A      2.557292  1652A      2.564330  1653A      2.567878  
    1654A      2.571745  1655A      2.571934  1656A      2.582919  
    1657A      2.585682  1658A      2.585882  1659A      2.586999  
    1660A      2.588327  1661A      2.589740  1662A      2.593301  
    1663A      2.594414  1664A      2.595582  1665A      2.602807  
    1666A      2.605938  1667A      2.613839  1668A      2.614480  
    1669A      2.615143  1670A      2.615639  1671A      2.617234  
    1672A      2.620883  1673A      2.634631  1674A      2.642129  
    1675A      2.643034  1676A      2.646641  1677A      2.647783  
    1678A      2.649920  1679A      2.651091  1680A      2.652869  
    1681A      2.653922  1682A      2.656527  1683A      2.658098  
    1684A      2.666318  1685A      2.669738  1686A      2.670954  
    1687A      2.671708  1688A      2.672347  1689A      2.674655  
    1690A      2.680369  1691A      2.681950  1692A      2.687243  
    1693A      2.690356  1694A      2.691553  1695A      2.691806  
    1696A      2.693407  1697A      2.694446  1698A      2.695268  
    1699A      2.697714  1700A      2.703892  1701A      2.712237  
    1702A      2.724585  1703A      2.728809  1704A      2.730979  
    1705A      2.731268  1706A      2.731903  1707A      2.733329  
    1708A      2.754263  1709A      2.766991  1710A      2.774628  
    1711A      2.780610  1712A      2.781272  1713A      2.784533  
    1714A      2.792203  1715A      2.799961  1716A      2.800959  
    1717A      2.802384  1718A      2.802423  1719A      2.808190  
    1720A      2.814181  1721A      2.815179  1722A      2.815508  
    1723A      2.817258  1724A      2.818603  1725A      2.826749  
    1726A      2.831136  1727A      2.836851  1728A      2.842178  
    1729A      2.843143  1730A      2.846110  1731A      2.848418  
    1732A      2.849692  1733A      2.864938  1734A      2.865946  
    1735A      2.866063  1736A      2.871399  1737A      2.872014  
    1738A      2.876967  1739A      2.894439  1740A      2.896201  
    1741A      2.897342  1742A      2.918098  1743A      2.918348  
    1744A      2.927418  1745A      2.929126  1746A      2.932732  
    1747A      2.935307  1748A      2.936966  1749A      2.962450  
    1750A      2.964721  1751A      2.966637  1752A      2.966985  
    1753A      2.976386  1754A      2.992340  1755A      3.007107  
    1756A      3.025035  1757A      3.030247  1758A      3.036200  
    1759A      3.040626  1760A      3.047427  1761A      3.049246  
    1762A      3.055456  1763A      3.056879  1764A      3.058066  
    1765A      3.060533  1766A      3.068918  1767A      3.073810  
    1768A      3.110217  1769A      3.112183  1770A      3.114720  
    1771A      3.123988  1772A      3.129416  1773A      3.130419  
    1774A      3.140093  1775A      3.142832  1776A      3.143546  
    1777A      3.145897  1778A      3.150524  1779A      3.151668  
    1780A      3.154596  1781A      3.156152  1782A      3.157785  
    1783A      3.162255  1784A      3.169824  1785A      3.173295  
    1786A      3.178901  1787A      3.183392  1788A      3.193578  
    1789A      3.196920  1790A      3.222990  1791A      3.261921  
    1792A      3.262684  1793A      3.264057  1794A      3.264485  
    1795A      3.265156  1796A      3.267084  1797A      3.274029  
    1798A      3.276648  1799A      3.277559  1800A      3.279171  
    1801A      3.298359  1802A      3.303446  1803A      3.313762  
    1804A      3.314851  1805A      3.362785  1806A      3.363285  
    1807A      3.400138  1808A      3.419921  1809A      3.449697  
    1810A      3.455918  1811A      3.460999  1812A      3.465033  
    1813A      3.467313  1814A      3.470385  1815A      3.478424  
    1816A      3.479152  1817A      3.482115  1818A      3.487249  
    1819A      3.505054  1820A      3.513180  1821A      3.523522  
    1822A      3.551589  1823A      3.572419  1824A      3.580763  
    1825A      3.585283  1826A      3.591075  1827A      3.642599  
    1828A      3.645490  1829A      3.669007  1830A      3.674839  
    1831A      3.690444  1832A      3.713474  1833A      3.758965  
    1834A      3.762104  1835A      3.771481  1836A      3.778728  
    1837A      3.778964  1838A      3.846265  1839A      3.847662  
    1840A      3.865359  1841A      3.873661  1842A      3.888666  
    1843A      3.921381  1844A      3.925536  1845A      3.949458  
    1846A      3.949912  1847A      3.953405  1848A      3.969266  
    1849A      3.974012  1850A      3.985832  1851A      4.024863  
    1852A      4.027711  1853A      4.046236  1854A      4.114915  
    1855A      4.273605  1856A      4.342073  1857A      4.400447  
    1858A      4.450479  1859A      4.523646  1860A      4.666742  
    1861A      4.723279  1862A      5.761958  1863A      5.765034  
    1864A      5.774245  1865A      5.784393  1866A      5.791130  
    1867A      5.798687  1868A      5.838934  1869A      5.852062  
    1870A      5.857199  1871A      5.862855  1872A      5.897636  
    1873A      6.044872  1874A      6.059027  1875A      6.088878  
    1876A      6.226386  1877A      6.339862  1878A      6.345839  
    1879A      6.402624  1880A      6.405206  1881A      6.406888  
    1882A      7.299888  1883A      7.344319  1884A      7.381067  
    1885A      7.383320  1886A      7.551224  1887A      7.605563  
    1888A      7.611317  1889A      7.658723  1890A      7.674714  
    1891A      7.685304  1892A      7.887197  1893A      7.958601  
    1894A     12.874539  1895A     42.938236  1896A     42.966757  
    1897A     42.994803  1898A     42.999036  

    Final Occupation by Irrep:
              A 
    DOCC [   300 ]
    NA   [   300 ]
    NB   [   300 ]

  @DF-RHF Final Energy: -3650.34020686171016

   => Energetics <=

    Nuclear Repulsion Energy =          15611.4211649754324753
    One-Electron Energy =              -36072.1529790240529110
    Two-Electron Energy =               16810.3916071869098232
    Total Energy =                      -3650.3402068617106124

Computation Completed


Properties will be evaluated at   0.000000,   0.000000,   0.000000 [a0]

Properties computed using the SCF density matrix


 Multipole Moments:

 ------------------------------------------------------------------------------------
     Multipole            Electronic (a.u.)      Nuclear  (a.u.)        Total (a.u.)
 ------------------------------------------------------------------------------------

 L = 1.  Multiply by 2.5417464519 to convert [e a0] to [Debye]
 Dipole X            :          0.0002752            0.0001983            0.0004736
 Dipole Y            :          0.0013867           -0.0013163            0.0000704
 Dipole Z            :        234.2808320         -234.2806911            0.0001409
 Magnitude           :                                                    0.0004991

 ------------------------------------------------------------------------------------

*** tstop() called on n2cn0993 at Sat Jan 27 18:56:58 2024
Module time:
	user time   =   16824.36 seconds =     280.41 minutes
	system time =    1095.36 seconds =      18.26 minutes
	total time  =      11822 seconds =     197.03 minutes
Total time:
	user time   =   45682.12 seconds =     761.37 minutes
	system time =    2736.08 seconds =      45.60 minutes
	total time  =      27084 seconds =     451.40 minutes
  Constructing Basis Sets for SAPT...

   => Loading Basis Set <=

    Name: (JUN-CC-PVDZ AUX)
    Role: RIFIT
    Keyword: DF_BASIS_SAPT
    atoms 1                                                   entry B          line    56 file /opt/software/pc2/EB-SW/software/PSI4/1.9-foss-2022a/share/psi4/basis/jun-cc-pvdz-ri.gbs 
    atoms 2-5                                                 entry F          line   232 file /opt/software/pc2/EB-SW/software/PSI4/1.9-foss-2022a/share/psi4/basis/jun-cc-pvdz-ri.gbs 
    atoms 6-23, 30-42, 45-59, 62-78, 81-93, 98-108, 111-119   entry C          line   100 file /opt/software/pc2/EB-SW/software/PSI4/1.9-foss-2022a/share/psi4/basis/jun-cc-pvdz-ri.gbs 
    atoms 24-29, 43-44, 60-61, 79-80, 94-97, 109-110, 120-125 entry H          line    30 file /opt/software/pc2/EB-SW/software/PSI4/1.9-foss-2022a/share/psi4/basis/jun-cc-pvdz-ri.gbs 

   => Loading Basis Set <=

    Name: (JUN-CC-PVDZ AUX)
    Role: JKFIT
    Keyword: DF_BASIS_ELST
    atoms 1                                                   entry B          line    90 file /opt/software/pc2/EB-SW/software/PSI4/1.9-foss-2022a/share/psi4/basis/jun-cc-pvdz-jkfit.gbs 
    atoms 2-5                                                 entry F          line   314 file /opt/software/pc2/EB-SW/software/PSI4/1.9-foss-2022a/share/psi4/basis/jun-cc-pvdz-jkfit.gbs 
    atoms 6-23, 30-42, 45-59, 62-78, 81-93, 98-108, 111-119   entry C          line   146 file /opt/software/pc2/EB-SW/software/PSI4/1.9-foss-2022a/share/psi4/basis/jun-cc-pvdz-jkfit.gbs 
    atoms 24-29, 43-44, 60-61, 79-80, 94-97, 109-110, 120-125 entry H          line    70 file /opt/software/pc2/EB-SW/software/PSI4/1.9-foss-2022a/share/psi4/basis/jun-cc-pvdz-jkfit.gbs 


  //>>>>>>>>>>>>>>>>>>>>>>>>>>>>>>>>>>>//
  //               SSAPT0              //
  //<<<<<<<<<<<<<<<<<<<<<<<<<<<<<<<<<<<//


*** tstart() called on n2cn0993
*** at Sat Jan 27 18:57:01 2024

        SAPT0  
    Ed Hohenstein
     6 June 2009

      Orbital Information
  --------------------------
    NSO        =      1938
    NMO        =      1898
    NRI        =      6901
    NRI (Elst) =      8531
    NOCC A     =        21
    NOCC B     =       300
    FOCC A     =         5
    FOCC B     =        96
    NVIR A     =      1877
    NVIR B     =      1598

    Elst10,r            =    -0.044993081619 [Eh]
    Exch10              =     0.132681553379 [Eh]
    Exch10 (S^2)        =     0.129969310933 [Eh]

    Iter     Energy [mEh]          dE [mEh]         Residual      Time [s]
       1     -17.83360534      17.833605336      28.608255067           880
       2     -22.17954443       4.345939095      13.141851872          1678
       3     -23.12484129       0.945296863       2.066657524          2374
       4     -23.05068924      -0.074152057       0.655030693          3134
       5     -23.03795836      -0.012730875       0.146798197          3679
       6     -23.03951654       0.001558174       0.045033791          4579
       7     -23.04068996       0.001173421       0.008501447          5237
       8     -23.04048406      -0.000205901       0.001554755          5939
       9     -23.04049552       0.000011465       0.000289618          6733
      10     -23.04049740       0.000001884       0.000047624          7404
      11     -23.04049673      -0.000000677       0.000009945          8132
      12     -23.04049680       0.000000073       0.000002968          9231
      13     -23.04049682       0.000000021       0.000000867          9937

    CHF Iterations converged


    Iter     Energy [mEh]          dE [mEh]         Residual      Time [s]
       1     -76.24764039      76.247640388     118.901012374           747
       2     -62.06830495     -14.179335443      19.462742032          1785
       3     -65.14472534       3.076420399       8.843396846          2934
       4     -66.64124924       1.496523898       2.150992495          4571
       5     -66.60942845      -0.031820788       0.925303243          5789
       6     -66.51049340      -0.098935059       0.385874863          7111
       7     -66.50648825      -0.004005145       0.208650518          8163
       8     -66.52485687       0.018368621       0.102413310          9040
       9     -66.52641725       0.001560379       0.046744137          9889
      10     -66.52278863      -0.003628622       0.028151362         10909
      11     -66.52256771      -0.000220920       0.018119219         12091
      12     -66.52356449       0.000996779       0.010401635         13218
      13     -66.52372450       0.000160016       0.005419840         14106
      14     -66.52343017      -0.000294333       0.003729781         15147
      15     -66.52339312      -0.000037053       0.002817931         15853
      16     -66.52349462       0.000101502       0.001175105         16379
      17     -66.52349804       0.000003419       0.000438540         17142
      18     -66.52348852      -0.000009520       0.000180253         18060
      19     -66.52348568      -0.000002840       0.000087856         18957
      20     -66.52348666       0.000000980       0.000041360         20086
      21     -66.52348773       0.000001075       0.000018737         21798
      22     -66.52348770      -0.000000036       0.000008163         23377
      23     -66.52348745      -0.000000248       0.000003667         24813
      24     -66.52348744      -0.000000004       0.000001780         26122
      25     -66.52348749       0.000000042       0.000000782         27443

    CHF Iterations converged

    Ind20,r (A<-B)      =    -0.023040496821 [Eh]
    Ind20,r (B<-A)      =    -0.066523487487 [Eh]
    Ind20,r             =    -0.089563984308 [Eh]
    Exch-Ind20,r (A<-B) =     0.020112806375 [Eh]
    Exch-Ind20,r (B<-A) =     0.040647750888 [Eh]
    Exch-Ind20,r        =     0.060760557264 [Eh]
    Disp20              =    -0.040286325003 [Eh]
    Disp20 (SS)         =    -0.020143162501 [Eh]
    Disp20 (OS)         =    -0.020143162501 [Eh]
    Exch-Disp20         =     0.011161319761 [Eh]
    Exch-Disp20 (SS)    =     0.005915568173 [Eh]
    Exch-Disp20 (OS)    =     0.005245751588 [Eh]

    SAPT Results 
  --------------------------------------------------------------------------------------------------------
    Electrostatics                -44.99308162 [mEh]     -28.23358497 [kcal/mol]    -118.12931952 [kJ/mol]
      Elst10,r                    -44.99308162 [mEh]     -28.23358497 [kcal/mol]    -118.12931952 [kJ/mol]

    Exchange                      132.68155338 [mEh]      83.25893174 [kcal/mol]     348.35537040 [kJ/mol]
      Exch10                      132.68155338 [mEh]      83.25893174 [kcal/mol]     348.35537040 [kJ/mol]
      Exch10(S^2)                 129.96931093 [mEh]      81.55697391 [kcal/mol]     341.23437884 [kJ/mol]

    Induction                     -37.55551876 [mEh]     -23.56644382 [kcal/mol]     -98.60200092 [kJ/mol]
      Ind20,r                     -89.56398431 [mEh]     -56.20224866 [kcal/mol]    -235.15020840 [kJ/mol]
      Exch-Ind20,r                 60.76055726 [mEh]      38.12782531 [kcal/mol]     159.52682112 [kJ/mol]
      delta HF,r (2)               -8.75209172 [mEh]      -5.49202047 [kcal/mol]     -22.97861364 [kJ/mol]

    Dispersion                    -29.12500524 [mEh]     -18.27621671 [kcal/mol]     -76.46769073 [kJ/mol]
      Disp20                      -40.28632500 [mEh]     -25.28005060 [kcal/mol]    -105.77173172 [kJ/mol]
      Exch-Disp20                  11.16131976 [mEh]       7.00383389 [kcal/mol]      29.30404100 [kJ/mol]
      Disp20 (SS)                 -20.14316250 [mEh]     -12.64002530 [kcal/mol]     -52.88586586 [kJ/mol]
      Disp20 (OS)                 -20.14316250 [mEh]     -12.64002530 [kcal/mol]     -52.88586586 [kJ/mol]
      Exch-Disp20 (SS)              5.91556817 [mEh]       3.71207507 [kcal/mol]      15.53132210 [kJ/mol]
      Exch-Disp20 (OS)              5.24575159 [mEh]       3.29175882 [kcal/mol]      13.77271890 [kJ/mol]

  Total HF                         50.13295300 [mEh]      31.45890296 [kcal/mol]     131.62404996 [kJ/mol]
  Total SAPT0                      21.00794776 [mEh]      13.18268624 [kcal/mol]      55.15635924 [kJ/mol]

  Special recipe for scaled SAPT0 (see Manual):
    Electrostatics sSAPT0         -44.99308162 [mEh]     -28.23358497 [kcal/mol]    -118.12931952 [kJ/mol]
    Exchange sSAPT0               132.68155338 [mEh]      83.25893174 [kcal/mol]     348.35537040 [kJ/mol]
    Induction sSAPT0              -33.67167120 [mEh]     -21.12929267 [kcal/mol]     -88.40496055 [kJ/mol]
    Dispersion sSAPT0             -28.41156767 [mEh]     -17.82852788 [kcal/mol]     -74.59456063 [kJ/mol]
  Total sSAPT0                     25.60523290 [mEh]      16.06752622 [kcal/mol]      67.22652971 [kJ/mol]
  --------------------------------------------------------------------------------------------------------

*** tstop() called on n2cn0993 at Mon Jan 29 10:26:50 2024
Module time:
	user time   =   61839.00 seconds =    1030.65 minutes
	system time =    3833.10 seconds =      63.88 minutes
	total time  =     142189 seconds =    2369.82 minutes
Total time:
	user time   =  107522.45 seconds =    1792.04 minutes
	system time =    6569.19 seconds =     109.49 minutes
	total time  =     169276 seconds =    2821.27 minutes

    Psi4 stopped on: Monday, 29 January 2024 10:26AM
    Psi4 wall time for execution: 1 day, 23:01:17.25

*** Psi4 exiting successfully. Buy a developer a beer!
