
    -----------------------------------------------------------------------
          Psi4: An Open-Source Ab Initio Electronic Structure Package
                               Psi4 1.9 release

                         Git: Rev {} zzzzzzz 


    D. G. A. Smith, L. A. Burns, A. C. Simmonett, R. M. Parrish,
    M. C. Schieber, R. Galvelis, P. Kraus, H. Kruse, R. Di Remigio,
    A. Alenaizan, A. M. James, S. Lehtola, J. P. Misiewicz, M. Scheurer,
    R. A. Shaw, J. B. Schriber, Y. Xie, Z. L. Glick, D. A. Sirianni,
    J. S. O'Brien, J. M. Waldrop, A. Kumar, E. G. Hohenstein,
    B. P. Pritchard, B. R. Brooks, H. F. Schaefer III, A. Yu. Sokolov,
    K. Patkowski, A. E. DePrince III, U. Bozkaya, R. A. King,
    F. A. Evangelista, J. M. Turney, T. D. Crawford, C. D. Sherrill,
    J. Chem. Phys. 152(18) 184108 (2020). https://doi.org/10.1063/5.0006002

                            Additional Code Authors
    E. T. Seidl, C. L. Janssen, E. F. Valeev, M. L. Leininger,
    J. F. Gonthier, R. M. Richard, H. R. McAlexander, M. Saitow, X. Wang,
    P. Verma, M. H. Lechner, A. Jiang, S. Behnle, A. G. Heide,
    M. F. Herbst, and D. L. Poole

             Previous Authors, Complete List of Code Contributors,
                       and Citations for Specific Modules
    https://github.com/psi4/psi4/blob/master/codemeta.json
    https://github.com/psi4/psi4/graphs/contributors
    http://psicode.org/psi4manual/master/introduction.html#citing-psifour

    -----------------------------------------------------------------------


    Psi4 started on: Tuesday, 30 January 2024 06:13PM

    Process ID: 606002
    Host:       n2cn1190
    PSIDATADIR: /opt/software/pc2/EB-SW/software/PSI4/1.9-foss-2022a/share/psi4
    Memory:     500.0 MiB
    Threads:    16
    
  ==> Input File <==

--------------------------------------------------------------------------
memory 80 GB # how much memory is available ! Depends on the nodes/cores !

molecule dimer {
# monomer A
+1 1    # Charge and multiplicity
C  0.680067 -1.215929 4.008042
C -0.680504 -1.215545 4.006014
N -1.085635  0.102779 4.005016
C  0.000108  0.884180 4.001740
C -2.477365  0.570758 3.955610
N  1.085222  0.102779 4.005016
H  1.385146 -2.033368 4.015870
H -1.385302 -2.033214 4.006204
H -0.000009  1.965269 3.999993
C  2.478117  0.567877 4.021908
H  2.490592  1.658130 3.994563
H  2.967028  0.220701 4.935354
H  3.001428  0.176405 3.146425
H -2.857359  0.490799 2.933539
H -3.082679 -0.042306 4.625694
H -2.518128  1.610706 4.282594
--
# monomer B
0 1     # Charge and multiplicity
C   -3.66844126402057      7.80375217008252      0.00190004133558
C   -4.84759871934653      7.13124183134024     -0.00046653359696
C   -4.89495929917518      5.69633040353158     -0.00103944469517
C   -3.65374067877320      4.98073034095895      0.00662099703436
C   -2.40942512149445      7.11398103667468      0.00209438359570
C   -2.42547734410473      5.68112195090346     -0.00491050527438
C   -1.19474401643570      7.78614419430947      0.00356656413763
C   0.03795902893699      7.09942164575698      0.00139585983271
C   0.03033258741920      5.66948955970466     -0.00408752508301
C   -1.20098450790502      4.96927034791531      0.00488220885047
C   1.27795782581485      7.77285944319479      0.00277170839332
C   2.48535808472416      7.08769688523756      0.00049722048857
C   2.48612868491717      5.65477081024076     -0.00644052849921
C   1.25408291964399      4.95607811366431      0.00518741308898
C   3.75171459140595      7.76391215098033      0.00062407186893
C   4.92356605618520      7.07878077698995     -0.00143240883900
C   4.95560727132542      5.64344746336949     -0.00159282164606
C   3.70680153420475      4.94121020833308      0.00349873852374
H   -3.65852113775815      8.89082741913536      0.00358502958574
H   -1.18921332975660      8.87412108735996      0.00753844057883
H   1.28429423888630      8.86083343548850      0.00693053253426
H   3.75354208679975      8.85103527897216      0.00214659618464
H   5.86995870320703      7.61379483465560     -0.00235777588134
H   -5.78823170750226      7.67630221293400     -0.00202638095293
C   -6.09197395869619      4.99326001364347     -0.00291168518608
C   -6.12866148031747      3.58258016879823     -0.00171050815740
C   -3.66457974004527      3.56418217974434     -0.00463560277484
C   -4.89429820469869      2.86108077590057      0.00453338221034
C   -2.43733499489796      2.84761165708481      0.00719617576166
C   -1.20922785759670      3.54788693497833     -0.00648285103018
C   1.24714157216223      3.53468075142962     -0.00729145743546
C   0.01517603956900      2.83311183930540      0.00439272578912
C   2.46764517244071      2.82128997725533      0.00449278391269
C   3.70254947457969      3.52466015442405     -0.00899517692985
C   6.14498038638375      4.92757236613191     -0.00282626685777
C   6.16658835886151      3.51658447594213     -0.00065971342101
C   4.92460995845939      2.80840792535402      0.00587903281610
H   7.08990550964105      5.46688776622306     -0.00658814770723
H   -7.03104175110130      5.54268795285765     -0.00714490013730
C   -7.33969804112295      2.85841153457957     -0.00333767559888
C   -7.36488195805880      1.47032337158330     -0.00157213747140
C   -4.90350460894690      1.44442681216000     -0.00628840166334
C   -6.13225715261081      0.73993935705394      0.00600164231964
C   -3.67687480051673      0.72669714267312      0.00433931473643
C   -2.44565658606518      1.42964113326212     -0.00597039546461
C   -1.22360068130162      0.71532450163492      0.00545886906656
C   0.00763786931376      1.41738314923765      0.00392452278437
C   1.23121980774686      0.70211669058719     -0.01490206287210
C   2.46082110053113      1.40329203612573      0.00460244601878
C   3.68443025419614      0.68719842821222      0.00377365974158
C   4.91870890153864      1.39173456118907     -0.00862816189375
C   7.36980207796101      2.77948220318441     -0.00242013321349
C   7.38016266612146      1.39121750785509     -0.00087345036788
C   6.13979953912259      0.67411862320065      0.00545489144369
H   -8.27919079934664      3.40711804112415     -0.00763522772059
H   8.31511347147953      3.31811809662368     -0.00663070901292
C   -8.59175593758115      0.72483255304480     -0.00123170985383
C   -8.59902460370342     -0.63263980622873      0.00089141472904
C   -6.13981313911873     -0.67413663715361     -0.00609792660607
C   -7.38018411213749     -1.39126618958160      0.00131813493501
C   -4.91868448025621     -1.39175501803000      0.00624257154343
C   -3.68443829568458     -0.68723731573599     -0.00478966852105
C   -2.46081704024768     -1.40334517882457      0.00575341766833
C   -1.23116201232071     -0.70217386488055     -0.00636696112346
C   -0.00756962538737     -1.41741884941102      0.00108956317991
C   1.22364771588843     -0.71527537726392      0.01109518512883
C   2.44567064933149     -1.42964328900682     -0.00065482763106
C   3.67686670284649     -0.72670743155550     -0.00479541202602
C   6.13224884641929     -0.73997883984993     -0.00632338623858
C   4.90351914550401     -1.44445752054090      0.00751768830159
C   8.59901484869081      0.63260386666793     -0.00101133422380
C   8.59174548810050     -0.72485086719319      0.00072504603735
C   7.36486276438985     -1.47033266560598      0.00049486934466
H   -9.52830597181814      1.27684744919284     -0.00270163681798
H   9.54141097460619      1.17457248844457     -0.00206336648518
C   -7.36983790976868     -2.77954514593389      0.00312634335708
C   -4.92459910905015     -2.80843725734101     -0.00460528907921
C   -6.16662249566744     -3.51665219282533      0.00169655107992
C   -3.70251035970491     -3.52468154912026      0.00571878010666
C   -2.46764698511392     -2.82132596280400     -0.00632585824990
C   -0.01513347410770     -2.83314164539971     -0.00604426974092
C   -1.24712184122656     -3.53473217556300      0.00551968366725
C   1.20924506964357     -3.54791467864352      0.00805871345849
C   2.43733602215464     -2.84764173817541     -0.00608104485234
C   4.89430234377080     -2.86112296828604     -0.00526030478103
C   3.66461525504104     -3.56421984553201      0.00761911515957
C   6.12863901474565     -3.58258405771778      0.00096495711699
C   7.33967266469532     -2.85841330737039      0.00248018319869
H   -9.54144911125902     -1.17456346666430      0.00226083090216
H   9.52826186807155     -1.27691907390448      0.00197485379837
H   -8.31516504384864     -3.31814985321231      0.00729857188773
H   8.27915514249207     -3.40714078989363      0.00681973918158
C   -6.14499418870218     -4.92764727278338      0.00302254913999
C   -3.70678334799751     -4.94126171411716     -0.00679841894792
C   -4.95559005800169     -5.64349397349412      0.00116871569699
C   -2.48612132622665     -5.65478557440947      0.00614125209662
C   -1.25405833548005     -4.95612205000132     -0.00503435388927
C   1.20101257386816     -4.96928038819302     -0.00385322963129
C   -0.03033667441341     -5.66952030313900      0.00398997003238
C   3.65375010132847     -4.98074377541453     -0.00309522988330
C   2.42549269587528     -5.68117463552727      0.00628170066869
C   6.09196561781097     -4.99325796338655      0.00325918379042
C   4.89497644461045     -5.69634842095790      0.00202298796027
H   -7.08989238804069     -5.46699984223871      0.00742531082125
H   7.03105520920009     -5.54265853633254      0.00683896355417
C   -4.92354532219813     -7.07882109967734      0.00061394679214
C   -2.48534208823777     -7.08772807792913     -0.00189594564379
C   -3.75168589177895     -7.76394715763627     -0.00170126671874
C   -0.03794895698805     -7.09946487446944     -0.00168022049625
C   -1.27795610040136     -7.77290438466689     -0.00366491325785
C   2.40944432072629     -7.11402201200282     -0.00081701968533
C   1.19474993715296     -7.78618536556242     -0.00296931056689
C   4.84762105249800     -7.13126211057943      0.00168979497423
C   3.66847160587561     -7.80378799294376     -0.00065863938960
H   -5.86994035041618     -7.61383059804164      0.00215798365757
H   5.78824962538815     -7.67633218931421      0.00281691445618
H   -3.75352693944918     -8.85107156923607     -0.00353718114765
H   -1.28430440589466     -8.86087539249706     -0.00809229711623
H   1.18922157469537     -8.87416062058945     -0.00706194725726
H   3.65854661482387     -8.89086063405326     -0.00231318081200

    units angstrom      # Angstroms are the default
    no_reorient         # Geometry fixed, default
    symmetry c1         # C1 symmetry, default
}

set {
    scf_type DF         # Density fitting, faster than exact integrals
    freeze_core True    # Freeze core electrons
    basis jun-cc-pVDZ   # Jun-cc-pVDZ basis set, recommended for sSAPT0 in https://doi.org/10.1063/1.4867135
}

energy('ssapt0')        # Compute sSAPT0 energy, includes also SAPT0
--------------------------------------------------------------------------

  Memory set to  74.506 GiB by Python driver.

Scratch directory: /tmp/
   => Loading Basis Set <=

    Name: JUN-CC-PVDZ
    Role: ORBITAL
    Keyword: BASIS
    atoms 1-2, 4-5, 10, 17-34, 41-53, 56-70, 73-89, 92-104, 109-119, 122-130 entry C          line   164 file /opt/software/pc2/EB-SW/software/PSI4/1.9-foss-2022a/share/psi4/basis/jun-cc-pvdz.gbs 
    atoms 3, 6                                                               entry N          line   198 file /opt/software/pc2/EB-SW/software/PSI4/1.9-foss-2022a/share/psi4/basis/jun-cc-pvdz.gbs 
    atoms 7-9, 11-16, 35-40, 54-55, 71-72, 90-91, 105-108, 120-121, 131-136  entry H          line    36 file /opt/software/pc2/EB-SW/software/PSI4/1.9-foss-2022a/share/psi4/basis/jun-cc-pvdz.gbs 

   => Loading Basis Set <=

    Name: JUN-CC-PVDZ
    Role: ORBITAL
    Keyword: BASIS
    atoms 1-2, 4-5, 10, 17-34, 41-53, 56-70, 73-89, 92-104, 109-119, 122-130 entry C          line   164 file /opt/software/pc2/EB-SW/software/PSI4/1.9-foss-2022a/share/psi4/basis/jun-cc-pvdz.gbs 
    atoms 3, 6                                                               entry N          line   198 file /opt/software/pc2/EB-SW/software/PSI4/1.9-foss-2022a/share/psi4/basis/jun-cc-pvdz.gbs 
    atoms 7-9, 11-16, 35-40, 54-55, 71-72, 90-91, 105-108, 120-121, 131-136  entry H          line    36 file /opt/software/pc2/EB-SW/software/PSI4/1.9-foss-2022a/share/psi4/basis/jun-cc-pvdz.gbs 


  //>>>>>>>>>>>>>>>>>>>>>>>>>>>>>>>>>>>//
  //              Dimer HF             //
  //<<<<<<<<<<<<<<<<<<<<<<<<<<<<<<<<<<<//

   => Libint2 <=

    Primary   basis highest AM E, G, H:  5, 4, 3
    Auxiliary basis highest AM E, G, H:  6, 5, 4
    Onebody   basis highest AM E, G, H:  6, 5, 4
    Solid Harmonics ordering:            gaussian

*** tstart() called on n2cn1190
*** at Tue Jan 30 18:13:49 2024

   => Loading Basis Set <=

    Name: JUN-CC-PVDZ
    Role: ORBITAL
    Keyword: BASIS
    atoms 1-2, 4-5, 10, 17-34, 41-53, 56-70, 73-89, 92-104, 109-119, 122-130 entry C          line   164 file /opt/software/pc2/EB-SW/software/PSI4/1.9-foss-2022a/share/psi4/basis/jun-cc-pvdz.gbs 
    atoms 3, 6                                                               entry N          line   198 file /opt/software/pc2/EB-SW/software/PSI4/1.9-foss-2022a/share/psi4/basis/jun-cc-pvdz.gbs 
    atoms 7-9, 11-16, 35-40, 54-55, 71-72, 90-91, 105-108, 120-121, 131-136  entry H          line    36 file /opt/software/pc2/EB-SW/software/PSI4/1.9-foss-2022a/share/psi4/basis/jun-cc-pvdz.gbs 


         ---------------------------------------------------------
                                   SCF
               by Justin Turney, Rob Parrish, Andy Simmonett
                          and Daniel G. A. Smith
                              RHF Reference
                       16 Threads,  76293 MiB Core
         ---------------------------------------------------------

  ==> Geometry <==

    Molecular point group: c1
    Full point group: C1

    Geometry (in Angstrom), charge = 1, multiplicity = 1:

       Center              X                  Y                   Z               Mass       
    ------------   -----------------  -----------------  -----------------  -----------------
         C            0.680062820275    -1.215917226251     3.703069786609    12.000000000000
         C           -0.680508179725    -1.215533226251     3.701041786609    12.000000000000
         N           -1.085639179725     0.102790773749     3.700043786609    14.003074004430
         C            0.000103820275     0.884191773749     3.696767786609    12.000000000000
         C           -2.477369179725     0.570769773749     3.650637786609    12.000000000000
         N            1.085217820275     0.102790773749     3.700043786609    14.003074004430
         H            1.385141820275    -2.033356226251     3.710897786609     1.007825032230
         H           -1.385306179725    -2.033202226251     3.701231786609     1.007825032230
         H           -0.000013179725     1.965280773749     3.695020786609     1.007825032230
         C            2.478112820275     0.567888773749     3.716935786609    12.000000000000
         H            2.490587820275     1.658141773750     3.689590786609     1.007825032230
         H            2.967023820275     0.220712773749     4.630381786609     1.007825032230
         H            3.001423820275     0.176416773749     2.841452786609     1.007825032230
         H           -2.857363179725     0.490810773749     2.628566786609     1.007825032230
         H           -3.082683179725    -0.042294226251     4.320721786609     1.007825032230
         H           -2.518132179725     1.610717773749     3.977621786609     1.007825032230
         C           -3.668445443746     7.803763943832    -0.303072172055    12.000000000000
         C           -4.847602899072     7.131253605090    -0.305438746988    12.000000000000
         C           -4.894963478901     5.696342177281    -0.306011658086    12.000000000000
         C           -3.653744858499     4.980742114708    -0.298351216357    12.000000000000
         C           -2.409429301220     7.113992810424    -0.302877829795    12.000000000000
         C           -2.425481523830     5.681133724653    -0.309882718665    12.000000000000
         C           -1.194748196161     7.786155968059    -0.301405649253    12.000000000000
         C            0.037954849212     7.099433419506    -0.303576353558    12.000000000000
         C            0.030328407694     5.669501333454    -0.309059738474    12.000000000000
         C           -1.200988687630     4.969282121665    -0.300090004541    12.000000000000
         C            1.277953646089     7.772871216944    -0.302200504998    12.000000000000
         C            2.485353904999     7.087708658987    -0.304474992902    12.000000000000
         C            2.486124505192     5.654782583990    -0.311412741890    12.000000000000
         C            1.254078739919     4.956089887414    -0.299784800302    12.000000000000
         C            3.751710411681     7.763923924730    -0.304348141522    12.000000000000
         C            4.923561876460     7.078792550739    -0.306404622230    12.000000000000
         C            4.955603091600     5.643459237119    -0.306565035037    12.000000000000
         C            3.706797354479     4.941221982083    -0.301473474867    12.000000000000
         H           -3.658525317484     8.890839192885    -0.301387183805     1.007825032230
         H           -1.189217509482     8.874132861109    -0.297433772812     1.007825032230
         H            1.284290059161     8.860845209238    -0.298041680857     1.007825032230
         H            3.753537907074     8.851047052722    -0.302825617206     1.007825032230
         H            5.869954523482     7.613806608405    -0.307329989272     1.007825032230
         H           -5.788235887228     7.676313986684    -0.306998594344     1.007825032230
         C           -6.091978138422     4.993271787393    -0.307883898577    12.000000000000
         C           -6.128665660043     3.582591942548    -0.306682721548    12.000000000000
         C           -3.664583919771     3.564193953494    -0.309607816166    12.000000000000
         C           -4.894302384424     2.861092549650    -0.300438831181    12.000000000000
         C           -2.437339174623     2.847623430834    -0.297776037629    12.000000000000
         C           -1.209232037322     3.547898708728    -0.311455064421    12.000000000000
         C            1.247137392437     3.534692525179    -0.312263670826    12.000000000000
         C            0.015171859844     2.833123613055    -0.300579487602    12.000000000000
         C            2.467640992715     2.821301751005    -0.300479429478    12.000000000000
         C            3.702545294854     3.524671928174    -0.313967390321    12.000000000000
         C            6.144976206658     4.927584139881    -0.307798480249    12.000000000000
         C            6.166584179136     3.516596249692    -0.305631926812    12.000000000000
         C            4.924605778734     2.808419699104    -0.299093180575    12.000000000000
         H            7.089901329916     5.466899539973    -0.311560361098     1.007825032230
         H           -7.031045930827     5.542699726607    -0.312117113528     1.007825032230
         C           -7.339702220848     2.858423308329    -0.308309888990    12.000000000000
         C           -7.364886137784     1.470335145333    -0.306544350862    12.000000000000
         C           -4.903508788672     1.444438585909    -0.311260615054    12.000000000000
         C           -6.132261332336     0.739951130803    -0.298970571071    12.000000000000
         C           -3.676878980242     0.726708916423    -0.300632898655    12.000000000000
         C           -2.445660765791     1.429652907012    -0.310942608856    12.000000000000
         C           -1.223604861027     0.715336275384    -0.299513344324    12.000000000000
         C            0.007633689588     1.417394922987    -0.301047690607    12.000000000000
         C            1.231215628021     0.702128464337    -0.319874276263    12.000000000000
         C            2.460816920806     1.403303809875    -0.300369767372    12.000000000000
         C            3.684426074471     0.687210201962    -0.301198553649    12.000000000000
         C            4.918704721813     1.391746334939    -0.313600375285    12.000000000000
         C            7.369797898236     2.779493976934    -0.307392346605    12.000000000000
         C            7.380158486396     1.391229281605    -0.305845663759    12.000000000000
         C            6.139795359397     0.674130396950    -0.299517321947    12.000000000000
         H           -8.279194979072     3.407129814874    -0.312607441112     1.007825032230
         H            8.315109291754     3.318129870373    -0.311602922404     1.007825032230
         C           -8.591760117307     0.724844326794    -0.306203923245    12.000000000000
         C           -8.599028783429    -0.632628032479    -0.304080798662    12.000000000000
         C           -6.139817318844    -0.674124863404    -0.311070139997    12.000000000000
         C           -7.380188291863    -1.391254415832    -0.303654078456    12.000000000000
         C           -4.918688659982    -1.391743244281    -0.298729641848    12.000000000000
         C           -3.684442475410    -0.687225541986    -0.309761881912    12.000000000000
         C           -2.460821219973    -1.403333405075    -0.299218795723    12.000000000000
         C           -1.231166192046    -0.702162091131    -0.311339174514    12.000000000000
         C           -0.007573805113    -1.417407075662    -0.303882650211    12.000000000000
         C            1.223643536163    -0.715263603514    -0.293877028262    12.000000000000
         C            2.445666469606    -1.429631515257    -0.305627041022    12.000000000000
         C            3.676862523121    -0.726695657806    -0.309767625417    12.000000000000
         C            6.132244666694    -0.739967066100    -0.311295599630    12.000000000000
         C            4.903514965779    -1.444445746791    -0.297454525089    12.000000000000
         C            8.599010668965     0.632615640417    -0.305983547615    12.000000000000
         C            8.591741308375    -0.724839093444    -0.304247167354    12.000000000000
         C            7.364858584664    -1.470320891856    -0.304477344046    12.000000000000
         H           -9.528310151544     1.276859222942    -0.307673850209     1.007825032230
         H            9.541406794881     1.174584262194    -0.307035579876     1.007825032230
         C           -7.369842089494    -2.779533372184    -0.301845870034    12.000000000000
         C           -4.924603288776    -2.808425483592    -0.309577502470    12.000000000000
         C           -6.166626675393    -3.516640419076    -0.303275662311    12.000000000000
         C           -3.702514539430    -3.524669775371    -0.299253433284    12.000000000000
         C           -2.467651164839    -2.821314189055    -0.311298071641    12.000000000000
         C           -0.015137653833    -2.833129871650    -0.311016483132    12.000000000000
         C           -1.247126020952    -3.534720401814    -0.299452529724    12.000000000000
         C            1.209240889918    -3.547902904894    -0.296913499933    12.000000000000
         C            2.437331842429    -2.847629964426    -0.311053258243    12.000000000000
         C            4.894298164045    -2.861111194537    -0.310232518172    12.000000000000
         C            3.664611075316    -3.564208071783    -0.297353098231    12.000000000000
         C            6.128634835020    -3.582572283968    -0.304007256274    12.000000000000
         C            7.339668484970    -2.858401533621    -0.302492030192    12.000000000000
         H           -9.541453290984    -1.174551692915    -0.302711382489     1.007825032230
         H            9.528257688346    -1.276907300155    -0.302997359593     1.007825032230
         H           -8.315169223574    -3.318138079463    -0.297673641503     1.007825032230
         H            8.279150962767    -3.407129016144    -0.298152474209     1.007825032230
         C           -6.144998368428    -4.927635499034    -0.301949664251    12.000000000000
         C           -3.706787527723    -4.941249940368    -0.311770632339    12.000000000000
         C           -4.955594237727    -5.643482199745    -0.303803497694    12.000000000000
         C           -2.486125505952    -5.654773800660    -0.298830961294    12.000000000000
         C           -1.254062515205    -4.956110276252    -0.310006567280    12.000000000000
         C            1.201008394143    -4.969268614444    -0.308825443022    12.000000000000
         C           -0.030340854139    -5.669508529390    -0.300982243359    12.000000000000
         C            3.653745921603    -4.980732001665    -0.308067443274    12.000000000000
         C            2.425488516150    -5.681162861778    -0.298690512722    12.000000000000
         C            6.091961438086    -4.993246189637    -0.301713029601    12.000000000000
         C            4.894972264885    -5.696336647208    -0.302949225431    12.000000000000
         H           -7.089896567766    -5.466988068489    -0.297546902570     1.007825032230
         H            7.031051029475    -5.542646762583    -0.298133249837     1.007825032230
         C           -4.923549501924    -7.078809325928    -0.304358266599    12.000000000000
         C           -2.485346267963    -7.087716304180    -0.306868159035    12.000000000000
         C           -3.751690071504    -7.763935383887    -0.306673480110    12.000000000000
         C           -0.037953136713    -7.099453100720    -0.306652433887    12.000000000000
         C           -1.277960280127    -7.772892610917    -0.308637126649    12.000000000000
         C            2.409440141001    -7.114010238253    -0.305789233076    12.000000000000
         C            1.194745757428    -7.786173591813    -0.307941523958    12.000000000000
         C            4.847616872773    -7.131250336830    -0.303282418417    12.000000000000
         C            3.668467426150    -7.803776219194    -0.305630852781    12.000000000000
         H           -5.869944530142    -7.613818824292    -0.302814229733     1.007825032230
         H            5.788245445663    -7.676320415565    -0.302155298935     1.007825032230
         H           -3.753531119175    -8.851059795487    -0.308509394539     1.007825032230
         H           -1.284308585620    -8.860863618748    -0.313064510507     1.007825032230
         H            1.189217394970    -8.874148846840    -0.312034160648     1.007825032230
         H            3.658542435098    -8.890848860304    -0.307285394203     1.007825032230

  Running in c1 symmetry.

  Rotational constants: A =      0.00066  B =      0.00066  C =      0.00035 [cm^-1]
  Rotational constants: A =     19.88941  B =     19.75829  C =     10.50436 [MHz]
  Nuclear repulsion = 18300.622683513876837

  Charge       = 1
  Multiplicity = 1
  Electrons    = 652
  Nalpha       = 326
  Nbeta        = 326

  ==> Algorithm <==

  SCF Algorithm Type is DF.
  DIIS enabled.
  MOM disabled.
  Fractional occupation disabled.
  Guess Type is SAD.
  Energy threshold   = 1.00e-08
  Density threshold  = 1.00e-08
  Integral threshold = 1.00e-12

  ==> Primary Basis <==

  Basis Set: JUN-CC-PVDZ
    Blend: JUN-CC-PVDZ
    Number of shells: 923
    Number of basis functions: 2019
    Number of Cartesian functions: 2122
    Spherical Harmonics?: true
    Max angular momentum: 2

   => Loading Basis Set <=

    Name: (JUN-CC-PVDZ AUX)
    Role: JKFIT
    Keyword: DF_BASIS_SCF
    atoms 1-2, 4-5, 10, 17-34, 41-53, 56-70, 73-89, 92-104, 109-119, 122-130 entry C          line   146 file /opt/software/pc2/EB-SW/software/PSI4/1.9-foss-2022a/share/psi4/basis/jun-cc-pvdz-jkfit.gbs 
    atoms 3, 6                                                               entry N          line   202 file /opt/software/pc2/EB-SW/software/PSI4/1.9-foss-2022a/share/psi4/basis/jun-cc-pvdz-jkfit.gbs 
    atoms 7-9, 11-16, 35-40, 54-55, 71-72, 90-91, 105-108, 120-121, 131-136  entry H          line    70 file /opt/software/pc2/EB-SW/software/PSI4/1.9-foss-2022a/share/psi4/basis/jun-cc-pvdz-jkfit.gbs 

  ==> Integral Setup <==

  ==> DiskDFJK: Density-Fitted J/K Matrices <==

    J tasked:                  Yes
    K tasked:                  Yes
    wK tasked:                  No
    OpenMP threads:             16
    Integrals threads:          16
    Memory [MiB]:            57220
    Algorithm:                Disk
    Integral Cache:           SAVE
    Schwarz Cutoff:          1E-12
    Fitting Condition:       1E-10

   => Auxiliary Basis Set <=

  Basis Set: (JUN-CC-PVDZ AUX)
    Blend: JUN-CC-PVDZ-JKFIT
    Number of shells: 3078
    Number of basis functions: 8896
    Number of Cartesian functions: 10198
    Spherical Harmonics?: true
    Max angular momentum: 3

  Minimum eigenvalue in the overlap matrix is 8.1360012986E-11.
  Reciprocal condition number of the overlap matrix is 3.3091251338E-12.
    Using canonical orthogonalization.
  Overall, 41 of 2019 possible MOs eliminated.


  ==> Pre-Iterations <==

  SCF Guess: Superposition of Atomic Densities via on-the-fly atomic UHF (no occupation information).

   -------------------------
    Irrep   Nso     Nmo    
   -------------------------
     A       2019    1978 
   -------------------------
    Total    2019    1978
   -------------------------

  ==> Iterations <==

                           Total Energy        Delta E     RMS |[F,P]|

   @DF-RHF iter SAD: -3967.30616517538783   -3.96731e+03   0.00000e+00 
   @DF-RHF iter   1: -3952.12269412453952    1.51835e+01   7.16288e-04 ADIIS/DIIS
   @DF-RHF iter   2: -3953.50844959342385   -1.38576e+00   2.35760e-04 ADIIS/DIIS
   @DF-RHF iter   3: -3953.63152434362974   -1.23075e-01   1.04778e-04 ADIIS/DIIS
   @DF-RHF iter   4: -3953.65528416004872   -2.37598e-02   4.44919e-05 DIIS
   @DF-RHF iter   5: -3953.66023786504911   -4.95371e-03   1.17114e-05 DIIS
   @DF-RHF iter   6: -3953.66074564140126   -5.07776e-04   4.69644e-06 DIIS
   @DF-RHF iter   7: -3953.66093765827554   -1.92017e-04   2.25495e-06 DIIS
   @DF-RHF iter   8: -3953.66100205902421   -6.44007e-05   1.12148e-06 DIIS
   @DF-RHF iter   9: -3953.66102049510300   -1.84361e-05   3.65774e-07 DIIS
   @DF-RHF iter  10: -3953.66102176352933   -1.26843e-06   1.44988e-07 DIIS
   @DF-RHF iter  11: -3953.66102191532946   -1.51800e-07   6.23621e-08 DIIS
   @DF-RHF iter  12: -3953.66102194843779   -3.31083e-08   3.24038e-08 DIIS
   @DF-RHF iter  13: -3953.66102195703752   -8.59973e-09   1.29525e-08 DIIS
   @DF-RHF iter  14: -3953.66102195833355   -1.29603e-09   6.74090e-09 DIIS
  Energy and wave function converged.


  ==> Post-Iterations <==

    Orbital Energies [Eh]
    ---------------------

    Doubly Occupied:                                                      

       1A    -15.798968     2A    -15.798367     3A    -11.494087  
       4A    -11.424676     5A    -11.423126     6A    -11.415299  
       7A    -11.414210     8A    -11.338279     9A    -11.337775  
      10A    -11.337320    11A    -11.336805    12A    -11.336636  
      13A    -11.336098    14A    -11.335854    15A    -11.335732  
      16A    -11.335646    17A    -11.335262    18A    -11.335120  
      19A    -11.334259    20A    -11.334200    21A    -11.334079  
      22A    -11.334012    23A    -11.333840    24A    -11.333259  
      25A    -11.333077    26A    -11.332984    27A    -11.332826  
      28A    -11.332720    29A    -11.332613    30A    -11.331642  
      31A    -11.331488    32A    -11.329751    33A    -11.329568  
      34A    -11.329435    35A    -11.329319    36A    -11.329156  
      37A    -11.329124    38A    -11.329071    39A    -11.328990  
      40A    -11.328330    41A    -11.328306    42A    -11.327925  
      43A    -11.327762    44A    -11.326739    45A    -11.326644  
      46A    -11.326637    47A    -11.326548    48A    -11.326517  
      49A    -11.326458    50A    -11.326298    51A    -11.326011  
      52A    -11.325958    53A    -11.325732    54A    -11.325661  
      55A    -11.325639    56A    -11.325575    57A    -11.325553  
      58A    -11.325520    59A    -11.325501    60A    -11.325491  
      61A    -11.325329    62A    -11.325163    63A    -11.325014  
      64A    -11.324961    65A    -11.324536    66A    -11.324513  
      67A    -11.324342    68A    -11.324276    69A    -11.324264  
      70A    -11.324216    71A    -11.324157    72A    -11.324083  
      73A    -11.324059    74A    -11.323998    75A    -11.323930  
      76A    -11.323432    77A    -11.323403    78A    -11.323060  
      79A    -11.323055    80A    -11.317030    81A    -11.316993  
      82A    -11.316992    83A    -11.316988    84A    -11.316954  
      85A    -11.316914    86A    -11.316906    87A    -11.316877  
      88A    -11.316287    89A    -11.316246    90A    -11.315979  
      91A    -11.315901    92A    -11.314318    93A    -11.314306  
      94A    -11.314275    95A    -11.314260    96A    -11.313404  
      97A    -11.313386    98A    -11.312839    99A    -11.312834  
     100A    -11.312804   101A    -11.312783   102A    -11.311929  
     103A    -11.311912   104A     -1.542065   105A     -1.397843  
     106A     -1.325275   107A     -1.307799   108A     -1.307195  
     109A     -1.287249   110A     -1.287147   111A     -1.284032  
     112A     -1.266311   113A     -1.261542   114A     -1.256579  
     115A     -1.256073   116A     -1.238568   117A     -1.238554  
     118A     -1.223309   119A     -1.223184   120A     -1.220564  
     121A     -1.209023   122A     -1.209005   123A     -1.202974  
     124A     -1.194870   125A     -1.182122   126A     -1.180181  
     127A     -1.179804   128A     -1.177268   129A     -1.175529  
     130A     -1.154471   131A     -1.154410   132A     -1.153896  
     133A     -1.140872   134A     -1.140840   135A     -1.134394  
     136A     -1.134332   137A     -1.132244   138A     -1.112146  
     139A     -1.112133   140A     -1.105988   141A     -1.102614  
     142A     -1.102539   143A     -1.092983   144A     -1.090387  
     145A     -1.090093   146A     -1.083883   147A     -1.073198  
     148A     -1.071693   149A     -1.068759   150A     -1.067172  
     151A     -1.067100   152A     -1.054363   153A     -1.036988  
     154A     -1.036908   155A     -1.020275   156A     -1.020239  
     157A     -0.986943   158A     -0.974042   159A     -0.973929  
     160A     -0.973256   161A     -0.968681   162A     -0.968646  
     163A     -0.961531   164A     -0.960680   165A     -0.960575  
     166A     -0.957430   167A     -0.957300   168A     -0.956004  
     169A     -0.936094   170A     -0.931162   171A     -0.916603  
     172A     -0.914877   173A     -0.914621   174A     -0.912145  
     175A     -0.909364   176A     -0.899645   177A     -0.899592  
     178A     -0.891339   179A     -0.891290   180A     -0.881932  
     181A     -0.851704   182A     -0.851443   183A     -0.848824  
     184A     -0.847779   185A     -0.847764   186A     -0.846979  
     187A     -0.846969   188A     -0.832798   189A     -0.828429  
     190A     -0.816740   191A     -0.815058   192A     -0.797268  
     193A     -0.792649   194A     -0.792356   195A     -0.790650  
     196A     -0.790061   197A     -0.789857   198A     -0.785218  
     199A     -0.781308   200A     -0.780289   201A     -0.780178  
     202A     -0.777708   203A     -0.763958   204A     -0.763853  
     205A     -0.754933   206A     -0.752763   207A     -0.751578  
     208A     -0.750304   209A     -0.750237   210A     -0.747035  
     211A     -0.746988   212A     -0.746821   213A     -0.744087  
     214A     -0.717580   215A     -0.716451   216A     -0.716255  
     217A     -0.715459   218A     -0.715449   219A     -0.713641  
     220A     -0.707347   221A     -0.707127   222A     -0.704675  
     223A     -0.703316   224A     -0.701705   225A     -0.701576  
     226A     -0.695277   227A     -0.694240   228A     -0.691575  
     229A     -0.690905   230A     -0.681884   231A     -0.678634  
     232A     -0.678557   233A     -0.673634   234A     -0.673598  
     235A     -0.668352   236A     -0.667728   237A     -0.665643  
     238A     -0.664996   239A     -0.664801   240A     -0.663531  
     241A     -0.660209   242A     -0.659778   243A     -0.659665  
     244A     -0.659389   245A     -0.655979   246A     -0.655901  
     247A     -0.654690   248A     -0.642485   249A     -0.642483  
     250A     -0.640161   251A     -0.640052   252A     -0.638856  
     253A     -0.637795   254A     -0.634969   255A     -0.634899  
     256A     -0.630860   257A     -0.630680   258A     -0.624354  
     259A     -0.624098   260A     -0.622994   261A     -0.621274  
     262A     -0.619328   263A     -0.615632   264A     -0.610095  
     265A     -0.609203   266A     -0.604133   267A     -0.603639  
     268A     -0.598131   269A     -0.598017   270A     -0.594645  
     271A     -0.591998   272A     -0.591952   273A     -0.582320  
     274A     -0.582138   275A     -0.579819   276A     -0.579747  
     277A     -0.573191   278A     -0.573131   279A     -0.562905  
     280A     -0.562540   281A     -0.561908   282A     -0.561490  
     283A     -0.561255   284A     -0.559935   285A     -0.557931  
     286A     -0.544865   287A     -0.541200   288A     -0.541191  
     289A     -0.538227   290A     -0.535762   291A     -0.531807  
     292A     -0.531724   293A     -0.525158   294A     -0.514386  
     295A     -0.514196   296A     -0.509348   297A     -0.509072  
     298A     -0.508775   299A     -0.497899   300A     -0.497436  
     301A     -0.487435   302A     -0.473582   303A     -0.473520  
     304A     -0.453752   305A     -0.453681   306A     -0.451518  
     307A     -0.448852   308A     -0.448786   309A     -0.419757  
     310A     -0.419698   311A     -0.416495   312A     -0.408518  
     313A     -0.406758   314A     -0.406196   315A     -0.395859  
     316A     -0.395668   317A     -0.374753   318A     -0.369918  
     319A     -0.369880   320A     -0.365436   321A     -0.350750  
     322A     -0.320769   323A     -0.320637   324A     -0.318186  
     325A     -0.269415   326A     -0.269262  

    Virtual:                                                              

     327A     -0.076727   328A     -0.076430   329A     -0.046459  
     330A     -0.032414   331A     -0.032324   332A     -0.029065  
     333A     -0.024795   334A     -0.021923   335A     -0.020525  
     336A     -0.009608   337A     -0.006547   338A     -0.003894  
     339A     -0.003114   340A     -0.002916   341A      0.000141  
     342A      0.001873   343A      0.002196   344A      0.002865  
     345A      0.002969   346A      0.003485   347A      0.005705  
     348A      0.007117   349A      0.007412   350A      0.008294  
     351A      0.012362   352A      0.012711   353A      0.014180  
     354A      0.014247   355A      0.016007   356A      0.017064  
     357A      0.019634   358A      0.020765   359A      0.022725  
     360A      0.023664   361A      0.025291   362A      0.025342  
     363A      0.026194   364A      0.030099   365A      0.033584  
     366A      0.035443   367A      0.037644   368A      0.039139  
     369A      0.041065   370A      0.041497   371A      0.041829  
     372A      0.042501   373A      0.044570   374A      0.045258  
     375A      0.046658   376A      0.046720   377A      0.050808  
     378A      0.051092   379A      0.052098   380A      0.052210  
     381A      0.052429   382A      0.052592   383A      0.052857  
     384A      0.053787   385A      0.054398   386A      0.055818  
     387A      0.058901   388A      0.059646   389A      0.060096  
     390A      0.061837   391A      0.063895   392A      0.068519  
     393A      0.068917   394A      0.070651   395A      0.072497  
     396A      0.073425   397A      0.075992   398A      0.076115  
     399A      0.076222   400A      0.078972   401A      0.080329  
     402A      0.080870   403A      0.082013   404A      0.084088  
     405A      0.084651   406A      0.086028   407A      0.086491  
     408A      0.088370   409A      0.089995   410A      0.090756  
     411A      0.091217   412A      0.095502   413A      0.096000  
     414A      0.096243   415A      0.101912   416A      0.103613  
     417A      0.104361   418A      0.105341   419A      0.106653  
     420A      0.107345   421A      0.107378   422A      0.107594  
     423A      0.107703   424A      0.109761   425A      0.113003  
     426A      0.113847   427A      0.114554   428A      0.114946  
     429A      0.116021   430A      0.116988   431A      0.118007  
     432A      0.119049   433A      0.121362   434A      0.122434  
     435A      0.125812   436A      0.126792   437A      0.127027  
     438A      0.128844   439A      0.130318   440A      0.132298  
     441A      0.133132   442A      0.134669   443A      0.135175  
     444A      0.135248   445A      0.138347   446A      0.138612  
     447A      0.139381   448A      0.140738   449A      0.144515  
     450A      0.145802   451A      0.146303   452A      0.146405  
     453A      0.147978   454A      0.148344   455A      0.148813  
     456A      0.149407   457A      0.150488   458A      0.151958  
     459A      0.152239   460A      0.153165   461A      0.153425  
     462A      0.154145   463A      0.154676   464A      0.155228  
     465A      0.156242   466A      0.157547   467A      0.158413  
     468A      0.159516   469A      0.159622   470A      0.160680  
     471A      0.163325   472A      0.164873   473A      0.165988  
     474A      0.166273   475A      0.167544   476A      0.170328  
     477A      0.170536   478A      0.172678   479A      0.173107  
     480A      0.173357   481A      0.173698   482A      0.174476  
     483A      0.174637   484A      0.176082   485A      0.177037  
     486A      0.179308   487A      0.180012   488A      0.181716  
     489A      0.182422   490A      0.183810   491A      0.184317  
     492A      0.187308   493A      0.188328   494A      0.189173  
     495A      0.191074   496A      0.192577   497A      0.193511  
     498A      0.194320   499A      0.194369   500A      0.195779  
     501A      0.196095   502A      0.197117   503A      0.199771  
     504A      0.200990   505A      0.201834   506A      0.202526  
     507A      0.202717   508A      0.203754   509A      0.205228  
     510A      0.206186   511A      0.207278   512A      0.208680  
     513A      0.209026   514A      0.209200   515A      0.209694  
     516A      0.211181   517A      0.212079   518A      0.212405  
     519A      0.214003   520A      0.215242   521A      0.217879  
     522A      0.219374   523A      0.220073   524A      0.220880  
     525A      0.221994   526A      0.222395   527A      0.224361  
     528A      0.225635   529A      0.227926   530A      0.228534  
     531A      0.229568   532A      0.229961   533A      0.230293  
     534A      0.231974   535A      0.232212   536A      0.233741  
     537A      0.234483   538A      0.235221   539A      0.236818  
     540A      0.237312   541A      0.238066   542A      0.238207  
     543A      0.239081   544A      0.242672   545A      0.244000  
     546A      0.244937   547A      0.245612   548A      0.246170  
     549A      0.246811   550A      0.249176   551A      0.249745  
     552A      0.250728   553A      0.251238   554A      0.253287  
     555A      0.254659   556A      0.255268   557A      0.255864  
     558A      0.257290   559A      0.258263   560A      0.258514  
     561A      0.258836   562A      0.260935   563A      0.261176  
     564A      0.261562   565A      0.262582   566A      0.263522  
     567A      0.263969   568A      0.264600   569A      0.265329  
     570A      0.266277   571A      0.268710   572A      0.270168  
     573A      0.270438   574A      0.271267   575A      0.271793  
     576A      0.272590   577A      0.273648   578A      0.274122  
     579A      0.274517   580A      0.275054   581A      0.276429  
     582A      0.277446   583A      0.278412   584A      0.279343  
     585A      0.280987   586A      0.282411   587A      0.283290  
     588A      0.285627   589A      0.286647   590A      0.287456  
     591A      0.288126   592A      0.289037   593A      0.290143  
     594A      0.290507   595A      0.290889   596A      0.291320  
     597A      0.292625   598A      0.294136   599A      0.295360  
     600A      0.295597   601A      0.298932   602A      0.300011  
     603A      0.300284   604A      0.300861   605A      0.302197  
     606A      0.302516   607A      0.303619   608A      0.303883  
     609A      0.304659   610A      0.306981   611A      0.308952  
     612A      0.309316   613A      0.310204   614A      0.311783  
     615A      0.312457   616A      0.312809   617A      0.313239  
     618A      0.315711   619A      0.316970   620A      0.318236  
     621A      0.318876   622A      0.319156   623A      0.320772  
     624A      0.321030   625A      0.321532   626A      0.321853  
     627A      0.323713   628A      0.324468   629A      0.325000  
     630A      0.325486   631A      0.328197   632A      0.328463  
     633A      0.329698   634A      0.330860   635A      0.330990  
     636A      0.332368   637A      0.332964   638A      0.333604  
     639A      0.334577   640A      0.334839   641A      0.335501  
     642A      0.336104   643A      0.336701   644A      0.337058  
     645A      0.339931   646A      0.340961   647A      0.342209  
     648A      0.342377   649A      0.343348   650A      0.343431  
     651A      0.343696   652A      0.344468   653A      0.345410  
     654A      0.345945   655A      0.346561   656A      0.347661  
     657A      0.348673   658A      0.349700   659A      0.350170  
     660A      0.350648   661A      0.351449   662A      0.353743  
     663A      0.354064   664A      0.354764   665A      0.356159  
     666A      0.356328   667A      0.358944   668A      0.359412  
     669A      0.359717   670A      0.360217   671A      0.361002  
     672A      0.361971   673A      0.364827   674A      0.365857  
     675A      0.366445   676A      0.369190   677A      0.369318  
     678A      0.369774   679A      0.370352   680A      0.370739  
     681A      0.371733   682A      0.372616   683A      0.374097  
     684A      0.374554   685A      0.374930   686A      0.376615  
     687A      0.378569   688A      0.379163   689A      0.380345  
     690A      0.380612   691A      0.381016   692A      0.382408  
     693A      0.384925   694A      0.385926   695A      0.387666  
     696A      0.388414   697A      0.390722   698A      0.391405  
     699A      0.391839   700A      0.392194   701A      0.393579  
     702A      0.393715   703A      0.394671   704A      0.395264  
     705A      0.395699   706A      0.397709   707A      0.398950  
     708A      0.400396   709A      0.402179   710A      0.403145  
     711A      0.404326   712A      0.404807   713A      0.406332  
     714A      0.406544   715A      0.407429   716A      0.407887  
     717A      0.408994   718A      0.409695   719A      0.410606  
     720A      0.411366   721A      0.412459   722A      0.413758  
     723A      0.414205   724A      0.414940   725A      0.415950  
     726A      0.417284   727A      0.418939   728A      0.420147  
     729A      0.420339   730A      0.422607   731A      0.422966  
     732A      0.424542   733A      0.425378   734A      0.426761  
     735A      0.428514   736A      0.430016   737A      0.431876  
     738A      0.432208   739A      0.433777   740A      0.434515  
     741A      0.435489   742A      0.436430   743A      0.437280  
     744A      0.438391   745A      0.440582   746A      0.441760  
     747A      0.442247   748A      0.443519   749A      0.443940  
     750A      0.444674   751A      0.446263   752A      0.447392  
     753A      0.448683   754A      0.450611   755A      0.451914  
     756A      0.452586   757A      0.454501   758A      0.455140  
     759A      0.457281   760A      0.457547   761A      0.458230  
     762A      0.459883   763A      0.460216   764A      0.460528  
     765A      0.461661   766A      0.463252   767A      0.463838  
     768A      0.466132   769A      0.467032   770A      0.468197  
     771A      0.469332   772A      0.470912   773A      0.472383  
     774A      0.474434   775A      0.476163   776A      0.476962  
     777A      0.479018   778A      0.480676   779A      0.481493  
     780A      0.483456   781A      0.484183   782A      0.485547  
     783A      0.492063   784A      0.495842   785A      0.497493  
     786A      0.498366   787A      0.500273   788A      0.500948  
     789A      0.502123   790A      0.503819   791A      0.505080  
     792A      0.506766   793A      0.506840   794A      0.507737  
     795A      0.510104   796A      0.511318   797A      0.512273  
     798A      0.514022   799A      0.515116   800A      0.515624  
     801A      0.516433   802A      0.518884   803A      0.519834  
     804A      0.520797   805A      0.521368   806A      0.521764  
     807A      0.523436   808A      0.524905   809A      0.528404  
     810A      0.530716   811A      0.531066   812A      0.532305  
     813A      0.533795   814A      0.535493   815A      0.539550  
     816A      0.541588   817A      0.542638   818A      0.543860  
     819A      0.544300   820A      0.545390   821A      0.547121  
     822A      0.548278   823A      0.552450   824A      0.556693  
     825A      0.557252   826A      0.558890   827A      0.559437  
     828A      0.561215   829A      0.563512   830A      0.567934  
     831A      0.574196   832A      0.575133   833A      0.575742  
     834A      0.576429   835A      0.584100   836A      0.589467  
     837A      0.590661   838A      0.591042   839A      0.593496  
     840A      0.593796   841A      0.594065   842A      0.595828  
     843A      0.598037   844A      0.602166   845A      0.603883  
     846A      0.605840   847A      0.608745   848A      0.610539  
     849A      0.611176   850A      0.615847   851A      0.620239  
     852A      0.622752   853A      0.626768   854A      0.627205  
     855A      0.627970   856A      0.630701   857A      0.632671  
     858A      0.633815   859A      0.634544   860A      0.635764  
     861A      0.637334   862A      0.640102   863A      0.646021  
     864A      0.646690   865A      0.657232   866A      0.660409  
     867A      0.661775   868A      0.665862   869A      0.669961  
     870A      0.676430   871A      0.676910   872A      0.678489  
     873A      0.678696   874A      0.681079   875A      0.682593  
     876A      0.682964   877A      0.684906   878A      0.689760  
     879A      0.710086   880A      0.715692   881A      0.718833  
     882A      0.722173   883A      0.724287   884A      0.726617  
     885A      0.728095   886A      0.729145   887A      0.730389  
     888A      0.731216   889A      0.732642   890A      0.736257  
     891A      0.737970   892A      0.739827   893A      0.742244  
     894A      0.743841   895A      0.749893   896A      0.751446  
     897A      0.753116   898A      0.755277   899A      0.756104  
     900A      0.756679   901A      0.758526   902A      0.759930  
     903A      0.761182   904A      0.764460   905A      0.766131  
     906A      0.767037   907A      0.768984   908A      0.770956  
     909A      0.771567   910A      0.772763   911A      0.774373  
     912A      0.774736   913A      0.776158   914A      0.778956  
     915A      0.782555   916A      0.783881   917A      0.786826  
     918A      0.789531   919A      0.791426   920A      0.794433  
     921A      0.794936   922A      0.796725   923A      0.798050  
     924A      0.799139   925A      0.801906   926A      0.802715  
     927A      0.804470   928A      0.806034   929A      0.807873  
     930A      0.808783   931A      0.809738   932A      0.811119  
     933A      0.812928   934A      0.815148   935A      0.817073  
     936A      0.817634   937A      0.820051   938A      0.820570  
     939A      0.824853   940A      0.824959   941A      0.825702  
     942A      0.826923   943A      0.828662   944A      0.829670  
     945A      0.831540   946A      0.832540   947A      0.834587  
     948A      0.837773   949A      0.838962   950A      0.839959  
     951A      0.843761   952A      0.844752   953A      0.847666  
     954A      0.849026   955A      0.850311   956A      0.853179  
     957A      0.853466   958A      0.853850   959A      0.855982  
     960A      0.857357   961A      0.857780   962A      0.858183  
     963A      0.860020   964A      0.860357   965A      0.861535  
     966A      0.861863   967A      0.865004   968A      0.868497  
     969A      0.869017   970A      0.870578   971A      0.872179  
     972A      0.872631   973A      0.874560   974A      0.875063  
     975A      0.876632   976A      0.878582   977A      0.881438  
     978A      0.882249   979A      0.884017   980A      0.884998  
     981A      0.885690   982A      0.888071   983A      0.888668  
     984A      0.889029   985A      0.889839   986A      0.891302  
     987A      0.891875   988A      0.893471   989A      0.894387  
     990A      0.895835   991A      0.897756   992A      0.899725  
     993A      0.902090   994A      0.903259   995A      0.905451  
     996A      0.908764   997A      0.909228   998A      0.910370  
     999A      0.915664  1000A      0.920929  1001A      0.922034  
    1002A      0.924851  1003A      0.927728  1004A      0.928393  
    1005A      0.928900  1006A      0.930320  1007A      0.932053  
    1008A      0.933537  1009A      0.936415  1010A      0.938377  
    1011A      0.938934  1012A      0.940735  1013A      0.941201  
    1014A      0.943007  1015A      0.943900  1016A      0.944346  
    1017A      0.945974  1018A      0.948733  1019A      0.950458  
    1020A      0.950772  1021A      0.952133  1022A      0.955484  
    1023A      0.957531  1024A      0.958550  1025A      0.961402  
    1026A      0.961737  1027A      0.963171  1028A      0.965468  
    1029A      0.966228  1030A      0.967307  1031A      0.968906  
    1032A      0.970283  1033A      0.971538  1034A      0.973865  
    1035A      0.976622  1036A      0.977491  1037A      0.979845  
    1038A      0.982073  1039A      0.982236  1040A      0.983825  
    1041A      0.985105  1042A      0.986190  1043A      0.986911  
    1044A      0.987279  1045A      0.990016  1046A      0.990690  
    1047A      0.991562  1048A      0.993310  1049A      0.994867  
    1050A      0.995349  1051A      0.996548  1052A      0.998882  
    1053A      0.999300  1054A      1.000313  1055A      1.001764  
    1056A      1.003061  1057A      1.004412  1058A      1.004574  
    1059A      1.005647  1060A      1.006867  1061A      1.007724  
    1062A      1.008516  1063A      1.009031  1064A      1.010255  
    1065A      1.010723  1066A      1.011360  1067A      1.011958  
    1068A      1.012969  1069A      1.014204  1070A      1.015113  
    1071A      1.016200  1072A      1.016468  1073A      1.017809  
    1074A      1.017962  1075A      1.019835  1076A      1.020848  
    1077A      1.021866  1078A      1.023125  1079A      1.024229  
    1080A      1.025055  1081A      1.025688  1082A      1.026336  
    1083A      1.026842  1084A      1.027021  1085A      1.028471  
    1086A      1.029129  1087A      1.030376  1088A      1.031295  
    1089A      1.033479  1090A      1.034827  1091A      1.035392  
    1092A      1.036609  1093A      1.038096  1094A      1.038800  
    1095A      1.039786  1096A      1.040794  1097A      1.042312  
    1098A      1.043687  1099A      1.044867  1100A      1.045016  
    1101A      1.047555  1102A      1.049384  1103A      1.050599  
    1104A      1.051267  1105A      1.055608  1106A      1.057074  
    1107A      1.057605  1108A      1.058425  1109A      1.059855  
    1110A      1.060899  1111A      1.063751  1112A      1.064445  
    1113A      1.066404  1114A      1.067261  1115A      1.068789  
    1116A      1.070132  1117A      1.071207  1118A      1.074520  
    1119A      1.077255  1120A      1.079439  1121A      1.080883  
    1122A      1.083495  1123A      1.084190  1124A      1.085445  
    1125A      1.086040  1126A      1.087120  1127A      1.088523  
    1128A      1.090272  1129A      1.092670  1130A      1.094356  
    1131A      1.095449  1132A      1.096233  1133A      1.097470  
    1134A      1.100427  1135A      1.102181  1136A      1.105190  
    1137A      1.105571  1138A      1.106700  1139A      1.109234  
    1140A      1.110423  1141A      1.111414  1142A      1.115160  
    1143A      1.116701  1144A      1.118486  1145A      1.122930  
    1146A      1.126055  1147A      1.126634  1148A      1.129907  
    1149A      1.130906  1150A      1.131292  1151A      1.135962  
    1152A      1.137200  1153A      1.138309  1154A      1.139843  
    1155A      1.140521  1156A      1.142203  1157A      1.146935  
    1158A      1.149073  1159A      1.150564  1160A      1.151575  
    1161A      1.153685  1162A      1.155419  1163A      1.157667  
    1164A      1.159143  1165A      1.160895  1166A      1.163517  
    1167A      1.164490  1168A      1.166460  1169A      1.168704  
    1170A      1.171670  1171A      1.175011  1172A      1.178890  
    1173A      1.180876  1174A      1.181038  1175A      1.183271  
    1176A      1.186202  1177A      1.190353  1178A      1.192781  
    1179A      1.194814  1180A      1.196760  1181A      1.199298  
    1182A      1.199729  1183A      1.199978  1184A      1.203996  
    1185A      1.205095  1186A      1.206616  1187A      1.210636  
    1188A      1.214003  1189A      1.217247  1190A      1.220287  
    1191A      1.222744  1192A      1.223100  1193A      1.225839  
    1194A      1.227826  1195A      1.228848  1196A      1.230300  
    1197A      1.231079  1198A      1.232637  1199A      1.234042  
    1200A      1.234837  1201A      1.240070  1202A      1.241794  
    1203A      1.243239  1204A      1.245514  1205A      1.246627  
    1206A      1.249103  1207A      1.250141  1208A      1.252507  
    1209A      1.255644  1210A      1.255975  1211A      1.258334  
    1212A      1.258666  1213A      1.259157  1214A      1.261914  
    1215A      1.264902  1216A      1.265569  1217A      1.266906  
    1218A      1.269407  1219A      1.270304  1220A      1.273045  
    1221A      1.273278  1222A      1.275437  1223A      1.275583  
    1224A      1.275711  1225A      1.277342  1226A      1.280502  
    1227A      1.282861  1228A      1.284984  1229A      1.289785  
    1230A      1.290170  1231A      1.291533  1232A      1.293109  
    1233A      1.296475  1234A      1.297705  1235A      1.301533  
    1236A      1.303422  1237A      1.305039  1238A      1.308673  
    1239A      1.310436  1240A      1.310569  1241A      1.312168  
    1242A      1.314296  1243A      1.315825  1244A      1.317612  
    1245A      1.323175  1246A      1.324230  1247A      1.325884  
    1248A      1.327376  1249A      1.329179  1250A      1.333132  
    1251A      1.336695  1252A      1.337455  1253A      1.338391  
    1254A      1.344390  1255A      1.344808  1256A      1.345758  
    1257A      1.349192  1258A      1.350727  1259A      1.352229  
    1260A      1.352912  1261A      1.355420  1262A      1.357254  
    1263A      1.360479  1264A      1.363514  1265A      1.364620  
    1266A      1.366788  1267A      1.367709  1268A      1.369449  
    1269A      1.371000  1270A      1.373312  1271A      1.374503  
    1272A      1.376408  1273A      1.377917  1274A      1.380162  
    1275A      1.381719  1276A      1.384180  1277A      1.385361  
    1278A      1.385895  1279A      1.388959  1280A      1.390301  
    1281A      1.391341  1282A      1.393206  1283A      1.395263  
    1284A      1.396721  1285A      1.397302  1286A      1.399925  
    1287A      1.405968  1288A      1.410655  1289A      1.412889  
    1290A      1.414545  1291A      1.417360  1292A      1.417893  
    1293A      1.420689  1294A      1.424494  1295A      1.425340  
    1296A      1.425471  1297A      1.427409  1298A      1.439265  
    1299A      1.440641  1300A      1.441141  1301A      1.443329  
    1302A      1.445108  1303A      1.449873  1304A      1.452206  
    1305A      1.453202  1306A      1.469413  1307A      1.470387  
    1308A      1.473290  1309A      1.475610  1310A      1.480374  
    1311A      1.483040  1312A      1.488223  1313A      1.488640  
    1314A      1.506326  1315A      1.515858  1316A      1.517673  
    1317A      1.526160  1318A      1.529997  1319A      1.533997  
    1320A      1.534843  1321A      1.538205  1322A      1.538628  
    1323A      1.539359  1324A      1.540481  1325A      1.540823  
    1326A      1.544153  1327A      1.546267  1328A      1.546614  
    1329A      1.546982  1330A      1.549527  1331A      1.551453  
    1332A      1.553997  1333A      1.554920  1334A      1.555627  
    1335A      1.558004  1336A      1.558982  1337A      1.560181  
    1338A      1.561478  1339A      1.561680  1340A      1.563312  
    1341A      1.565639  1342A      1.566694  1343A      1.567165  
    1344A      1.570903  1345A      1.571826  1346A      1.572880  
    1347A      1.574533  1348A      1.576141  1349A      1.576518  
    1350A      1.577117  1351A      1.577776  1352A      1.579084  
    1353A      1.580727  1354A      1.583580  1355A      1.583908  
    1356A      1.587623  1357A      1.587962  1358A      1.589265  
    1359A      1.590156  1360A      1.592942  1361A      1.595786  
    1362A      1.597538  1363A      1.598243  1364A      1.599627  
    1365A      1.601340  1366A      1.601945  1367A      1.603780  
    1368A      1.604490  1369A      1.607407  1370A      1.609430  
    1371A      1.610552  1372A      1.612744  1373A      1.613987  
    1374A      1.614738  1375A      1.620050  1376A      1.622044  
    1377A      1.624795  1378A      1.627215  1379A      1.628102  
    1380A      1.630300  1381A      1.632285  1382A      1.633323  
    1383A      1.636646  1384A      1.638244  1385A      1.643263  
    1386A      1.643907  1387A      1.645738  1388A      1.646694  
    1389A      1.649153  1390A      1.650784  1391A      1.651029  
    1392A      1.653265  1393A      1.656217  1394A      1.656705  
    1395A      1.656934  1396A      1.658730  1397A      1.662188  
    1398A      1.664042  1399A      1.674807  1400A      1.681845  
    1401A      1.683172  1402A      1.683414  1403A      1.685355  
    1404A      1.685990  1405A      1.687813  1406A      1.692725  
    1407A      1.699251  1408A      1.701383  1409A      1.705114  
    1410A      1.714686  1411A      1.724022  1412A      1.724525  
    1413A      1.726083  1414A      1.734668  1415A      1.734896  
    1416A      1.736721  1417A      1.744754  1418A      1.749336  
    1419A      1.754967  1420A      1.758924  1421A      1.760271  
    1422A      1.761414  1423A      1.762769  1424A      1.763772  
    1425A      1.764849  1426A      1.766286  1427A      1.767887  
    1428A      1.770922  1429A      1.771875  1430A      1.772527  
    1431A      1.775853  1432A      1.776510  1433A      1.779841  
    1434A      1.781703  1435A      1.785773  1436A      1.787159  
    1437A      1.794442  1438A      1.794811  1439A      1.795158  
    1440A      1.796597  1441A      1.797021  1442A      1.797646  
    1443A      1.801305  1444A      1.804977  1445A      1.805495  
    1446A      1.807215  1447A      1.808440  1448A      1.813312  
    1449A      1.814126  1450A      1.816507  1451A      1.817770  
    1452A      1.818483  1453A      1.818935  1454A      1.819247  
    1455A      1.820816  1456A      1.822835  1457A      1.822942  
    1458A      1.823503  1459A      1.824090  1460A      1.827660  
    1461A      1.830439  1462A      1.836120  1463A      1.841197  
    1464A      1.843605  1465A      1.844602  1466A      1.845370  
    1467A      1.846812  1468A      1.848547  1469A      1.849802  
    1470A      1.851788  1471A      1.853572  1472A      1.855006  
    1473A      1.857420  1474A      1.858469  1475A      1.859596  
    1476A      1.862339  1477A      1.863906  1478A      1.864552  
    1479A      1.869402  1480A      1.872744  1481A      1.874149  
    1482A      1.875760  1483A      1.877165  1484A      1.877659  
    1485A      1.878423  1486A      1.881997  1487A      1.882788  
    1488A      1.883091  1489A      1.883846  1490A      1.886529  
    1491A      1.889810  1492A      1.892321  1493A      1.895207  
    1494A      1.896092  1495A      1.896864  1496A      1.897322  
    1497A      1.898367  1498A      1.899974  1499A      1.903362  
    1500A      1.905323  1501A      1.906723  1502A      1.907677  
    1503A      1.908972  1504A      1.909926  1505A      1.911009  
    1506A      1.911925  1507A      1.917366  1508A      1.919613  
    1509A      1.921968  1510A      1.922760  1511A      1.925116  
    1512A      1.926555  1513A      1.929616  1514A      1.930800  
    1515A      1.932440  1516A      1.935455  1517A      1.938922  
    1518A      1.942527  1519A      1.943676  1520A      1.944379  
    1521A      1.947982  1522A      1.951158  1523A      1.951680  
    1524A      1.952085  1525A      1.953683  1526A      1.954844  
    1527A      1.955909  1528A      1.956658  1529A      1.957507  
    1530A      1.959342  1531A      1.960465  1532A      1.961403  
    1533A      1.962615  1534A      1.967620  1535A      1.968669  
    1536A      1.972907  1537A      1.973257  1538A      1.974225  
    1539A      1.976193  1540A      1.977916  1541A      1.980180  
    1542A      1.982219  1543A      1.985475  1544A      1.989247  
    1545A      1.990220  1546A      1.992177  1547A      1.993564  
    1548A      1.995461  1549A      1.996375  1550A      1.999143  
    1551A      2.000603  1552A      2.002035  1553A      2.002492  
    1554A      2.004095  1555A      2.004866  1556A      2.006714  
    1557A      2.011203  1558A      2.012561  1559A      2.015303  
    1560A      2.016467  1561A      2.017297  1562A      2.017996  
    1563A      2.019044  1564A      2.019938  1565A      2.020652  
    1566A      2.021925  1567A      2.023724  1568A      2.024088  
    1569A      2.026932  1570A      2.027951  1571A      2.028810  
    1572A      2.029099  1573A      2.029671  1574A      2.030222  
    1575A      2.032010  1576A      2.033729  1577A      2.036234  
    1578A      2.037264  1579A      2.037809  1580A      2.039259  
    1581A      2.042451  1582A      2.043114  1583A      2.046278  
    1584A      2.047753  1585A      2.048914  1586A      2.049875  
    1587A      2.051007  1588A      2.052313  1589A      2.052870  
    1590A      2.053524  1591A      2.053998  1592A      2.055410  
    1593A      2.059141  1594A      2.060033  1595A      2.063016  
    1596A      2.063525  1597A      2.064666  1598A      2.065381  
    1599A      2.066267  1600A      2.067509  1601A      2.068435  
    1602A      2.071173  1603A      2.074137  1604A      2.075665  
    1605A      2.077729  1606A      2.080807  1607A      2.081437  
    1608A      2.081746  1609A      2.083390  1610A      2.084068  
    1611A      2.087318  1612A      2.088990  1613A      2.092176  
    1614A      2.095064  1615A      2.095594  1616A      2.096373  
    1617A      2.097091  1618A      2.097620  1619A      2.100831  
    1620A      2.102050  1621A      2.103317  1622A      2.106400  
    1623A      2.109516  1624A      2.110939  1625A      2.116248  
    1626A      2.117518  1627A      2.118903  1628A      2.120394  
    1629A      2.124213  1630A      2.125756  1631A      2.126236  
    1632A      2.127090  1633A      2.128210  1634A      2.130096  
    1635A      2.130410  1636A      2.132364  1637A      2.133761  
    1638A      2.137115  1639A      2.137848  1640A      2.138445  
    1641A      2.139738  1642A      2.142661  1643A      2.147316  
    1644A      2.148392  1645A      2.149721  1646A      2.152421  
    1647A      2.154011  1648A      2.154966  1649A      2.159640  
    1650A      2.160697  1651A      2.161642  1652A      2.163334  
    1653A      2.164447  1654A      2.167428  1655A      2.169368  
    1656A      2.170363  1657A      2.170778  1658A      2.171847  
    1659A      2.173017  1660A      2.174565  1661A      2.175361  
    1662A      2.180710  1663A      2.184968  1664A      2.188352  
    1665A      2.191287  1666A      2.193052  1667A      2.197049  
    1668A      2.202778  1669A      2.203831  1670A      2.207363  
    1671A      2.210061  1672A      2.210609  1673A      2.212727  
    1674A      2.218958  1675A      2.219305  1676A      2.219953  
    1677A      2.223745  1678A      2.229563  1679A      2.229976  
    1680A      2.231684  1681A      2.234795  1682A      2.239689  
    1683A      2.241150  1684A      2.243938  1685A      2.249180  
    1686A      2.258787  1687A      2.260504  1688A      2.261815  
    1689A      2.263088  1690A      2.264898  1691A      2.265292  
    1692A      2.266025  1693A      2.267231  1694A      2.267681  
    1695A      2.267908  1696A      2.270515  1697A      2.275135  
    1698A      2.275851  1699A      2.276931  1700A      2.277591  
    1701A      2.278275  1702A      2.279078  1703A      2.279999  
    1704A      2.280398  1705A      2.282419  1706A      2.283070  
    1707A      2.283660  1708A      2.297987  1709A      2.300445  
    1710A      2.306395  1711A      2.311722  1712A      2.321237  
    1713A      2.323816  1714A      2.327122  1715A      2.329329  
    1716A      2.332289  1717A      2.337236  1718A      2.352693  
    1719A      2.354265  1720A      2.359045  1721A      2.359287  
    1722A      2.363413  1723A      2.365897  1724A      2.373387  
    1725A      2.380067  1726A      2.381096  1727A      2.386751  
    1728A      2.389254  1729A      2.399301  1730A      2.401037  
    1731A      2.402820  1732A      2.404337  1733A      2.404408  
    1734A      2.407893  1735A      2.408273  1736A      2.424927  
    1737A      2.428637  1738A      2.429769  1739A      2.432159  
    1740A      2.439406  1741A      2.443171  1742A      2.443754  
    1743A      2.448575  1744A      2.454560  1745A      2.474140  
    1746A      2.474869  1747A      2.476661  1748A      2.478137  
    1749A      2.478680  1750A      2.482173  1751A      2.484280  
    1752A      2.485963  1753A      2.487568  1754A      2.487768  
    1755A      2.489006  1756A      2.489396  1757A      2.499272  
    1758A      2.507211  1759A      2.510179  1760A      2.511430  
    1761A      2.519817  1762A      2.521475  1763A      2.522566  
    1764A      2.524591  1765A      2.524993  1766A      2.526549  
    1767A      2.527788  1768A      2.528870  1769A      2.533928  
    1770A      2.538527  1771A      2.538562  1772A      2.543473  
    1773A      2.548935  1774A      2.549390  1775A      2.550407  
    1776A      2.550973  1777A      2.551504  1778A      2.551823  
    1779A      2.568184  1780A      2.571136  1781A      2.577520  
    1782A      2.579407  1783A      2.580750  1784A      2.581987  
    1785A      2.584352  1786A      2.584917  1787A      2.586974  
    1788A      2.592808  1789A      2.595644  1790A      2.596423  
    1791A      2.598276  1792A      2.601922  1793A      2.606134  
    1794A      2.606933  1795A      2.609642  1796A      2.610187  
    1797A      2.617140  1798A      2.618297  1799A      2.622381  
    1800A      2.622979  1801A      2.624512  1802A      2.626373  
    1803A      2.627035  1804A      2.627436  1805A      2.629415  
    1806A      2.631191  1807A      2.633340  1808A      2.639453  
    1809A      2.643336  1810A      2.658117  1811A      2.660117  
    1812A      2.660492  1813A      2.667297  1814A      2.667638  
    1815A      2.668592  1816A      2.685004  1817A      2.689581  
    1818A      2.692439  1819A      2.698586  1820A      2.706684  
    1821A      2.707960  1822A      2.714220  1823A      2.716555  
    1824A      2.716878  1825A      2.727504  1826A      2.732433  
    1827A      2.732828  1828A      2.735139  1829A      2.735212  
    1830A      2.735706  1831A      2.740707  1832A      2.745173  
    1833A      2.746066  1834A      2.747763  1835A      2.749419  
    1836A      2.751661  1837A      2.755737  1838A      2.762262  
    1839A      2.764707  1840A      2.765452  1841A      2.774723  
    1842A      2.775856  1843A      2.778215  1844A      2.779201  
    1845A      2.781708  1846A      2.789319  1847A      2.798950  
    1848A      2.799458  1849A      2.801038  1850A      2.804112  
    1851A      2.808531  1852A      2.809563  1853A      2.814274  
    1854A      2.826314  1855A      2.827284  1856A      2.831905  
    1857A      2.843930  1858A      2.857045  1859A      2.857355  
    1860A      2.863300  1861A      2.866580  1862A      2.868092  
    1863A      2.870664  1864A      2.872630  1865A      2.876090  
    1866A      2.901477  1867A      2.905789  1868A      2.906539  
    1869A      2.914903  1870A      2.931648  1871A      2.933428  
    1872A      2.964682  1873A      2.964884  1874A      2.977268  
    1875A      2.980674  1876A      2.985349  1877A      2.985453  
    1878A      2.987817  1879A      2.992555  1880A      2.993156  
    1881A      3.003996  1882A      3.006732  1883A      3.008447  
    1884A      3.043760  1885A      3.045743  1886A      3.047212  
    1887A      3.052031  1888A      3.059554  1889A      3.065847  
    1890A      3.066290  1891A      3.072631  1892A      3.074584  
    1893A      3.079692  1894A      3.081394  1895A      3.087801  
    1896A      3.088765  1897A      3.090319  1898A      3.091849  
    1899A      3.092597  1900A      3.100143  1901A      3.100657  
    1902A      3.104095  1903A      3.109940  1904A      3.114070  
    1905A      3.115635  1906A      3.116902  1907A      3.131567  
    1908A      3.132849  1909A      3.158865  1910A      3.191475  
    1911A      3.197760  1912A      3.198097  1913A      3.198947  
    1914A      3.200843  1915A      3.202875  1916A      3.207293  
    1917A      3.209737  1918A      3.212375  1919A      3.214268  
    1920A      3.231018  1921A      3.232163  1922A      3.240223  
    1923A      3.247669  1924A      3.296118  1925A      3.297480  
    1926A      3.307356  1927A      3.350238  1928A      3.363067  
    1929A      3.368621  1930A      3.371680  1931A      3.384809  
    1932A      3.389458  1933A      3.400187  1934A      3.400416  
    1935A      3.404647  1936A      3.406660  1937A      3.413618  
    1938A      3.417936  1939A      3.419574  1940A      3.443297  
    1941A      3.445226  1942A      3.479995  1943A      3.504233  
    1944A      3.512472  1945A      3.515874  1946A      3.520467  
    1947A      3.526009  1948A      3.579402  1949A      3.580992  
    1950A      3.594516  1951A      3.603273  1952A      3.607589  
    1953A      3.642360  1954A      3.685144  1955A      3.689930  
    1956A      3.692067  1957A      3.701971  1958A      3.715136  
    1959A      3.719156  1960A      3.779477  1961A      3.780944  
    1962A      3.809086  1963A      3.811192  1964A      3.850274  
    1965A      3.858507  1966A      3.878694  1967A      3.881978  
    1968A      3.883389  1969A      3.885118  1970A      3.901183  
    1971A      3.903556  1972A      3.908136  1973A      3.956611  
    1974A      3.958901  1975A      4.014618  1976A      4.178935  
    1977A      4.247981  1978A      4.360118  

    Final Occupation by Irrep:
              A 
    DOCC [   326 ]
    NA   [   326 ]
    NB   [   326 ]

  @DF-RHF Final Energy: -3953.66102195833355

   => Energetics <=

    Nuclear Repulsion Energy =          18300.6226835138768365
    One-Electron Energy =              -41806.2268090358411428
    Two-Electron Energy =               19551.9431035636298475
    Total Energy =                      -3953.6610219583344588

Computation Completed


Properties will be evaluated at   0.000000,   0.000000,   0.000000 [a0]

Properties computed using the SCF density matrix


 Multipole Moments:

 ------------------------------------------------------------------------------------
     Multipole            Electronic (a.u.)      Nuclear  (a.u.)        Total (a.u.)
 ------------------------------------------------------------------------------------

 L = 1.  Multiply by 2.5417464519 to convert [e a0] to [Debye]
 Dipole X            :          0.0019376            0.0004804            0.0024180
 Dipole Y            :         -1.6091493            1.8866171            0.2774678
 Dipole Z            :        -18.8790097           24.2362734            5.3572637
 Magnitude           :                                                    5.3644449

 ------------------------------------------------------------------------------------

*** tstop() called on n2cn1190 at Tue Jan 30 19:03:58 2024
Module time:
	user time   =   27322.51 seconds =     455.38 minutes
	system time =    4527.32 seconds =      75.46 minutes
	total time  =       3009 seconds =      50.15 minutes
Total time:
	user time   =   27322.51 seconds =     455.38 minutes
	system time =    4527.32 seconds =      75.46 minutes
	total time  =       3009 seconds =      50.15 minutes

  //>>>>>>>>>>>>>>>>>>>>>>>>>>>>>>>>>>>//
  //            Monomer A HF           //
  //<<<<<<<<<<<<<<<<<<<<<<<<<<<<<<<<<<<//

   => Libint2 <=

    Primary   basis highest AM E, G, H:  5, 4, 3
    Auxiliary basis highest AM E, G, H:  6, 5, 4
    Onebody   basis highest AM E, G, H:  6, 5, 4
    Solid Harmonics ordering:            gaussian

*** tstart() called on n2cn1190
*** at Tue Jan 30 19:03:58 2024

   => Loading Basis Set <=

    Name: JUN-CC-PVDZ
    Role: ORBITAL
    Keyword: BASIS
    atoms 1-2, 4-5, 10, 17-34, 41-53, 56-70, 73-89, 92-104, 109-119, 122-130 entry C          line   164 file /opt/software/pc2/EB-SW/software/PSI4/1.9-foss-2022a/share/psi4/basis/jun-cc-pvdz.gbs 
    atoms 3, 6                                                               entry N          line   198 file /opt/software/pc2/EB-SW/software/PSI4/1.9-foss-2022a/share/psi4/basis/jun-cc-pvdz.gbs 
    atoms 7-9, 11-16, 35-40, 54-55, 71-72, 90-91, 105-108, 120-121, 131-136  entry H          line    36 file /opt/software/pc2/EB-SW/software/PSI4/1.9-foss-2022a/share/psi4/basis/jun-cc-pvdz.gbs 


         ---------------------------------------------------------
                                   SCF
               by Justin Turney, Rob Parrish, Andy Simmonett
                          and Daniel G. A. Smith
                              RHF Reference
                       16 Threads,  76293 MiB Core
         ---------------------------------------------------------

  ==> Geometry <==

    Molecular point group: c1
    Full point group: C1

    Geometry (in Angstrom), charge = 1, multiplicity = 1:

       Center              X                  Y                   Z               Mass       
    ------------   -----------------  -----------------  -----------------  -----------------
         C            0.680062820275    -1.215917226251     3.703069786609    12.000000000000
         C           -0.680508179725    -1.215533226251     3.701041786609    12.000000000000
         N           -1.085639179725     0.102790773749     3.700043786609    14.003074004430
         C            0.000103820275     0.884191773749     3.696767786609    12.000000000000
[...]
    1585A      2.198885  1586A      2.200029  1587A      2.201368  
    1588A      2.202036  1589A      2.202792  1590A      2.205664  
    1591A      2.208879  1592A      2.210849  1593A      2.212416  
    1594A      2.212714  1595A      2.215798  1596A      2.219658  
    1597A      2.220845  1598A      2.222226  1599A      2.222897  
    1600A      2.223697  1601A      2.224712  1602A      2.228067  
    1603A      2.229272  1604A      2.231701  1605A      2.232282  
    1606A      2.232696  1607A      2.236187  1608A      2.238317  
    1609A      2.239721  1610A      2.240374  1611A      2.243658  
    1612A      2.244039  1613A      2.246369  1614A      2.248377  
    1615A      2.250782  1616A      2.254507  1617A      2.257009  
    1618A      2.261093  1619A      2.264725  1620A      2.265311  
    1621A      2.267379  1622A      2.269297  1623A      2.270695  
    1624A      2.273922  1625A      2.276950  1626A      2.283082  
    1627A      2.284583  1628A      2.289453  1629A      2.289979  
    1630A      2.292163  1631A      2.295527  1632A      2.297736  
    1633A      2.298941  1634A      2.300841  1635A      2.307987  
    1636A      2.309247  1637A      2.314573  1638A      2.321889  
    1639A      2.324233  1640A      2.325449  1641A      2.327212  
    1642A      2.329574  1643A      2.330444  1644A      2.331446  
    1645A      2.332556  1646A      2.333206  1647A      2.333821  
    1648A      2.334479  1649A      2.336847  1650A      2.339593  
    1651A      2.341626  1652A      2.342760  1653A      2.343034  
    1654A      2.345409  1655A      2.345809  1656A      2.346141  
    1657A      2.347122  1658A      2.349187  1659A      2.350966  
    1660A      2.352122  1661A      2.360406  1662A      2.368160  
    1663A      2.375847  1664A      2.377506  1665A      2.385657  
    1666A      2.387369  1667A      2.390016  1668A      2.393381  
    1669A      2.394185  1670A      2.400563  1671A      2.401453  
    1672A      2.414097  1673A      2.419217  1674A      2.422105  
    1675A      2.423792  1676A      2.424601  1677A      2.428801  
    1678A      2.433917  1679A      2.441556  1680A      2.445112  
    1681A      2.449395  1682A      2.453343  1683A      2.456287  
    1684A      2.462528  1685A      2.465092  1686A      2.465321  
    1687A      2.468045  1688A      2.469039  1689A      2.472243  
    1690A      2.472548  1691A      2.478213  1692A      2.492295  
    1693A      2.492733  1694A      2.495599  1695A      2.502104  
    1696A      2.506906  1697A      2.507171  1698A      2.512203  
    1699A      2.513710  1700A      2.517980  1701A      2.539603  
    1702A      2.541114  1703A      2.541435  1704A      2.542557  
    1705A      2.543051  1706A      2.546066  1707A      2.547824  
    1708A      2.549007  1709A      2.550474  1710A      2.551952  
    1711A      2.555111  1712A      2.557145  1713A      2.557256  
    1714A      2.561640  1715A      2.565112  1716A      2.571817  
    1717A      2.572361  1718A      2.577485  1719A      2.585036  
    1720A      2.585895  1721A      2.586121  1722A      2.586350  
    1723A      2.587296  1724A      2.587787  1725A      2.589148  
    1726A      2.593393  1727A      2.594843  1728A      2.601438  
    1729A      2.602114  1730A      2.608691  1731A      2.612308  
    1732A      2.613944  1733A      2.614238  1734A      2.615808  
    1735A      2.616147  1736A      2.616675  1737A      2.625930  
    1738A      2.633433  1739A      2.638641  1740A      2.642456  
    1741A      2.645253  1742A      2.646899  1743A      2.649768  
    1744A      2.650446  1745A      2.651184  1746A      2.653662  
    1747A      2.656465  1748A      2.660633  1749A      2.660905  
    1750A      2.666661  1751A      2.667982  1752A      2.669206  
    1753A      2.672701  1754A      2.675008  1755A      2.675262  
    1756A      2.678220  1757A      2.680511  1758A      2.684093  
    1759A      2.687849  1760A      2.688900  1761A      2.691027  
    1762A      2.692489  1763A      2.692698  1764A      2.694666  
    1765A      2.695964  1766A      2.696472  1767A      2.697256  
    1768A      2.700898  1769A      2.707310  1770A      2.709290  
    1771A      2.721117  1772A      2.722825  1773A      2.723293  
    1774A      2.731164  1775A      2.733691  1776A      2.735892  
    1777A      2.752585  1778A      2.755935  1779A      2.761099  
    1780A      2.762624  1781A      2.771077  1782A      2.777417  
    1783A      2.780045  1784A      2.782983  1785A      2.785525  
    1786A      2.799913  1787A      2.800067  1788A      2.800400  
    1789A      2.802454  1790A      2.802703  1791A      2.804821  
    1792A      2.812542  1793A      2.816322  1794A      2.816493  
    1795A      2.817485  1796A      2.819728  1797A      2.822576  
    1798A      2.830468  1799A      2.834122  1800A      2.838448  
    1801A      2.843226  1802A      2.843922  1803A      2.844556  
    1804A      2.847254  1805A      2.849657  1806A      2.854077  
    1807A      2.866478  1808A      2.866656  1809A      2.868140  
    1810A      2.872505  1811A      2.873193  1812A      2.877749  
    1813A      2.896244  1814A      2.897139  1815A      2.898571  
    1816A      2.911892  1817A      2.918937  1818A      2.919885  
    1819A      2.927791  1820A      2.930498  1821A      2.931984  
    1822A      2.932599  1823A      2.934639  1824A      2.936606  
    1825A      2.962705  1826A      2.966714  1827A      2.968126  
    1828A      2.969615  1829A      2.971658  1830A      2.979861  
    1831A      2.991295  1832A      3.000372  1833A      3.002255  
    1834A      3.026771  1835A      3.031310  1836A      3.032019  
    1837A      3.039845  1838A      3.043781  1839A      3.049029  
    1840A      3.049791  1841A      3.051248  1842A      3.058793  
    1843A      3.059389  1844A      3.064660  1845A      3.073686  
    1846A      3.084215  1847A      3.105985  1848A      3.107976  
    1849A      3.109692  1850A      3.111698  1851A      3.121590  
    1852A      3.125949  1853A      3.131519  1854A      3.132546  
    1855A      3.140569  1856A      3.142904  1857A      3.144979  
    1858A      3.151661  1859A      3.153050  1860A      3.153872  
    1861A      3.154235  1862A      3.158404  1863A      3.162683  
    1864A      3.167179  1865A      3.168520  1866A      3.170386  
    1867A      3.175931  1868A      3.178588  1869A      3.184287  
    1870A      3.195466  1871A      3.196260  1872A      3.220878  
    1873A      3.247686  1874A      3.255344  1875A      3.262636  
    1876A      3.263007  1877A      3.264109  1878A      3.264580  
    1879A      3.267589  1880A      3.271185  1881A      3.274760  
    1882A      3.276321  1883A      3.278785  1884A      3.295928  
    1885A      3.297287  1886A      3.305635  1887A      3.312326  
    1888A      3.315666  1889A      3.360332  1890A      3.361704  
    1891A      3.370958  1892A      3.372596  1893A      3.385891  
    1894A      3.418141  1895A      3.429134  1896A      3.434261  
    1897A      3.441224  1898A      3.452861  1899A      3.462563  
    1900A      3.467807  1901A      3.473376  1902A      3.474760  
    1903A      3.476037  1904A      3.481457  1905A      3.487349  
    1906A      3.488710  1907A      3.489871  1908A      3.513146  
    1909A      3.534294  1910A      3.550973  1911A      3.552448  
    1912A      3.579395  1913A      3.580721  1914A      3.588660  
    1915A      3.591350  1916A      3.620346  1917A      3.647535  
    1918A      3.649623  1919A      3.661415  1920A      3.671224  
    1921A      3.673835  1922A      3.709082  1923A      3.752324  
    1924A      3.756404  1925A      3.758563  1926A      3.768575  
    1927A      3.770778  1928A      3.779717  1929A      3.789802  
    1930A      3.831603  1931A      3.845429  1932A      3.846055  
    1933A      3.874361  1934A      3.876613  1935A      3.884009  
    1936A      3.916189  1937A      3.924238  1938A      3.947807  
    1939A      3.949251  1940A      3.951268  1941A      3.953847  
    1942A      3.968877  1943A      3.972680  1944A      3.978329  
    1945A      3.990616  1946A      4.024964  1947A      4.027855  
    1948A      4.082854  1949A      4.244766  1950A      4.248696  
    1951A      4.256234  1952A      4.321550  1953A      4.432636  
    1954A      4.509648  1955A      4.530098  1956A      4.544382  
    1957A      4.786577  1958A      4.819302  1959A      4.866916  
    1960A      4.898109  1961A      4.970866  1962A      5.081175  
    1963A      5.089188  1964A      5.094128  1965A      5.142704  
    1966A      5.170076  1967A      5.404514  1968A      5.439208  
    1969A      5.767646  1970A      5.773187  1971A      6.079975  
    1972A     18.218333  1973A     18.475214  1974A     18.492244  
    1975A     18.583628  1976A     18.881260  1977A     25.365419  
    1978A     25.400623  

    Final Occupation by Irrep:
              A 
    DOCC [   300 ]
    NA   [   300 ]
    NB   [   300 ]

  @DF-RHF Final Energy: -3650.34128140720213

   => Energetics <=

    Nuclear Repulsion Energy =          15611.4211649754324753
    One-Electron Energy =              -36072.1836039432237158
    Two-Electron Energy =               16810.4211575605877442
    Total Energy =                      -3650.3412814072034962

Computation Completed


Properties will be evaluated at   0.000000,   0.000000,   0.000000 [a0]

Properties computed using the SCF density matrix


 Multipole Moments:

 ------------------------------------------------------------------------------------
     Multipole            Electronic (a.u.)      Nuclear  (a.u.)        Total (a.u.)
 ------------------------------------------------------------------------------------

 L = 1.  Multiply by 2.5417464519 to convert [e a0] to [Debye]
 Dipole X            :         -0.0001849            0.0002112            0.0000263
 Dipole Y            :          0.0043316           -0.0044281           -0.0000965
 Dipole Z            :        345.7762875         -345.7849836           -0.0086962
 Magnitude           :                                                    0.0086967

 ------------------------------------------------------------------------------------

*** tstop() called on n2cn1190 at Tue Jan 30 19:46:57 2024
Module time:
	user time   =   18614.04 seconds =     310.23 minutes
	system time =    1549.89 seconds =      25.83 minutes
	total time  =       1796 seconds =      29.93 minutes
Total time:
	user time   =   51290.01 seconds =     854.83 minutes
	system time =    6578.88 seconds =     109.65 minutes
	total time  =       5588 seconds =      93.13 minutes
  Constructing Basis Sets for SAPT...

   => Loading Basis Set <=

    Name: (JUN-CC-PVDZ AUX)
    Role: RIFIT
    Keyword: DF_BASIS_SAPT
    atoms 1-2, 4-5, 10, 17-34, 41-53, 56-70, 73-89, 92-104, 109-119, 122-130 entry C          line   100 file /opt/software/pc2/EB-SW/software/PSI4/1.9-foss-2022a/share/psi4/basis/jun-cc-pvdz-ri.gbs 
    atoms 3, 6                                                               entry N          line   144 file /opt/software/pc2/EB-SW/software/PSI4/1.9-foss-2022a/share/psi4/basis/jun-cc-pvdz-ri.gbs 
    atoms 7-9, 11-16, 35-40, 54-55, 71-72, 90-91, 105-108, 120-121, 131-136  entry H          line    30 file /opt/software/pc2/EB-SW/software/PSI4/1.9-foss-2022a/share/psi4/basis/jun-cc-pvdz-ri.gbs 

   => Loading Basis Set <=

    Name: (JUN-CC-PVDZ AUX)
    Role: JKFIT
    Keyword: DF_BASIS_ELST
    atoms 1-2, 4-5, 10, 17-34, 41-53, 56-70, 73-89, 92-104, 109-119, 122-130 entry C          line   146 file /opt/software/pc2/EB-SW/software/PSI4/1.9-foss-2022a/share/psi4/basis/jun-cc-pvdz-jkfit.gbs 
    atoms 3, 6                                                               entry N          line   202 file /opt/software/pc2/EB-SW/software/PSI4/1.9-foss-2022a/share/psi4/basis/jun-cc-pvdz-jkfit.gbs 
    atoms 7-9, 11-16, 35-40, 54-55, 71-72, 90-91, 105-108, 120-121, 131-136  entry H          line    70 file /opt/software/pc2/EB-SW/software/PSI4/1.9-foss-2022a/share/psi4/basis/jun-cc-pvdz-jkfit.gbs 


  //>>>>>>>>>>>>>>>>>>>>>>>>>>>>>>>>>>>//
  //               SSAPT0              //
  //<<<<<<<<<<<<<<<<<<<<<<<<<<<<<<<<<<<//


*** tstart() called on n2cn1190
*** at Tue Jan 30 19:46:58 2024

        SAPT0  
    Ed Hohenstein
     6 June 2009

      Orbital Information
  --------------------------
    NSO        =      2019
    NMO        =      1978
    NRI        =      7157
    NRI (Elst) =      8896
    NOCC A     =        26
    NOCC B     =       300
    FOCC A     =         7
    FOCC B     =        96
    NVIR A     =      1952
    NVIR B     =      1678

    Elst10,r            =    -0.013746409128 [Eh]
    Exch10              =     0.003809107308 [Eh]
    Exch10 (S^2)        =     0.003807697426 [Eh]

    Iter     Energy [mEh]          dE [mEh]         Residual      Time [s]
       1      -0.29672052       0.296720517       2.105161429            72
       2      -0.35267714       0.055956626       0.593025480           136
       3      -0.35705119       0.004374053       0.089013383           204
       4      -0.35628220      -0.000768994       0.030144932           264
       5      -0.35625342      -0.000028784       0.008611992           451
       6      -0.35629832       0.000044900       0.002214696           515
       7      -0.35629726      -0.000001057       0.001057243           582
       8      -0.35629429      -0.000002973       0.000366366           650
       9      -0.35629479       0.000000508       0.000143683           727
      10      -0.35629499       0.000000197       0.000044989           796
      11      -0.35629494      -0.000000052       0.000015208           863
      12      -0.35629493      -0.000000013       0.000004665           937
      13      -0.35629493       0.000000002       0.000001277          1005
      14      -0.35629493       0.000000001       0.000000472          1076

    CHF Iterations converged


    Iter     Energy [mEh]          dE [mEh]         Residual      Time [s]
       1     -16.45753554      16.457535539      68.935070813           109
       2     -10.79130044      -5.666235101       8.518858755           210
       3     -10.79536603       0.004065595       3.074123353           304
       4     -11.02966378       0.234297746       0.941779308           403
       5     -11.05750409       0.027840313       0.336975080           501
       6     -11.05327563      -0.004228459       0.228171748           600
       7     -11.04702646      -0.006249169       0.092724992           707
       8     -11.04768627       0.000659805       0.051703846           799
       9     -11.04908858       0.001402317       0.030925541           894
      10     -11.04877054      -0.000318040       0.027057669           992
      11     -11.04845661      -0.000313936       0.012205254          1092
      12     -11.04845917       0.000002565       0.005836190          1194
      13     -11.04853047       0.000071300       0.002414202          1297
      14     -11.04854640       0.000015928       0.001271421          1404
      15     -11.04853672      -0.000009679       0.000811549          1502
      16     -11.04852630      -0.000010423       0.000368615          1598
      17     -11.04853195       0.000005647       0.000153265          1702
      18     -11.04853328       0.000001335       0.000067542          1810
      19     -11.04853261      -0.000000675       0.000044792          1926
      20     -11.04853209      -0.000000512       0.000021064          2027
      21     -11.04853230       0.000000204       0.000011169          2149
      22     -11.04853239       0.000000091       0.000005134          2258
      23     -11.04853236      -0.000000030       0.000002765          2370
      24     -11.04853234      -0.000000023       0.000001715          2481
      25     -11.04853234       0.000000003       0.000000963          2593

    CHF Iterations converged

    Ind20,r (A<-B)      =    -0.000356294930 [Eh]
    Ind20,r (B<-A)      =    -0.011048532339 [Eh]
    Ind20,r             =    -0.011404827269 [Eh]
    Exch-Ind20,r (A<-B) =     0.000329668588 [Eh]
    Exch-Ind20,r (B<-A) =     0.000638650362 [Eh]
    Exch-Ind20,r        =     0.000968318950 [Eh]
    Disp20              =    -0.019172119692 [Eh]
    Disp20 (SS)         =    -0.009586059846 [Eh]
    Disp20 (OS)         =    -0.009586059846 [Eh]
    Exch-Disp20         =     0.000545668160 [Eh]
    Exch-Disp20 (SS)    =     0.000345928945 [Eh]
    Exch-Disp20 (OS)    =     0.000199739215 [Eh]

    SAPT Results 
  --------------------------------------------------------------------------------------------------------
    Electrostatics                -13.74640913 [mEh]      -8.62600196 [kcal/mol]     -36.09119219 [kJ/mol]
      Elst10,r                    -13.74640913 [mEh]      -8.62600196 [kcal/mol]     -36.09119219 [kJ/mol]

    Exchange                        3.80910731 [mEh]       2.39025092 [kcal/mol]      10.00080986 [kJ/mol]
      Exch10                        3.80910731 [mEh]       2.39025092 [kcal/mol]      10.00080986 [kJ/mol]
      Exch10(S^2)                   3.80769743 [mEh]       2.38936621 [kcal/mol]       9.99710821 [kJ/mol]

    Induction                     -11.18530418 [mEh]      -7.01888434 [kcal/mol]     -29.36701209 [kJ/mol]
      Ind20,r                     -11.40482727 [mEh]      -7.15663716 [kcal/mol]     -29.94336987 [kJ/mol]
      Exch-Ind20,r                  0.96831895 [mEh]       0.60762931 [kcal/mol]       2.54232105 [kJ/mol]
      delta HF,r (2)               -0.74879586 [mEh]      -0.46987650 [kcal/mol]      -1.96596327 [kJ/mol]

    Dispersion                    -18.62645153 [mEh]     -11.68827480 [kcal/mol]     -48.90374176 [kJ/mol]
      Disp20                      -19.17211969 [mEh]     -12.03068674 [kcal/mol]     -50.33639332 [kJ/mol]
      Exch-Disp20                   0.54566816 [mEh]       0.34241194 [kcal/mol]       1.43265156 [kJ/mol]
      Disp20 (SS)                  -9.58605985 [mEh]      -6.01534337 [kcal/mol]     -25.16819666 [kJ/mol]
      Disp20 (OS)                  -9.58605985 [mEh]      -6.01534337 [kcal/mol]     -25.16819666 [kJ/mol]
      Exch-Disp20 (SS)              0.34592894 [mEh]       0.21707369 [kcal/mol]       0.90823632 [kJ/mol]
      Exch-Disp20 (OS)              0.19973922 [mEh]       0.12533825 [kcal/mol]       0.52441524 [kJ/mol]

  Total HF                        -21.12260600 [mEh]     -13.25463538 [kcal/mol]     -55.45739442 [kJ/mol]
  Total SAPT0                     -39.74905754 [mEh]     -24.94291018 [kcal/mol]    -104.36113618 [kJ/mol]

  Special recipe for scaled SAPT0 (see Manual):
    Electrostatics sSAPT0         -13.74640913 [mEh]      -8.62600196 [kcal/mol]     -36.09119219 [kJ/mol]
    Exchange sSAPT0                 3.80910731 [mEh]       2.39025092 [kcal/mol]      10.00080986 [kJ/mol]
    Induction sSAPT0              -11.18422816 [mEh]      -7.01820913 [kcal/mol]     -29.36418700 [kJ/mol]
    Dispersion sSAPT0             -18.62584517 [mEh]     -11.68789430 [kcal/mol]     -48.90214976 [kJ/mol]
  Total sSAPT0                    -39.74737515 [mEh]     -24.94185447 [kcal/mol]    -104.35671909 [kJ/mol]
  --------------------------------------------------------------------------------------------------------

*** tstop() called on n2cn1190 at Tue Jan 30 22:53:11 2024
Module time:
	user time   =   72635.95 seconds =    1210.60 minutes
	system time =    4547.24 seconds =      75.79 minutes
	total time  =      11173 seconds =     186.22 minutes
Total time:
	user time   =  123927.41 seconds =    2065.46 minutes
	system time =   11126.13 seconds =     185.44 minutes
	total time  =      16762 seconds =     279.37 minutes

    Psi4 stopped on: Tuesday, 30 January 2024 10:53PM
    Psi4 wall time for execution: 4:39:23.70

*** Psi4 exiting successfully. Buy a developer a beer!
